 Entering Gaussian System, Link 0=/usr/local/Cluster-Apps/gaussian/g09/g09
 Initial command:
 /usr/local/Cluster-Apps/gaussian/g09/l1.exe "/home/ah809/rds/hpc-work/04Mar1111AT3/Gau-102879.inp" -scrdir="/home/ah809/rds/hpc-work/04Mar1111AT3/"
 Entering Link 1 = /usr/local/Cluster-Apps/gaussian/g09/l1.exe PID=    102902.
  
 Copyright (c) 1988,1990,1992,1993,1995,1998,2003,2009,2013,
            Gaussian, Inc.  All Rights Reserved.
  
 This is part of the Gaussian(R) 09 program.  It is based on
 the Gaussian(R) 03 system (copyright 2003, Gaussian, Inc.),
 the Gaussian(R) 98 system (copyright 1998, Gaussian, Inc.),
 the Gaussian(R) 94 system (copyright 1995, Gaussian, Inc.),
 the Gaussian 92(TM) system (copyright 1992, Gaussian, Inc.),
 the Gaussian 90(TM) system (copyright 1990, Gaussian, Inc.),
 the Gaussian 88(TM) system (copyright 1988, Gaussian, Inc.),
 the Gaussian 86(TM) system (copyright 1986, Carnegie Mellon
 University), and the Gaussian 82(TM) system (copyright 1983,
 Carnegie Mellon University). Gaussian is a federally registered
 trademark of Gaussian, Inc.
  
 This software contains proprietary and confidential information,
 including trade secrets, belonging to Gaussian, Inc.
  
 This software is provided under written license and may be
 used, copied, transmitted, or stored only in accord with that
 written license.
  
 The following legend is applicable only to US Government
 contracts under FAR:
  
                    RESTRICTED RIGHTS LEGEND
  
 Use, reproduction and disclosure by the US Government is
 subject to restrictions as set forth in subparagraphs (a)
 and (c) of the Commercial Computer Software - Restricted
 Rights clause in FAR 52.227-19.
  
 Gaussian, Inc.
 340 Quinnipiac St., Bldg. 40, Wallingford CT 06492
  
  
 ---------------------------------------------------------------
 Warning -- This program may not be used in any manner that
 competes with the business of Gaussian, Inc. or will provide
 assistance to any competitor of Gaussian, Inc.  The licensee
 of this program is prohibited from giving any competitor of
 Gaussian, Inc. access to this program.  By using this program,
 the user acknowledges that Gaussian, Inc. is engaged in the
 business of creating and licensing software in the field of
 computational chemistry and represents and warrants to the
 licensee that it is not a competitor of Gaussian, Inc. and that
 it will not use this program in any manner prohibited above.
 ---------------------------------------------------------------
  

 Cite this work as:
 Gaussian 09, Revision D.01,
 M. J. Frisch, G. W. Trucks, H. B. Schlegel, G. E. Scuseria, 
 M. A. Robb, J. R. Cheeseman, G. Scalmani, V. Barone, B. Mennucci, 
 G. A. Petersson, H. Nakatsuji, M. Caricato, X. Li, H. P. Hratchian, 
 A. F. Izmaylov, J. Bloino, G. Zheng, J. L. Sonnenberg, M. Hada, 
 M. Ehara, K. Toyota, R. Fukuda, J. Hasegawa, M. Ishida, T. Nakajima, 
 Y. Honda, O. Kitao, H. Nakai, T. Vreven, J. A. Montgomery, Jr., 
 J. E. Peralta, F. Ogliaro, M. Bearpark, J. J. Heyd, E. Brothers, 
 K. N. Kudin, V. N. Staroverov, T. Keith, R. Kobayashi, J. Normand, 
 K. Raghavachari, A. Rendell, J. C. Burant, S. S. Iyengar, J. Tomasi, 
 M. Cossi, N. Rega, J. M. Millam, M. Klene, J. E. Knox, J. B. Cross, 
 V. Bakken, C. Adamo, J. Jaramillo, R. Gomperts, R. E. Stratmann, 
 O. Yazyev, A. J. Austin, R. Cammi, C. Pomelli, J. W. Ochterski, 
 R. L. Martin, K. Morokuma, V. G. Zakrzewski, G. A. Voth, 
 P. Salvador, J. J. Dannenberg, S. Dapprich, A. D. Daniels, 
 O. Farkas, J. B. Foresman, J. V. Ortiz, J. Cioslowski, 
 and D. J. Fox, Gaussian, Inc., Wallingford CT, 2013.
 
 ******************************************
 Gaussian 09:  ES64L-G09RevD.01 24-Apr-2013
                 4-Mar-2019 
 ******************************************
 %nprocshared=8
 Will use up to    8 processors via shared memory.
 %mem=6000MB
 %chk=AT3_1ginp012.chk
 -------------------------------------------------------
 # mPW1PW91/6-311g(d) nmr=giao scrf=(solvent=chloroform)
 -------------------------------------------------------
 1/38=1/1;
 2/12=2,17=6,18=5,40=1/2;
 3/5=4,6=6,7=1,11=2,16=1,25=1,30=1,70=2201,72=7,74=-7/1,2,8,3;
 4//1;
 5/5=2,38=5,53=7/2;
 8/6=1,10=90,11=11/1;
 10/13=100,45=16/2;
 6/7=2,8=2,9=2,10=2,28=1/1;
 99/9=1/99;
 ------------
 AT3_1ginp012
 ------------
 Symbolic Z-matrix:
 Charge =  0 Multiplicity = 1
 C                    -2.58617   0.14083   1.58996 
 C                    -1.26864   0.74561   1.12118 
 C                    -0.19273   0.86456   2.2293 
 C                    -0.69829   1.63042   3.49195 
 C                    -1.06451   3.09369   3.20456 
 O                    -1.65159   3.67957   4.36436 
 N                     1.02854   1.50087   1.69247 
 C                     1.77039   0.64202   0.76187 
 C                     5.45256   2.54624  -0.46035 
 C                     4.34756   2.54698  -1.31035 
 C                     3.16261   1.92825  -0.91143 
 C                     3.05159   1.29797   0.32875 
 C                     4.16908   1.31154   1.16593 
 C                     5.36144   1.92521   0.78401 
 H                     6.37774   3.02832  -0.76545 
 H                     4.3974    3.02643  -2.28353 
 H                     6.20941   1.91603   1.46229 
 F                     2.12089   1.94006  -1.75559 
 F                     4.10466   0.72642   2.37114 
 H                    -3.23314  -0.05751   0.72902 
 H                    -2.42083  -0.80583   2.11365 
 H                    -3.129     0.81998   2.25346 
 H                    -0.8967    0.10071   0.31685 
 H                    -1.46463   1.72261   0.66373 
 H                    -1.59884   1.1258    3.86446 
 H                    -1.79636   3.17034   2.39601 
 H                    -0.18133   3.68245   2.93612 
 H                    -1.84463   4.60652   4.14192 
 H                     2.00977  -0.32058   1.23153 
 H                     1.17318   0.41696  -0.12747 
 H                     0.05908  -0.15267   2.56033 
 C                     0.30502   1.54582   4.65617 
 H                     1.19276   2.16151   4.4811 
 H                    -0.15417   1.89286   5.58828 
 H                     0.62847   0.51215   4.81756 
 H                     1.65993   1.7095    2.46668 
 
                          Input orientation:                          
 ---------------------------------------------------------------------
 Center     Atomic      Atomic             Coordinates (Angstroms)
 Number     Number       Type             X           Y           Z
 ---------------------------------------------------------------------
      1          6           0       -2.586173    0.140832    1.589959
      2          6           0       -1.268642    0.745610    1.121175
      3          6           0       -0.192732    0.864564    2.229300
      4          6           0       -0.698294    1.630420    3.491947
      5          6           0       -1.064509    3.093685    3.204561
      6          8           0       -1.651592    3.679569    4.364356
      7          7           0        1.028539    1.500869    1.692472
      8          6           0        1.770386    0.642015    0.761867
      9          6           0        5.452562    2.546238   -0.460351
     10          6           0        4.347556    2.546979   -1.310352
     11          6           0        3.162606    1.928250   -0.911430
     12          6           0        3.051587    1.297974    0.328750
     13          6           0        4.169084    1.311538    1.165934
     14          6           0        5.361445    1.925214    0.784011
     15          1           0        6.377735    3.028321   -0.765447
     16          1           0        4.397401    3.026425   -2.283527
     17          1           0        6.209408    1.916028    1.462285
     18          9           0        2.120888    1.940056   -1.755590
     19          9           0        4.104658    0.726419    2.371139
     20          1           0       -3.233138   -0.057505    0.729022
     21          1           0       -2.420825   -0.805826    2.113653
     22          1           0       -3.129002    0.819980    2.253460
     23          1           0       -0.896700    0.100708    0.316846
     24          1           0       -1.464630    1.722606    0.663734
     25          1           0       -1.598839    1.125801    3.864455
     26          1           0       -1.796359    3.170336    2.396007
     27          1           0       -0.181333    3.682454    2.936124
     28          1           0       -1.844634    4.606521    4.141922
     29          1           0        2.009769   -0.320582    1.231530
     30          1           0        1.173183    0.416955   -0.127465
     31          1           0        0.059083   -0.152668    2.560334
     32          6           0        0.305018    1.545823    4.656171
     33          1           0        1.192755    2.161510    4.481098
     34          1           0       -0.154170    1.892863    5.588283
     35          1           0        0.628471    0.512145    4.817558
     36          1           0        1.659932    1.709504    2.466683
 ---------------------------------------------------------------------
                    Distance matrix (angstroms):
                    1          2          3          4          5
     1  C    0.000000
     2  C    1.523615   0.000000
     3  C    2.580912   1.549088   0.000000
     4  C    3.066026   2.593983   1.560899   0.000000
     5  C    3.693473   3.145731   2.584591   1.535529   0.000000
     6  O    4.592753   4.390101   3.822432   2.422578   1.425851
     7  N    3.863464   2.484721   1.478030   2.497368   3.033863
     8  C    4.462794   3.061948   2.461040   3.811123   4.473709
     9  C    8.637766   7.135690   6.475461   7.368338   7.496899
    10  C    7.891638   6.379572   5.997822   7.025864   7.069213
    11  C    6.519223   5.016580   4.717405   5.863871   6.013994
    12  C    5.891856   4.426898   3.784910   4.917107   5.332646
    13  C    6.869050   5.467279   4.511759   5.404016   5.892584
    14  C    8.185243   6.742640   5.836328   6.643813   6.965434
    15  H    9.707583   8.199829   7.537996   8.375543   8.435178
    16  H    8.491222   6.992722   6.790329   7.827582   7.743132
    17  H    8.973843   7.576771   6.533092   7.205376   7.571808
    18  F    6.048663   4.603411   4.731688   5.964923   6.006722
    19  F    6.761684   5.516804   4.301949   5.014158   5.746201
    20  H    1.095041   2.158245   3.513561   4.111968   4.556451
    21  H    1.094421   2.172439   2.787109   3.286655   4.270347
    22  H    1.093681   2.179114   2.936708   2.845875   3.215036
    23  H    2.115832   1.095986   2.176356   3.529965   4.162327
    24  H    2.148897   1.096442   2.192021   2.931648   2.914748
    25  H    2.668019   2.789115   2.172352   1.097444   2.143254
    26  H    3.232865   2.789799   2.813538   2.185903   1.093270
    27  H    4.487594   3.619576   2.905208   2.187929   1.094855
    28  H    5.196612   4.935921   4.515434   3.254803   1.943171
    29  H    4.632932   3.449192   2.692792   4.031067   5.000126
    30  H    4.142288   2.762178   2.760511   4.251478   4.824370
    31  H    2.832869   2.154283   1.098979   2.149634   3.495182
    32  C    4.442369   3.951322   2.569352   1.539224   2.525599
    33  H    5.169344   4.399128   2.944866   2.199214   2.755674
    34  H    4.997084   4.744817   3.513069   2.181644   2.820075
    35  H    4.570471   4.161345   2.738184   2.183595   3.483144
    36  H    4.610725   3.363931   2.050034   2.572674   3.143724
                    6          7          8          9         10
     6  O    0.000000
     7  N    4.366784   0.000000
     8  C    5.823624   1.467649   0.000000
     9  C    8.662058   5.029853   4.321840   0.000000
    10  C    8.335157   4.596430   3.816384   1.394109   0.000000
    11  C    7.353743   3.393700   2.528359   2.414390   1.395016
    12  C    6.639127   2.448189   1.503113   2.818781   2.434380
    13  C    7.051081   3.190002   2.522951   2.411763   2.773114
    14  C    8.067175   4.447409   3.813502   1.393704   2.408510
    15  H    9.550345   6.081807   5.408772   1.086937   2.156441
    16  H    9.011729   5.430020   4.675579   2.160536   1.086012
    17  H    8.563143   5.202571   4.671040   2.160211   3.398839
    18  F    7.396705   3.643521   2.854006   3.625624   2.350456
    19  F    6.769669   3.243897   2.836495   3.625731   4.114221
    20  H    5.448180   4.638821   5.052292   9.145243   8.270992
    21  H    5.077022   4.170893   4.635711   8.935998   8.293135
    22  H    3.849139   4.250113   5.124502   9.164495   8.460627
    23  H    5.455313   2.749426   2.757609   6.848195   6.011176
    24  H    4.190377   2.706171   3.412131   7.056166   6.193393
    25  H    2.602771   3.429475   4.605625   8.393083   8.009868
    26  H    2.038302   3.355910   4.667386   7.816338   7.202316
    27  H    2.049760   2.787431   4.216737   6.675912   6.311315
    28  H    0.972616   4.888763   6.341171   8.869879   8.503659
    29  H    6.262697   2.119661   1.097488   4.788940   4.488799
    30  H    6.229002   2.123196   1.094630   4.791424   4.001608
    31  H    4.568035   2.104095   2.606638   6.745239   6.376622
    32  C    2.909699   3.051068   4.257907   7.326448   7.276251
    33  H    3.226212   2.870514   4.058966   6.535433   6.606228
    34  H    2.632981   4.090208   5.344420   8.273350   8.263448
    35  H    3.928951   3.302089   4.215384   7.434091   7.451404
    36  H    4.295173   1.020582   2.014480   4.863301   4.710699
                   11         12         13         14         15
    11  C    0.000000
    12  C    1.395571   0.000000
    13  C    2.389304   1.396374   0.000000
    14  C    2.776585   2.436419   1.394341   0.000000
    15  H    3.401253   3.905717   3.399370   2.156504   0.000000
    16  H    2.147873   3.409215   3.858983   3.398799   2.495254
    17  H    3.862341   3.411558   2.148524   1.085901   2.495660
    18  F    1.340866   2.371275   3.622905   4.117160   4.503937
    19  F    3.620376   2.367908   1.341281   2.352785   4.505974
    20  H    6.894915   6.441685   7.540428   8.820491  10.204148
    21  H    6.913827   6.128552   6.986294   8.354056  10.020207
    22  H    7.129455   6.490968   7.395025   8.687262  10.216096
    23  H    4.618066   4.125840   5.277237   6.535399   7.915787
    24  H    4.892315   4.548488   5.670971   6.830140   8.077756
    25  H    6.791492   5.844426   6.370671   7.653349   9.417075
    26  H    6.088781   5.593020   6.368259   7.441977   8.765316
    27  H    5.390995   4.789146   5.261268   6.200151   7.559821
    28  H    7.601444   7.032762   7.475174   8.390027   9.704655
    29  H    3.313390   2.126057   2.707538   4.059262   5.855100
    30  H    2.618476   2.124318   3.383575   4.543916   5.857782
    31  H    5.100512   4.004923   4.580432   5.965564   7.816961
    32  C    6.269788   5.131437   5.212260   6.380048   8.274638
    33  H    5.745788   4.630653   4.535559   5.576940   7.427086
    34  H    7.297159   6.188171   6.211734   7.314649   9.182861
    35  H    6.422499   5.161242   5.148721   6.377092   8.399710
    36  H    3.703718   2.583954   2.854149   4.071746   5.868868
                   16         17         18         19         20
    16  H    0.000000
    17  H    4.306676   0.000000
    18  F    2.577097   5.203008   0.000000
    19  F    5.200158   2.582858   4.736892   0.000000
    20  H    8.764200   9.674409   6.231303   7.560049   0.000000
    21  H    8.972711   9.072689   6.567958   6.707906   1.771169
    22  H    9.060872   9.435740   6.699880   7.235222   1.762026
    23  H    6.584016   7.423220   4.096832   5.442905   2.377785
    24  H    6.689522   7.717898   4.330860   5.909703   2.510115
    25  H    8.795735   8.207533   6.788541   5.909262   3.728550
    26  H    7.764110   8.157048   5.839021   6.387124   3.906678
    27  H    6.974234   6.792204   5.508934   5.237086   5.307740
    28  H    9.096488   8.904314   7.590524   7.320173   5.943818
    29  H    5.409147   4.763679   3.747762   2.604511   5.273500
    30  H    4.674775   5.489817   2.422555   3.864238   4.513795
    31  H    7.238137   6.581163   5.220894   4.144305   3.768485
    32  C    8.191409   6.723078   6.675589   4.508887   5.523740
    33  H    7.535117   5.860060   6.309259   3.871769   6.212136
    34  H    9.163359   7.584163   7.688341   5.463353   6.074240
    35  H    8.423292   6.661501   6.890030   4.256143   5.652668
    36  H    5.638485   4.663604   4.253613   2.636716   5.484881
                   21         22         23         24         25
    21  H    0.000000
    22  H    1.778850   0.000000
    23  H    2.524535   3.041545   0.000000
    24  H    3.067498   2.472265   1.753120   0.000000
    25  H    2.733524   2.242817   3.758902   3.258651   0.000000
    26  H    4.034792   2.705629   3.815090   2.281827   2.524971
    27  H    5.082956   4.165158   4.494582   3.263681   3.067181
    28  H    5.808560   4.421966   5.985995   4.534221   3.500402
    29  H    4.543541   5.362107   3.075987   4.070437   4.695356
    30  H    4.408480   4.933561   2.140523   3.047750   4.911415
    31  H    2.603091   3.347253   2.451726   3.071717   2.466560
    32  C    4.407366   4.253512   4.728871   4.370636   2.104259
    33  H    5.240977   5.043774   5.094480   4.671895   3.040714
    34  H    4.949111   4.595840   5.617047   5.098772   2.376349
    35  H    4.283265   4.559382   4.769888   4.806302   2.499178
    36  H    4.806672   4.875511   3.707613   3.607448   3.593614
                   26         27         28         29         30
    26  H    0.000000
    27  H    1.778286   0.000000
    28  H    2.261234   2.252647   0.000000
    29  H    5.294254   4.871434   6.899503   0.000000
    30  H    4.771498   4.678010   6.699802   1.758040   0.000000
    31  H    3.809465   3.860982   5.364274   2.366240   2.964785
    32  C    3.487574   2.785730   3.775358   4.256502   4.991115
    33  H    3.781552   2.566775   3.913930   4.169890   4.927749
    34  H    3.810426   3.199581   3.509069   5.344461   6.050615
    35  H    4.337014   3.774445   4.830802   3.932050   4.975844
    36  H    3.752995   2.739190   4.845732   2.401924   2.938913
                   31         32         33         34         35
    31  H    0.000000
    32  C    2.708854   0.000000
    33  H    3.214027   1.094440   0.000000
    34  H    3.660348   1.095501   1.764153   0.000000
    35  H    2.421000   1.095061   1.775395   1.764349   0.000000
    36  H    2.457473   2.580008   2.116703   3.615103   2.832701
                   36
    36  H    0.000000
 Stoichiometry    C13H19F2NO
 Framework group  C1[X(C13H19F2NO)]
 Deg. of freedom   102
 Full point group                 C1      NOp   1
 Largest Abelian subgroup         C1      NOp   1
 Largest concise Abelian subgroup C1      NOp   1
                         Standard orientation:                         
 ---------------------------------------------------------------------
 Center     Atomic      Atomic             Coordinates (Angstroms)
 Number     Number       Type             X           Y           Z
 ---------------------------------------------------------------------
      1          6           0       -3.548389    2.229518   -0.982616
      2          6           0       -2.168263    1.836074   -0.470894
      3          6           0       -1.806193    0.346927   -0.696765
      4          6           0       -2.874903   -0.635436   -0.122979
      5          6           0       -3.024501   -0.541612    1.402362
      6          8           0       -4.113221   -1.356894    1.830211
      7          7           0       -0.473772    0.051131   -0.129553
      8          6           0        0.627702    0.658730   -0.885576
      9          6           0        4.442755   -0.562733    0.736677
     10          6           0        3.925606    0.697159    1.034617
     11          6           0        2.694962    1.086862    0.505734
     12          6           0        1.959054    0.241802   -0.326092
     13          6           0        2.493667   -1.016713   -0.609266
     14          6           0        3.721955   -1.423220   -0.089409
     15          1           0        5.400344   -0.872125    1.147447
     16          1           0        4.470820    1.382105    1.677279
     17          1           0        4.105441   -2.409937   -0.331295
     18          9           0        2.229417    2.308079    0.805434
     19          9           0        1.816253   -1.865575   -1.396398
     20          1           0       -3.668534    3.316862   -0.934011
     21          1           0       -3.685376    1.920555   -2.023544
     22          1           0       -4.344817    1.788189   -0.376753
     23          1           0       -1.446590    2.472454   -0.995672
     24          1           0       -2.091017    2.097736    0.591063
     25          1           0       -3.845966   -0.389768   -0.571384
     26          1           0       -3.240817    0.481961    1.719764
     27          1           0       -2.120348   -0.884983    1.915502
     28          1           0       -4.153899   -1.282803    2.799148
     29          1           0        0.581739    0.362120   -1.941222
     30          1           0        0.564492    1.751319   -0.863943
     31          1           0       -1.771492    0.172854   -1.781316
     32          6           0       -2.606510   -2.090101   -0.548566
     33          1           0       -1.745685   -2.520174   -0.027205
     34          1           0       -3.472224   -2.723778   -0.326949
     35          1           0       -2.423910   -2.153432   -1.626436
     36          1           0       -0.322673   -0.957998   -0.149975
 ---------------------------------------------------------------------
 Rotational constants (GHZ):      0.7092871      0.2316766      0.2065769
 Standard basis: 6-311G(d) (5D, 7F)
 There are   380 symmetry adapted cartesian basis functions of A   symmetry.
 There are   363 symmetry adapted basis functions of A   symmetry.
   363 basis functions,   639 primitive gaussians,   380 cartesian basis functions
    65 alpha electrons       65 beta electrons
       nuclear repulsion energy      1251.7902262634 Hartrees.
 NAtoms=   36 NActive=   36 NUniq=   36 SFac= 1.00D+00 NAtFMM=   60 NAOKFM=F Big=F
 Integral buffers will be    131072 words long.
 Raffenetti 2 integral format.
 Two-electron integral symmetry is turned on.
 ------------------------------------------------------------------------------
 Polarizable Continuum Model (PCM)
 =================================
 Model                : PCM (using non-symmetric T matrix).
 Atomic radii         : UFF (Universal Force Field).
 Polarization charges : Total charges.
 Charge compensation  : None.
 Solution method      : On-the-fly selection.
 Cavity type          : Scaled VdW (van der Waals Surface) (Alpha=1.100).
 Cavity algorithm     : GePol (No added spheres)
                        Default sphere list used, NSphG=   36.
                        Lebedev-Laikov grids with approx.  5.0 points / Ang**2.
                        Smoothing algorithm: Karplus/York (Gamma=1.0000).
                        Polarization charges: spherical gaussians, with
                                              point-specific exponents (IZeta= 3).
                        Self-potential: point-specific (ISelfS= 7).
                        Self-field    : sphere-specific E.n sum rule (ISelfD= 2).
 Solvent              : Chloroform, Eps=   4.711300 Eps(inf)=   2.090627
 ------------------------------------------------------------------------------
 One-electron integrals computed using PRISM.
 NBasis=   363 RedAO= T EigKep=  2.46D-04  NBF=   363
 NBsUse=   363 1.00D-06 EigRej= -1.00D+00 NBFU=   363
 ExpMin= 1.03D-01 ExpMax= 1.14D+04 ExpMxC= 1.72D+03 IAcc=1 IRadAn=         1 AccDes= 0.00D+00
 Harris functional with IExCor=  908 and IRadAn=       1 diagonalized for initial guess.
 HarFok:  IExCor=  908 AccDes= 0.00D+00 IRadAn=         1 IDoV= 1 UseB2=F ITyADJ=14
 ICtDFT=  3500011 ScaDFX=  1.000000  1.000000  1.000000  1.000000
 FoFCou: FMM=F IPFlag=           0 FMFlag=      100000 FMFlg1=           0
         NFxFlg=           0 DoJE=T BraDBF=F KetDBF=T FulRan=T
         wScrn=  0.000000 ICntrl=     500 IOpCl=  0 I1Cent=   200000004 NGrid=           0
         NMat0=    1 NMatS0=      1 NMatT0=    0 NMatD0=    1 NMtDS0=    0 NMtDT0=    0
 Petite list used in FoFCou.
 Requested convergence on RMS density matrix=1.00D-08 within 128 cycles.
 Requested convergence on MAX density matrix=1.00D-06.
 Requested convergence on             energy=1.00D-06.
 No special actions if energy rises.
 Inv3:  Mode=1 IEnd=    19111728.
 Iteration    1 A*A^-1 deviation from unit magnitude is 4.88D-15 for   2513.
 Iteration    1 A*A^-1 deviation from orthogonality  is 2.83D-15 for   2497   1194.
 Iteration    1 A^-1*A deviation from unit magnitude is 4.66D-15 for   2513.
 Iteration    1 A^-1*A deviation from orthogonality  is 4.94D-13 for   1876   1852.
 Error on total polarization charges =  0.00933
 SCF Done:  E(RmPW1PW91) =  -836.456133824     A.U. after   12 cycles
            NFock= 12  Conv=0.71D-08     -V/T= 2.0038
 DoSCS=F DFT=T ScalE2(SS,OS)=  1.000000  1.000000
 Range of M.O.s used for correlation:     1   363
 NBasis=   363 NAE=    65 NBE=    65 NFC=     0 NFV=     0
 NROrb=    363 NOA=    65 NOB=    65 NVA=   298 NVB=   298
 NEqPCM:  Using equilibrium solvation (IEInf=0, Eps=   4.7113, EpsInf=   2.0906)
          Differentiating once with respect to magnetic field using GIAOs.
          Electric field/nuclear overlap derivatives assumed to be zero.
 FoFJK:  IHMeth= 1 ICntrl=    6127 DoSepK=F KAlg= 0 I1Cent=   0 FoldK=F
 IRaf=         1 NMat=   1 IRICut=       1 DoRegI=T DoRafI=F ISym2E= 0.
          There are     3 degrees of freedom in the 1st order CPHF.  IDoFFX=0 NUNeed=     3.
      3 vectors produced by pass  0 Test12= 6.46D-13 3.33D-08 XBig12= 4.26D+01 1.68D+00.
 AX will form     3 AO Fock derivatives at one time.
      3 vectors produced by pass  1 Test12= 6.46D-13 3.33D-08 XBig12= 1.29D-01 1.36D-01.
      3 vectors produced by pass  2 Test12= 6.46D-13 3.33D-08 XBig12= 6.20D-04 6.89D-03.
      3 vectors produced by pass  3 Test12= 6.46D-13 3.33D-08 XBig12= 1.45D-06 2.51D-04.
      3 vectors produced by pass  4 Test12= 6.46D-13 3.33D-08 XBig12= 3.68D-09 1.34D-05.
      3 vectors produced by pass  5 Test12= 6.46D-13 3.33D-08 XBig12= 1.45D-11 6.13D-07.
 InvSVY:  IOpt=1 It=  1 EMax= 2.66D-15
 Solved reduced A of dimension    18 with     3 vectors.
 Calculating GIAO nuclear magnetic shielding tensors.
 SCF GIAO Magnetic shielding tensor (ppm):
      1  C    Isotropic =   176.4979   Anisotropy =    16.2790
   XX=   181.6418   YX=    -5.0069   ZX=     7.0355
   XY=    -4.8752   YY=   174.5334   ZY=    -0.1334
   XZ=     6.9608   YZ=    -1.4022   ZZ=   173.3184
   Eigenvalues:   168.6518   173.4912   187.3506
      2  C    Isotropic =   162.1027   Anisotropy =    20.4671
   XX=   157.8948   YX=    -7.1379   ZX=     6.3771
   XY=   -10.6335   YY=   170.8683   ZY=     6.6426
   XZ=    12.7273   YZ=     7.7553   ZZ=   157.5450
   Eigenvalues:   143.4461   167.1146   175.7474
      3  C    Isotropic =   120.0362   Anisotropy =    21.9498
   XX=   131.4348   YX=     7.2976   ZX=     5.5602
   XY=   -13.3641   YY=   113.4237   ZY=    -2.0197
   XZ=     9.4828   YZ=     4.2099   ZZ=   115.2501
   Eigenvalues:   110.5620   114.8772   134.6694
      4  C    Isotropic =   150.1834   Anisotropy =    24.5027
   XX=   151.3783   YX=     8.0875   ZX=    -4.5849
   XY=     8.6919   YY=   142.8503   ZY=     0.0932
   XZ=   -15.7851   YZ=    -4.7587   ZZ=   156.3217
   Eigenvalues:   136.9290   147.1027   166.5186
      5  C    Isotropic =   122.9801   Anisotropy =    55.0093
   XX=   137.8532   YX=    23.3617   ZX=   -16.5738
   XY=    28.2914   YY=   117.3053   ZY=    -8.9006
   XZ=    -9.7850   YZ=    -2.0798   ZZ=   113.7819
   Eigenvalues:    99.0591   110.2283   159.6530
      6  O    Isotropic =   308.8836   Anisotropy =   111.4937
   XX=   284.4890   YX=     2.6200   ZX=    -4.3749
   XY=    -7.8087   YY=   260.7166   ZY=    12.6369
   XZ=   -20.5593   YZ=    -3.5645   ZZ=   381.4451
   Eigenvalues:   260.3487   283.0893   383.2127
      7  N    Isotropic =   200.5717   Anisotropy =    53.9096
   XX=   217.5853   YX=   -27.0085   ZX=    16.5737
   XY=    -2.3546   YY=   202.9391   ZY=   -22.1674
   XZ=     4.5043   YZ=   -27.7242   ZZ=   181.1908
   Eigenvalues:   164.8393   200.3644   236.5115
      8  C    Isotropic =   146.7811   Anisotropy =    52.8561
   XX=   162.0529   YX=    13.3845   ZX=   -15.1114
   XY=    18.3993   YY=   124.6393   ZY=   -10.2191
   XZ=   -18.3212   YZ=   -13.8783   ZZ=   153.6511
   Eigenvalues:   117.7062   140.6186   182.0186
      9  C    Isotropic =    54.5140   Anisotropy =   185.9911
   XX=    -2.3577   YX=    47.8711   ZX=   -82.8319
   XY=    47.5148   YY=    51.1143   ZY=   -32.9064
   XZ=   -81.8317   YZ=   -33.4606   ZZ=   114.7853
   Eigenvalues:   -52.8998    37.9336   178.5080
     10  C    Isotropic =    70.5589   Anisotropy =   148.7701
   XX=    65.1122   YX=     3.1388   ZX=   -59.9616
   XY=    -4.3383   YY=    41.8024   ZY=   -63.2487
   XZ=   -63.1282   YZ=   -58.8021   ZZ=   104.7620
   Eigenvalues:   -12.9126    54.8503   169.7389
     11  C    Isotropic =    19.7474   Anisotropy =    99.8023
   XX=    35.7933   YX=    43.9203   ZX=    -9.7868
   XY=    35.1845   YY=   -38.3157   ZY=   -37.6721
   XZ=    -9.9638   YZ=   -38.8198   ZZ=    61.7646
   Eigenvalues:   -63.5362    36.4962    86.2823
     12  C    Isotropic =    66.1411   Anisotropy =   140.9205
   XX=    51.5154   YX=    27.1588   ZX=   -53.4174
   XY=    25.2084   YY=    39.2115   ZY=   -42.7323
   XZ=   -52.3865   YZ=   -42.1891   ZZ=   107.6965
   Eigenvalues:    18.4185    19.9167   160.0881
     13  C    Isotropic =    18.8349   Anisotropy =    99.0557
   XX=    23.6589   YX=   -26.7557   ZX=   -49.5079
   XY=   -22.0507   YY=    -0.9041   ZY=   -53.1249
   XZ=   -44.8210   YZ=   -51.5369   ZZ=    33.7499
   Eigenvalues:   -65.2280    36.8606    84.8720
     14  C    Isotropic =    70.9792   Anisotropy =   148.0857
   XX=    74.2824   YX=    36.0269   ZX=   -38.9267
   XY=    43.5850   YY=    14.4569   ZY=   -47.9425
   XZ=   -36.0745   YZ=   -51.3920   ZZ=   124.1982
   Eigenvalues:   -12.5415    55.7760   169.7030
     15  H    Isotropic =    24.5236   Anisotropy =     3.2119
   XX=    24.9816   YX=    -0.6983   ZX=     1.8025
   XY=    -0.7352   YY=    25.7530   ZY=     1.8650
   XZ=     1.8192   YZ=     1.8134   ZZ=    22.8363
   Eigenvalues:    20.9992    25.9068    26.6649
     16  H    Isotropic =    25.2029   Anisotropy =     4.8566
   XX=    27.0759   YX=    -1.2933   ZX=     2.4676
   XY=    -1.5786   YY=    25.4647   ZY=     0.9794
   XZ=     2.2236   YZ=     1.1527   ZZ=    23.0680
   Eigenvalues:    21.3693    25.7987    28.4406
     17  H    Isotropic =    25.1948   Anisotropy =     5.0676
   XX=    27.3112   YX=    -1.4316   ZX=     2.4231
   XY=    -1.0732   YY=    25.0415   ZY=     1.2654
   XZ=     2.4542   YZ=     1.1744   ZZ=    23.2317
   Eigenvalues:    21.3558    25.6554    28.5732
     18  F    Isotropic =   300.7169   Anisotropy =   126.8484
   XX=   265.4426   YX=     9.0446   ZX=   -65.3237
   XY=     5.9297   YY=   307.0229   ZY=   -35.0534
   XZ=   -64.5644   YZ=   -36.5102   ZZ=   329.6851
   Eigenvalues:   223.0474   293.8206   385.2825
     19  F    Isotropic =   306.5642   Anisotropy =   130.1482
   XX=   274.3272   YX=    38.4991   ZX=   -47.1716
   XY=    46.2456   YY=   276.4035   ZY=   -28.2110
   XZ=   -30.4900   YZ=   -13.1649   ZZ=   368.9619
   Eigenvalues:   231.4602   294.9028   393.3297
     20  H    Isotropic =    30.9776   Anisotropy =    11.2500
   XX=    29.8316   YX=    -3.9662   ZX=     0.9423
   XY=    -3.2412   YY=    36.8594   ZY=    -0.6610
   XZ=     1.1516   YZ=    -0.8376   ZZ=    26.2419
   Eigenvalues:    25.9527    28.5026    38.4776
     21  H    Isotropic =    31.3332   Anisotropy =     9.0645
   XX=    30.0328   YX=    -1.3767   ZX=     4.1886
   XY=    -1.6610   YY=    28.7598   ZY=    -0.2804
   XZ=     3.5648   YZ=    -0.1337   ZZ=    35.2070
   Eigenvalues:    27.0271    29.5964    37.3762
     22  H    Isotropic =    30.9646   Anisotropy =     7.2532
   XX=    35.0622   YX=    -0.3442   ZX=    -2.7182
   XY=    -0.8128   YY=    30.0028   ZY=    -2.4488
   XZ=    -2.1253   YZ=    -2.0407   ZZ=    27.8287
   Eigenvalues:    25.8125    31.2813    35.8000
     23  H    Isotropic =    30.1738   Anisotropy =     6.8114
   XX=    33.9699   YX=     0.5590   ZX=    -1.4657
   XY=     0.9052   YY=    32.3716   ZY=    -2.9424
   XZ=    -0.7084   YZ=    -2.5441   ZZ=    24.1800
   Eigenvalues:    23.2815    32.5252    34.7148
     24  H    Isotropic =    30.8357   Anisotropy =     5.8536
   XX=    29.3986   YX=    -0.4360   ZX=     1.3700
   XY=    -0.2899   YY=    30.5036   ZY=     3.1330
   XZ=     0.9103   YZ=     2.6631   ZZ=    32.6049
   Eigenvalues:    27.8542    29.9148    34.7381
     25  H    Isotropic =    29.8767   Anisotropy =     6.3827
   XX=    32.2457   YX=    -1.7135   ZX=     2.0962
   XY=    -1.1129   YY=    31.8280   ZY=    -1.3873
   XZ=     2.0692   YZ=    -1.0827   ZZ=    25.5566
   Eigenvalues:    24.8645    30.6339    34.1319
     26  H    Isotropic =    28.1782   Anisotropy =     6.1474
   XX=    25.9550   YX=     3.0250   ZX=    -3.9289
   XY=     1.7913   YY=    30.5613   ZY=     0.7255
   XZ=    -4.2579   YZ=     0.1284   ZZ=    28.0181
   Eigenvalues:    22.1966    30.0615    32.2764
     27  H    Isotropic =    28.6270   Anisotropy =     7.0823
   XX=    32.2067   YX=     1.5136   ZX=     0.6220
   XY=     3.9057   YY=    24.1973   ZY=    -2.2452
   XZ=    -1.3501   YZ=    -2.4211   ZZ=    29.4772
   Eigenvalues:    22.6916    29.8409    33.3486
     28  H    Isotropic =    31.5614   Anisotropy =    19.6484
   XX=    26.8918   YX=     3.1283   ZX=    -4.8829
   XY=     3.3402   YY=    24.2651   ZY=    -1.2546
   XZ=    -3.7039   YZ=     0.0642   ZZ=    43.5273
   Eigenvalues:    21.9019    28.1220    44.6604
     29  H    Isotropic =    28.7670   Anisotropy =     6.3996
   XX=    28.4371   YX=    -0.7121   ZX=    -3.3575
   XY=    -1.6944   YY=    25.5764   ZY=    -0.5710
   XZ=    -0.0611   YZ=     1.4504   ZZ=    32.2875
   Eigenvalues:    25.1329    28.1347    33.0334
     30  H    Isotropic =    28.3316   Anisotropy =     6.3714
   XX=    30.9856   YX=     1.9746   ZX=     0.8189
   XY=     0.8536   YY=    31.2833   ZY=     0.0243
   XZ=     2.2524   YZ=    -1.5762   ZZ=    22.7259
   Eigenvalues:    22.3324    30.0832    32.5792
     31  H    Isotropic =    29.3960   Anisotropy =     2.9882
   XX=    28.8912   YX=    -1.2196   ZX=     1.8065
   XY=     0.0868   YY=    28.2017   ZY=     0.1995
   XZ=    -0.1608   YZ=     0.6903   ZZ=    31.0951
   Eigenvalues:    27.6903    29.1096    31.3881
     32  C    Isotropic =   170.4639   Anisotropy =    28.8236
   XX=   155.3121   YX=    -8.8143   ZX=     0.0149
   XY=    -6.6131   YY=   183.2875   ZY=     9.6798
   XZ=    -3.5123   YZ=     7.2320   ZZ=   172.7920
   Eigenvalues:   153.3161   168.3959   189.6796
     33  H    Isotropic =    31.3778   Anisotropy =     7.0822
   XX=    33.0503   YX=    -1.9643   ZX=     1.6425
   XY=    -2.6371   YY=    33.7741   ZY=    -1.3994
   XZ=     0.5861   YZ=    -1.3634   ZZ=    27.3091
   Eigenvalues:    26.9505    31.0838    36.0993
     34  H    Isotropic =    30.3238   Anisotropy =     9.6037
   XX=    30.4888   YX=     4.1637   ZX=    -1.1277
   XY=     4.7745   YY=    33.5237   ZY=     1.1676
   XZ=    -2.1541   YZ=     1.3040   ZZ=    26.9587
   Eigenvalues:    25.0624    29.1827    36.7262
     35  H    Isotropic =    31.3813   Anisotropy =     8.7705
   XX=    28.0717   YX=     0.4508   ZX=    -0.2568
   XY=     0.1758   YY=    31.1145   ZY=     4.2433
   XZ=    -0.7321   YZ=     3.1918   ZZ=    34.9578
   Eigenvalues:    27.8021    29.1135    37.2283
     36  H    Isotropic =    31.2811   Anisotropy =     9.3399
   XX=    37.1810   YX=    -1.4119   ZX=    -0.8309
   XY=     0.4246   YY=    36.7031   ZY=    -1.0188
   XZ=    -2.7278   YZ=    -3.0039   ZZ=    19.9591
   Eigenvalues:    19.5321    36.8034    37.5076
 End of Minotr F.D. properties file   721 does not exist.
 End of Minotr F.D. properties file   722 does not exist.
 End of Minotr F.D. properties file   788 does not exist.

 **********************************************************************

            Population analysis using the SCF density.

 **********************************************************************

 Orbital symmetries:
       Occupied  (A) (A) (A) (A) (A) (A) (A) (A) (A) (A) (A) (A)
                 (A) (A) (A) (A) (A) (A) (A) (A) (A) (A) (A) (A)
                 (A) (A) (A) (A) (A) (A) (A) (A) (A) (A) (A) (A)
                 (A) (A) (A) (A) (A) (A) (A) (A) (A) (A) (A) (A)
                 (A) (A) (A) (A) (A) (A) (A) (A) (A) (A) (A) (A)
                 (A) (A) (A) (A) (A)
       Virtual   (A) (A) (A) (A) (A) (A) (A) (A) (A) (A) (A) (A)
                 (A) (A) (A) (A) (A) (A) (A) (A) (A) (A) (A) (A)
                 (A) (A) (A) (A) (A) (A) (A) (A) (A) (A) (A) (A)
                 (A) (A) (A) (A) (A) (A) (A) (A) (A) (A) (A) (A)
                 (A) (A) (A) (A) (A) (A) (A) (A) (A) (A) (A) (A)
                 (A) (A) (A) (A) (A) (A) (A) (A) (A) (A) (A) (A)
                 (A) (A) (A) (A) (A) (A) (A) (A) (A) (A) (A) (A)
                 (A) (A) (A) (A) (A) (A) (A) (A) (A) (A) (A) (A)
                 (A) (A) (A) (A) (A) (A) (A) (A) (A) (A) (A) (A)
                 (A) (A) (A) (A) (A) (A) (A) (A) (A) (A) (A) (A)
                 (A) (A) (A) (A) (A) (A) (A) (A) (A) (A) (A) (A)
                 (A) (A) (A) (A) (A) (A) (A) (A) (A) (A) (A) (A)
                 (A) (A) (A) (A) (A) (A) (A) (A) (A) (A) (A) (A)
                 (A) (A) (A) (A) (A) (A) (A) (A) (A) (A) (A) (A)
                 (A) (A) (A) (A) (A) (A) (A) (A) (A) (A) (A) (A)
                 (A) (A) (A) (A) (A) (A) (A) (A) (A) (A) (A) (A)
                 (A) (A) (A) (A) (A) (A) (A) (A) (A) (A) (A) (A)
                 (A) (A) (A) (A) (A) (A) (A) (A) (A) (A) (A) (A)
                 (A) (A) (A) (A) (A) (A) (A) (A) (A) (A) (A) (A)
                 (A) (A) (A) (A) (A) (A) (A) (A) (A) (A) (A) (A)
                 (A) (A) (A) (A) (A) (A) (A) (A) (A) (A) (A) (A)
                 (A) (A) (A) (A) (A) (A) (A) (A) (A) (A) (A) (A)
                 (A) (A) (A) (A) (A) (A) (A) (A) (A) (A) (A) (A)
                 (A) (A) (A) (A) (A) (A) (A) (A) (A) (A) (A) (A)
                 (A) (A) (A) (A) (A) (A) (A) (A) (A) (A)
 The electronic state is 1-A.
 Alpha  occ. eigenvalues --  -24.80613 -24.80229 -19.20195 -14.37875 -10.33802
 Alpha  occ. eigenvalues --  -10.33757 -10.26814 -10.26634 -10.26431 -10.26372
 Alpha  occ. eigenvalues --  -10.25995 -10.25218 -10.25173 -10.23852 -10.22537
 Alpha  occ. eigenvalues --  -10.21732 -10.21680  -1.27863  -1.27495  -1.04363
 Alpha  occ. eigenvalues --   -0.94182  -0.90429  -0.83144  -0.79905  -0.78625
 Alpha  occ. eigenvalues --   -0.78326  -0.71491  -0.69540  -0.67434  -0.66010
 Alpha  occ. eigenvalues --   -0.63939  -0.61849  -0.59048  -0.56492  -0.55863
 Alpha  occ. eigenvalues --   -0.53310  -0.51968  -0.51627  -0.51076  -0.49657
 Alpha  occ. eigenvalues --   -0.49278  -0.49043  -0.47390  -0.46931  -0.46173
 Alpha  occ. eigenvalues --   -0.44260  -0.43891  -0.42505  -0.41951  -0.41490
 Alpha  occ. eigenvalues --   -0.40457  -0.39136  -0.38841  -0.37948  -0.37830
 Alpha  occ. eigenvalues --   -0.37308  -0.36665  -0.35494  -0.33725  -0.32761
 Alpha  occ. eigenvalues --   -0.32422  -0.27957  -0.27547  -0.26772  -0.24218
 Alpha virt. eigenvalues --   -0.02049  -0.00921   0.05185   0.05481   0.06299
 Alpha virt. eigenvalues --    0.06748   0.08088   0.08878   0.10330   0.11075
 Alpha virt. eigenvalues --    0.11376   0.11621   0.12627   0.12898   0.13378
 Alpha virt. eigenvalues --    0.14255   0.14427   0.14812   0.15289   0.16476
 Alpha virt. eigenvalues --    0.17193   0.18068   0.19034   0.19756   0.20285
 Alpha virt. eigenvalues --    0.21359   0.21954   0.23040   0.24474   0.25381
 Alpha virt. eigenvalues --    0.25834   0.26525   0.26699   0.28402   0.29885
 Alpha virt. eigenvalues --    0.32491   0.32792   0.33451   0.34632   0.35097
 Alpha virt. eigenvalues --    0.36121   0.36705   0.38023   0.38432   0.39306
 Alpha virt. eigenvalues --    0.39643   0.40985   0.41439   0.41847   0.42843
 Alpha virt. eigenvalues --    0.43434   0.44052   0.44799   0.45612   0.45666
 Alpha virt. eigenvalues --    0.46912   0.48224   0.49410   0.50667   0.51722
 Alpha virt. eigenvalues --    0.52407   0.53469   0.53885   0.55380   0.55593
 Alpha virt. eigenvalues --    0.56182   0.57030   0.58459   0.58791   0.59329
 Alpha virt. eigenvalues --    0.59963   0.60253   0.60718   0.61731   0.62449
 Alpha virt. eigenvalues --    0.62716   0.63089   0.63833   0.64450   0.65473
 Alpha virt. eigenvalues --    0.65681   0.66202   0.66621   0.66871   0.67093
 Alpha virt. eigenvalues --    0.68421   0.68802   0.69356   0.69833   0.71501
 Alpha virt. eigenvalues --    0.72378   0.73303   0.74051   0.74448   0.77777
 Alpha virt. eigenvalues --    0.78306   0.79185   0.82223   0.83371   0.85785
 Alpha virt. eigenvalues --    0.87717   0.87739   0.89413   0.90604   0.93762
 Alpha virt. eigenvalues --    0.95331   0.96536   0.98201   0.99110   0.99550
 Alpha virt. eigenvalues --    1.02460   1.03220   1.03507   1.05939   1.06773
 Alpha virt. eigenvalues --    1.07749   1.09085   1.11286   1.12396   1.13853
 Alpha virt. eigenvalues --    1.16026   1.19900   1.20993   1.22419   1.24513
 Alpha virt. eigenvalues --    1.25838   1.26709   1.28085   1.29421   1.30323
 Alpha virt. eigenvalues --    1.33878   1.36329   1.37980   1.40615   1.41364
 Alpha virt. eigenvalues --    1.44454   1.46123   1.46839   1.48954   1.50053
 Alpha virt. eigenvalues --    1.51686   1.52821   1.54313   1.54686   1.55082
 Alpha virt. eigenvalues --    1.55238   1.56099   1.57239   1.59801   1.60377
 Alpha virt. eigenvalues --    1.61912   1.62389   1.64720   1.65937   1.66716
 Alpha virt. eigenvalues --    1.67806   1.68492   1.69732   1.73326   1.73640
 Alpha virt. eigenvalues --    1.75770   1.75909   1.76955   1.80013   1.81456
 Alpha virt. eigenvalues --    1.83121   1.84505   1.86610   1.88877   1.89346
 Alpha virt. eigenvalues --    1.89905   1.90437   1.92025   1.93445   1.93706
 Alpha virt. eigenvalues --    1.96294   1.98306   1.99660   2.00982   2.03328
 Alpha virt. eigenvalues --    2.07467   2.11363   2.13724   2.17824   2.18454
 Alpha virt. eigenvalues --    2.20264   2.20949   2.23765   2.25773   2.27556
 Alpha virt. eigenvalues --    2.29946   2.32631   2.36408   2.39056   2.40949
 Alpha virt. eigenvalues --    2.41956   2.43078   2.44359   2.45598   2.47115
 Alpha virt. eigenvalues --    2.48183   2.50296   2.50421   2.53013   2.53973
 Alpha virt. eigenvalues --    2.55849   2.56769   2.58505   2.60651   2.64991
 Alpha virt. eigenvalues --    2.66283   2.68081   2.70744   2.72475   2.75094
 Alpha virt. eigenvalues --    2.77158   2.83013   2.83432   2.85197   2.89449
 Alpha virt. eigenvalues --    2.91560   2.92999   2.96691   3.01942   3.05344
 Alpha virt. eigenvalues --    3.06722   3.07035   3.08264   3.10024   3.11363
 Alpha virt. eigenvalues --    3.12667   3.15797   3.16191   3.19856   3.21495
 Alpha virt. eigenvalues --    3.25393   3.26315   3.27270   3.27782   3.28838
 Alpha virt. eigenvalues --    3.29728   3.30747   3.32066   3.35544   3.42273
 Alpha virt. eigenvalues --    3.47218   3.48946   3.52000   3.57271   3.64599
 Alpha virt. eigenvalues --    3.75749   3.79191   3.79849   3.79936   3.80723
 Alpha virt. eigenvalues --    3.84861   3.86949   3.94420   3.96376   3.99727
 Alpha virt. eigenvalues --    4.00413   4.05884   4.07018   4.10698   4.12761
 Alpha virt. eigenvalues --    4.16319   4.20769   4.49717   4.75279   4.76728
 Alpha virt. eigenvalues --    4.79669   4.80826   4.91264   5.10383   5.39897
 Alpha virt. eigenvalues --    6.12704   6.14733   6.31061   6.32134   6.56480
 Alpha virt. eigenvalues --    6.59352  23.30235  23.47850  23.58434  23.69180
 Alpha virt. eigenvalues --   23.73958  23.78304  23.79972  23.84212  23.86885
 Alpha virt. eigenvalues --   23.89895  24.08761  24.11146  24.19398  35.59043
 Alpha virt. eigenvalues --   49.97320  66.89076  66.89693
          Condensed to atoms (all electrons):
               1          2          3          4          5          6
     1  C    5.363899   0.288408  -0.061234  -0.009809  -0.000353   0.000087
     2  C    0.288408   5.367339   0.310667  -0.050852  -0.009429  -0.000209
     3  C   -0.061234   0.310667   5.258192   0.308037  -0.061670   0.003173
     4  C   -0.009809  -0.050852   0.308037   5.473629   0.261495  -0.050790
     5  C   -0.000353  -0.009429  -0.061670   0.261495   5.141201   0.215531
     6  O    0.000087  -0.000209   0.003173  -0.050790   0.215531   8.239530
     7  N    0.005050  -0.064890   0.258632  -0.049384  -0.002743   0.000024
     8  C    0.000206  -0.008664  -0.075238   0.006996  -0.000103  -0.000001
     9  C    0.000000   0.000000  -0.000002   0.000000   0.000000   0.000000
    10  C    0.000000  -0.000001   0.000014   0.000000   0.000000   0.000000
    11  C    0.000001   0.000037  -0.000662   0.000009   0.000003   0.000000
    12  C    0.000005   0.000177   0.008521  -0.000114  -0.000022   0.000000
    13  C   -0.000001   0.000027   0.000621  -0.000095  -0.000005   0.000000
    14  C    0.000000   0.000001   0.000032  -0.000001   0.000000   0.000000
    15  H    0.000000   0.000000   0.000000   0.000000   0.000000   0.000000
    16  H    0.000000   0.000000  -0.000001   0.000000   0.000000   0.000000
    17  H    0.000000   0.000000   0.000000   0.000000   0.000000   0.000000
    18  F    0.000000  -0.000089   0.000062   0.000000   0.000000   0.000000
    19  F    0.000000   0.000001  -0.000205  -0.000001   0.000000   0.000000
    20  H    0.392187  -0.035396   0.007423   0.000345  -0.000194   0.000002
    21  H    0.385589  -0.044395  -0.002733  -0.001868   0.000447  -0.000013
    22  H    0.389153  -0.038888  -0.007919   0.002610   0.000444  -0.000055
    23  H   -0.045622   0.403860  -0.043774   0.007037  -0.000122  -0.000001
    24  H   -0.040784   0.383948  -0.038351  -0.010897   0.005987  -0.000273
    25  H    0.003781  -0.011113  -0.033344   0.397481  -0.045221   0.006567
    26  H   -0.001060   0.003825  -0.000944  -0.048561   0.400700  -0.033610
    27  H    0.000391  -0.002237  -0.003461  -0.037858   0.379978  -0.037365
    28  H   -0.000004   0.000030  -0.000704   0.010897  -0.049643   0.259911
    29  H    0.000224  -0.001887  -0.005187   0.000366   0.000123   0.000000
    30  H   -0.000246   0.003085  -0.004920   0.000116  -0.000116   0.000000
    31  H    0.002882  -0.064066   0.407600  -0.047199   0.010205  -0.000105
    32  C   -0.000434   0.009362  -0.072046   0.303348  -0.086970   0.002399
    33  H   -0.000017  -0.000292  -0.006779  -0.035877  -0.006439   0.000162
    34  H   -0.000044  -0.000097   0.007836  -0.037160  -0.006445   0.012922
    35  H    0.000018   0.000185  -0.004187  -0.041133   0.008054  -0.000087
    36  H   -0.000344   0.007785  -0.053834  -0.010068  -0.000648  -0.000269
               7          8          9         10         11         12
     1  C    0.005050   0.000206   0.000000   0.000000   0.000001   0.000005
     2  C   -0.064890  -0.008664   0.000000  -0.000001   0.000037   0.000177
     3  C    0.258632  -0.075238  -0.000002   0.000014  -0.000662   0.008521
     4  C   -0.049384   0.006996   0.000000   0.000000   0.000009  -0.000114
     5  C   -0.002743  -0.000103   0.000000   0.000000   0.000003  -0.000022
     6  O    0.000024  -0.000001   0.000000   0.000000   0.000000   0.000000
     7  N    6.977090   0.272656   0.000072  -0.000061   0.014662  -0.066271
     8  C    0.272656   5.312189  -0.001457   0.010191  -0.076942   0.297417
     9  C    0.000072  -0.001457   5.060717   0.433992  -0.003373  -0.059180
    10  C   -0.000061   0.010191   0.433992   5.193271   0.473706  -0.029363
    11  C    0.014662  -0.076942  -0.003373   0.473706   4.754160   0.266082
    12  C   -0.066271   0.297417  -0.059180  -0.029363   0.266082   5.764882
    13  C   -0.005454  -0.082919  -0.007070  -0.064256   0.034945   0.239614
    14  C   -0.000324   0.010075   0.435412  -0.035432  -0.068870  -0.035778
    15  H   -0.000001   0.000028   0.404883  -0.040801   0.006211  -0.002042
    16  H    0.000009  -0.000288  -0.041126   0.391926  -0.048830   0.012101
    17  H    0.000013  -0.000323  -0.040683   0.007087  -0.001336   0.012069
    18  F   -0.000491  -0.004280   0.005620  -0.054766   0.316806  -0.075448
    19  F   -0.002106   0.002611   0.005599  -0.000602   0.004957  -0.082040
    20  H   -0.000171  -0.000015   0.000000   0.000000   0.000000  -0.000001
    21  H   -0.000029  -0.000040   0.000000   0.000000   0.000000  -0.000004
    22  H   -0.000090  -0.000020   0.000000   0.000000   0.000000   0.000001
    23  H   -0.003459   0.002800   0.000000  -0.000007   0.000053   0.000575
    24  H    0.006906  -0.000574   0.000000   0.000002   0.000153  -0.000440
    25  H    0.004719  -0.000256   0.000000   0.000000   0.000000   0.000022
    26  H   -0.001550   0.000010   0.000000   0.000000  -0.000002  -0.000001
    27  H    0.015515  -0.000357   0.000000  -0.000002   0.000088   0.000211
    28  H    0.000001  -0.000002   0.000000   0.000000   0.000000   0.000000
    29  H   -0.053056   0.379962  -0.000109  -0.000046   0.012189  -0.036842
    30  H   -0.036772   0.381268  -0.000326   0.001370  -0.022796  -0.030252
    31  H   -0.049887  -0.011734   0.000000   0.000002   0.000191   0.000467
    32  C   -0.001450   0.000577   0.000000   0.000000  -0.000010  -0.000112
    33  H    0.000701   0.000089   0.000000   0.000000  -0.000014   0.000177
    34  H    0.000052   0.000031   0.000000   0.000000   0.000000  -0.000002
    35  H   -0.000489  -0.000170   0.000000   0.000000  -0.000001  -0.000041
    36  H    0.334942  -0.047497  -0.000084   0.000030  -0.000615  -0.021079
              13         14         15         16         17         18
     1  C   -0.000001   0.000000   0.000000   0.000000   0.000000   0.000000
     2  C    0.000027   0.000001   0.000000   0.000000   0.000000  -0.000089
     3  C    0.000621   0.000032   0.000000  -0.000001   0.000000   0.000062
     4  C   -0.000095  -0.000001   0.000000   0.000000   0.000000   0.000000
     5  C   -0.000005   0.000000   0.000000   0.000000   0.000000   0.000000
     6  O    0.000000   0.000000   0.000000   0.000000   0.000000   0.000000
     7  N   -0.005454  -0.000324  -0.000001   0.000009   0.000013  -0.000491
     8  C   -0.082919   0.010075   0.000028  -0.000288  -0.000323  -0.004280
     9  C   -0.007070   0.435412   0.404883  -0.041126  -0.040683   0.005620
    10  C   -0.064256  -0.035432  -0.040801   0.391926   0.007087  -0.054766
    11  C    0.034945  -0.068870   0.006211  -0.048830  -0.001336   0.316806
    12  C    0.239614  -0.035778  -0.002042   0.012101   0.012069  -0.075448
    13  C    4.807269   0.478213   0.006439  -0.001356  -0.049791   0.005291
    14  C    0.478213   5.199540  -0.041356   0.007166   0.392383  -0.000561
    15  H    0.006439  -0.041356   0.446717  -0.006620  -0.006665  -0.000073
    16  H   -0.001356   0.007166  -0.006620   0.451319  -0.000178   0.001513
    17  H   -0.049791   0.392383  -0.006665  -0.000178   0.451027   0.000004
    18  F    0.005291  -0.000561  -0.000073   0.001513   0.000004   9.025173
    19  F    0.314225  -0.056439  -0.000071   0.000004   0.001513  -0.000001
    20  H    0.000000   0.000000   0.000000   0.000000   0.000000   0.000000
    21  H    0.000000   0.000000   0.000000   0.000000   0.000000   0.000000
    22  H    0.000000   0.000000   0.000000   0.000000   0.000000   0.000000
    23  H   -0.000046   0.000001   0.000000   0.000000   0.000000  -0.000281
    24  H   -0.000026   0.000000   0.000000   0.000000   0.000000   0.000100
    25  H   -0.000002   0.000000   0.000000   0.000000   0.000000   0.000000
    26  H    0.000001   0.000000   0.000000   0.000000   0.000000  -0.000001
    27  H   -0.000091  -0.000006   0.000000   0.000000   0.000000  -0.000001
    28  H    0.000000   0.000000   0.000000   0.000000   0.000000   0.000000
    29  H   -0.027925  -0.000352   0.000003   0.000014  -0.000026   0.000030
    30  H    0.010754   0.000115   0.000005  -0.000061   0.000009   0.015786
    31  H   -0.000593  -0.000019   0.000000   0.000000   0.000000   0.000001
    32  C    0.000110   0.000002   0.000000   0.000000   0.000000   0.000000
    33  H    0.000061   0.000001   0.000000   0.000000   0.000001   0.000000
    34  H    0.000003   0.000000   0.000000   0.000000   0.000000   0.000000
    35  H    0.000018   0.000002   0.000000   0.000000   0.000000   0.000000
    36  H    0.006021   0.000152   0.000002   0.000000   0.000002  -0.000003
              19         20         21         22         23         24
     1  C    0.000000   0.392187   0.385589   0.389153  -0.045622  -0.040784
     2  C    0.000001  -0.035396  -0.044395  -0.038888   0.403860   0.383948
     3  C   -0.000205   0.007423  -0.002733  -0.007919  -0.043774  -0.038351
     4  C   -0.000001   0.000345  -0.001868   0.002610   0.007037  -0.010897
     5  C    0.000000  -0.000194   0.000447   0.000444  -0.000122   0.005987
     6  O    0.000000   0.000002  -0.000013  -0.000055  -0.000001  -0.000273
     7  N   -0.002106  -0.000171  -0.000029  -0.000090  -0.003459   0.006906
     8  C    0.002611  -0.000015  -0.000040  -0.000020   0.002800  -0.000574
     9  C    0.005599   0.000000   0.000000   0.000000   0.000000   0.000000
    10  C   -0.000602   0.000000   0.000000   0.000000  -0.000007   0.000002
    11  C    0.004957   0.000000   0.000000   0.000000   0.000053   0.000153
    12  C   -0.082040  -0.000001  -0.000004   0.000001   0.000575  -0.000440
    13  C    0.314225   0.000000   0.000000   0.000000  -0.000046  -0.000026
    14  C   -0.056439   0.000000   0.000000   0.000000   0.000001   0.000000
    15  H   -0.000071   0.000000   0.000000   0.000000   0.000000   0.000000
    16  H    0.000004   0.000000   0.000000   0.000000   0.000000   0.000000
    17  H    0.001513   0.000000   0.000000   0.000000   0.000000   0.000000
    18  F   -0.000001   0.000000   0.000000   0.000000  -0.000281   0.000100
    19  F    9.033846   0.000000   0.000000   0.000000  -0.000001   0.000000
    20  H    0.000000   0.475336  -0.027050  -0.029083  -0.007198  -0.003859
    21  H    0.000000  -0.027050   0.484798  -0.027976  -0.003709   0.007637
    22  H    0.000000  -0.029083  -0.027976   0.478193   0.007426  -0.006886
    23  H   -0.000001  -0.007198  -0.003709   0.007426   0.489998  -0.031649
    24  H    0.000000  -0.003859   0.007637  -0.006886  -0.031649   0.491783
    25  H    0.000000   0.000405  -0.000141  -0.001261  -0.000197  -0.000456
    26  H    0.000000  -0.000025  -0.000053   0.001870   0.000384   0.002515
    27  H   -0.000012   0.000004  -0.000008  -0.000046  -0.000115   0.000342
    28  H    0.000000   0.000000   0.000002  -0.000015  -0.000002   0.000018
    29  H    0.006634  -0.000014   0.000040   0.000010   0.000209   0.000657
    30  H    0.000149   0.000045   0.000003  -0.000027   0.000905  -0.001003
    31  H   -0.000101  -0.000402   0.005242  -0.000195  -0.007193   0.009056
    32  C   -0.000061   0.000011  -0.000245   0.000330  -0.000143  -0.000315
    33  H    0.000031   0.000002  -0.000001  -0.000017  -0.000001   0.000003
    34  H   -0.000002  -0.000002   0.000007   0.000022   0.000021   0.000004
    35  H    0.000099  -0.000003   0.000022   0.000008  -0.000032   0.000003
    36  H    0.009029   0.000028  -0.000021  -0.000026  -0.000421  -0.000295
              25         26         27         28         29         30
     1  C    0.003781  -0.001060   0.000391  -0.000004   0.000224  -0.000246
     2  C   -0.011113   0.003825  -0.002237   0.000030  -0.001887   0.003085
     3  C   -0.033344  -0.000944  -0.003461  -0.000704  -0.005187  -0.004920
     4  C    0.397481  -0.048561  -0.037858   0.010897   0.000366   0.000116
     5  C   -0.045221   0.400700   0.379978  -0.049643   0.000123  -0.000116
     6  O    0.006567  -0.033610  -0.037365   0.259911   0.000000   0.000000
     7  N    0.004719  -0.001550   0.015515   0.000001  -0.053056  -0.036772
     8  C   -0.000256   0.000010  -0.000357  -0.000002   0.379962   0.381268
     9  C    0.000000   0.000000   0.000000   0.000000  -0.000109  -0.000326
    10  C    0.000000   0.000000  -0.000002   0.000000  -0.000046   0.001370
    11  C    0.000000  -0.000002   0.000088   0.000000   0.012189  -0.022796
    12  C    0.000022  -0.000001   0.000211   0.000000  -0.036842  -0.030252
    13  C   -0.000002   0.000001  -0.000091   0.000000  -0.027925   0.010754
    14  C    0.000000   0.000000  -0.000006   0.000000  -0.000352   0.000115
    15  H    0.000000   0.000000   0.000000   0.000000   0.000003   0.000005
    16  H    0.000000   0.000000   0.000000   0.000000   0.000014  -0.000061
    17  H    0.000000   0.000000   0.000000   0.000000  -0.000026   0.000009
    18  F    0.000000  -0.000001  -0.000001   0.000000   0.000030   0.015786
    19  F    0.000000   0.000000  -0.000012   0.000000   0.006634   0.000149
    20  H    0.000405  -0.000025   0.000004   0.000000  -0.000014   0.000045
    21  H   -0.000141  -0.000053  -0.000008   0.000002   0.000040   0.000003
    22  H   -0.001261   0.001870  -0.000046  -0.000015   0.000010  -0.000027
    23  H   -0.000197   0.000384  -0.000115  -0.000002   0.000209   0.000905
    24  H   -0.000456   0.002515   0.000342   0.000018   0.000657  -0.001003
    25  H    0.492400  -0.007784   0.009180  -0.000394   0.000031  -0.000003
    26  H   -0.007784   0.499960  -0.037533  -0.002650  -0.000013  -0.000003
    27  H    0.009180  -0.037533   0.519618  -0.004485   0.000206  -0.000129
    28  H   -0.000394  -0.002650  -0.004485   0.379672   0.000000   0.000000
    29  H    0.000031  -0.000013   0.000206   0.000000   0.539097  -0.045534
    30  H   -0.000003  -0.000003  -0.000129   0.000000  -0.045534   0.469554
    31  H   -0.004195  -0.000299   0.000633   0.000033   0.015053  -0.002678
    32  C   -0.053676   0.008106  -0.013095  -0.000194  -0.000715   0.000060
    33  H    0.007646  -0.000064   0.003601  -0.000073  -0.000044  -0.000002
    34  H   -0.005840   0.000632  -0.000151  -0.000617  -0.000026   0.000004
    35  H   -0.004016  -0.000257  -0.000202   0.000043   0.000090   0.000003
    36  H    0.000670  -0.000176   0.000597   0.000015  -0.004630   0.006702
              31         32         33         34         35         36
     1  C    0.002882  -0.000434  -0.000017  -0.000044   0.000018  -0.000344
     2  C   -0.064066   0.009362  -0.000292  -0.000097   0.000185   0.007785
     3  C    0.407600  -0.072046  -0.006779   0.007836  -0.004187  -0.053834
     4  C   -0.047199   0.303348  -0.035877  -0.037160  -0.041133  -0.010068
     5  C    0.010205  -0.086970  -0.006439  -0.006445   0.008054  -0.000648
     6  O   -0.000105   0.002399   0.000162   0.012922  -0.000087  -0.000269
     7  N   -0.049887  -0.001450   0.000701   0.000052  -0.000489   0.334942
     8  C   -0.011734   0.000577   0.000089   0.000031  -0.000170  -0.047497
     9  C    0.000000   0.000000   0.000000   0.000000   0.000000  -0.000084
    10  C    0.000002   0.000000   0.000000   0.000000   0.000000   0.000030
    11  C    0.000191  -0.000010  -0.000014   0.000000  -0.000001  -0.000615
    12  C    0.000467  -0.000112   0.000177  -0.000002  -0.000041  -0.021079
    13  C   -0.000593   0.000110   0.000061   0.000003   0.000018   0.006021
    14  C   -0.000019   0.000002   0.000001   0.000000   0.000002   0.000152
    15  H    0.000000   0.000000   0.000000   0.000000   0.000000   0.000002
    16  H    0.000000   0.000000   0.000000   0.000000   0.000000   0.000000
    17  H    0.000000   0.000000   0.000001   0.000000   0.000000   0.000002
    18  F    0.000001   0.000000   0.000000   0.000000   0.000000  -0.000003
    19  F   -0.000101  -0.000061   0.000031  -0.000002   0.000099   0.009029
    20  H   -0.000402   0.000011   0.000002  -0.000002  -0.000003   0.000028
    21  H    0.005242  -0.000245  -0.000001   0.000007   0.000022  -0.000021
    22  H   -0.000195   0.000330  -0.000017   0.000022   0.000008  -0.000026
    23  H   -0.007193  -0.000143  -0.000001   0.000021  -0.000032  -0.000421
    24  H    0.009056  -0.000315   0.000003   0.000004   0.000003  -0.000295
    25  H   -0.004195  -0.053676   0.007646  -0.005840  -0.004016   0.000670
    26  H   -0.000299   0.008106  -0.000064   0.000632  -0.000257  -0.000176
    27  H    0.000633  -0.013095   0.003601  -0.000151  -0.000202   0.000597
    28  H    0.000033  -0.000194  -0.000073  -0.000617   0.000043   0.000015
    29  H    0.015053  -0.000715  -0.000044  -0.000026   0.000090  -0.004630
    30  H   -0.002678   0.000060  -0.000002   0.000004   0.000003   0.006702
    31  H    0.535507  -0.014062  -0.000660  -0.000428   0.005174  -0.000205
    32  C   -0.014062   5.424048   0.381055   0.388631   0.387696   0.005009
    33  H   -0.000660   0.381055   0.488866  -0.025541  -0.028177   0.003360
    34  H   -0.000428   0.388631  -0.025541   0.450906  -0.026667  -0.000075
    35  H    0.005174   0.387696  -0.028177  -0.026667   0.476370  -0.000439
    36  H   -0.000205   0.005009   0.003360  -0.000075  -0.000439   0.431789
 Mulliken charges:
               1
     1  C   -0.671930
     2  C   -0.446232
     3  C   -0.093615
     4  C   -0.340696
     5  C   -0.154046
     6  O   -0.617529
     7  N   -0.552368
     8  C   -0.366227
     9  C   -0.192886
    10  C   -0.286256
    11  C    0.339196
    12  C   -0.163288
    13  C    0.336019
    14  C   -0.283956
    15  H    0.233340
    16  H    0.234409
    17  H    0.234893
    18  F   -0.234389
    19  F   -0.237060
    20  H    0.227626
    21  H    0.224499
    22  H    0.232436
    23  H    0.230701
    24  H    0.226694
    25  H    0.244996
    26  H    0.216583
    27  H    0.206786
    28  H    0.408160
    29  H    0.221465
    30  H    0.254936
    31  H    0.211974
    32  C   -0.667220
    33  H    0.218242
    34  H    0.242028
    35  H    0.228115
    36  H    0.334598
 Sum of Mulliken charges =   0.00000
 Mulliken charges with hydrogens summed into heavy atoms:
               1
     1  C    0.012631
     2  C    0.011163
     3  C    0.118358
     4  C   -0.095700
     5  C    0.269323
     6  O   -0.209369
     7  N   -0.217770
     8  C    0.110175
     9  C    0.040455
    10  C   -0.051847
    11  C    0.339196
    12  C   -0.163288
    13  C    0.336019
    14  C   -0.049063
    18  F   -0.234389
    19  F   -0.237060
    32  C    0.021165
 Electronic spatial extent (au):  <R**2>=           5468.9145
 Charge=              0.0000 electrons
 Dipole moment (field-independent basis, Debye):
    X=              2.0855    Y=              0.1584    Z=              0.7430  Tot=              2.2195
 Quadrupole moment (field-independent basis, Debye-Ang):
   XX=            -95.7540   YY=           -103.9309   ZZ=            -95.6684
   XY=             -8.0666   XZ=              1.0378   YZ=             -1.8796
 Traceless Quadrupole moment (field-independent basis, Debye-Ang):
   XX=              2.6971   YY=             -5.4798   ZZ=              2.7827
   XY=             -8.0666   XZ=              1.0378   YZ=             -1.8796
 Octapole moment (field-independent basis, Debye-Ang**2):
  XXX=            117.6061  YYY=             -1.7460  ZZZ=             32.0316  XYY=             13.7111
  XXY=              2.6514  XXZ=             40.3975  XZZ=            -27.1868  YZZ=             -3.2018
  YYZ=             -0.0034  XYZ=             -0.0915
 Hexadecapole moment (field-independent basis, Debye-Ang**3):
 XXXX=          -5027.1595 YYYY=          -1296.3188 ZZZZ=           -562.7213 XXXY=           -134.8103
 XXXZ=             69.9134 YYYX=            -22.4795 YYYZ=             16.7761 ZZZX=           -147.0668
 ZZZY=             -6.2721 XXYY=          -1075.8551 XXZZ=           -847.3278 YYZZ=           -324.8488
 XXYZ=             31.4528 YYXZ=             -7.7256 ZZXY=             53.4596
 N-N= 1.251790226263D+03 E-N=-4.461835817737D+03  KE= 8.333188883597D+02
 1\1\GINC-CPU-E-330\SP\RmPW1PW91\6-311G(d)\C13H19F2N1O1\AH809\04-Mar-20
 19\0\\# mPW1PW91/6-311g(d) nmr=giao scrf=(solvent=chloroform)\\AT3_1gi
 np012\\0,1\C,0,-2.586173,0.140832,1.589959\C,0,-1.268642,0.74561,1.121
 175\C,0,-0.192732,0.864564,2.2293\C,0,-0.698294,1.63042,3.491947\C,0,-
 1.064509,3.093685,3.204561\O,0,-1.651592,3.679569,4.364356\N,0,1.02853
 9,1.500869,1.692472\C,0,1.770386,0.642015,0.761867\C,0,5.452562,2.5462
 38,-0.460351\C,0,4.347556,2.546979,-1.310352\C,0,3.162606,1.92825,-0.9
 1143\C,0,3.051587,1.297974,0.32875\C,0,4.169084,1.311538,1.165934\C,0,
 5.361445,1.925214,0.784011\H,0,6.377735,3.028321,-0.765447\H,0,4.39740
 1,3.026425,-2.283527\H,0,6.209408,1.916028,1.462285\F,0,2.120888,1.940
 056,-1.75559\F,0,4.104658,0.726419,2.371139\H,0,-3.233138,-0.057505,0.
 729022\H,0,-2.420825,-0.805826,2.113653\H,0,-3.129002,0.81998,2.25346\
 H,0,-0.8967,0.100708,0.316846\H,0,-1.46463,1.722606,0.663734\H,0,-1.59
 8839,1.125801,3.864455\H,0,-1.796359,3.170336,2.396007\H,0,-0.181333,3
 .682454,2.936124\H,0,-1.844634,4.606521,4.141922\H,0,2.009769,-0.32058
 2,1.23153\H,0,1.173183,0.416955,-0.127465\H,0,0.059083,-0.152668,2.560
 334\C,0,0.305018,1.545823,4.656171\H,0,1.192755,2.16151,4.481098\H,0,-
 0.15417,1.892863,5.588283\H,0,0.628471,0.512145,4.817558\H,0,1.659932,
 1.709504,2.466683\\Version=ES64L-G09RevD.01\State=1-A\HF=-836.4561338\
 RMSD=7.057e-09\Dipole=0.6383312,0.2814207,-0.5252091\Quadrupole=5.2815
 672,2.424833,-7.7064002,1.7932925,-0.0523231,-1.0796376\PG=C01 [X(C13H
 19F2N1O1)]\\@


 A successful marriage requires falling in love
 many times, always with the same person.
                           -- Mignon McLaughlin
 Job cpu time:       0 days  0 hours 16 minutes 19.0 seconds.
 File lengths (MBytes):  RWF=    184 Int=      0 D2E=      0 Chk=     10 Scr=      1
 Normal termination of Gaussian 09 at Mon Mar  4 11:28:18 2019.
