 Entering Gaussian System, Link 0=/usr/local/Cluster-Apps/gaussian/g09/g09
 Initial command:
 /usr/local/Cluster-Apps/gaussian/g09/l1.exe "/home/ah809/rds/hpc-work/04Mar1111AT3/Gau-282067.inp" -scrdir="/home/ah809/rds/hpc-work/04Mar1111AT3/"
 Entering Link 1 = /usr/local/Cluster-Apps/gaussian/g09/l1.exe PID=    282073.
  
 Copyright (c) 1988,1990,1992,1993,1995,1998,2003,2009,2013,
            Gaussian, Inc.  All Rights Reserved.
  
 This is part of the Gaussian(R) 09 program.  It is based on
 the Gaussian(R) 03 system (copyright 2003, Gaussian, Inc.),
 the Gaussian(R) 98 system (copyright 1998, Gaussian, Inc.),
 the Gaussian(R) 94 system (copyright 1995, Gaussian, Inc.),
 the Gaussian 92(TM) system (copyright 1992, Gaussian, Inc.),
 the Gaussian 90(TM) system (copyright 1990, Gaussian, Inc.),
 the Gaussian 88(TM) system (copyright 1988, Gaussian, Inc.),
 the Gaussian 86(TM) system (copyright 1986, Carnegie Mellon
 University), and the Gaussian 82(TM) system (copyright 1983,
 Carnegie Mellon University). Gaussian is a federally registered
 trademark of Gaussian, Inc.
  
 This software contains proprietary and confidential information,
 including trade secrets, belonging to Gaussian, Inc.
  
 This software is provided under written license and may be
 used, copied, transmitted, or stored only in accord with that
 written license.
  
 The following legend is applicable only to US Government
 contracts under FAR:
  
                    RESTRICTED RIGHTS LEGEND
  
 Use, reproduction and disclosure by the US Government is
 subject to restrictions as set forth in subparagraphs (a)
 and (c) of the Commercial Computer Software - Restricted
 Rights clause in FAR 52.227-19.
  
 Gaussian, Inc.
 340 Quinnipiac St., Bldg. 40, Wallingford CT 06492
  
  
 ---------------------------------------------------------------
 Warning -- This program may not be used in any manner that
 competes with the business of Gaussian, Inc. or will provide
 assistance to any competitor of Gaussian, Inc.  The licensee
 of this program is prohibited from giving any competitor of
 Gaussian, Inc. access to this program.  By using this program,
 the user acknowledges that Gaussian, Inc. is engaged in the
 business of creating and licensing software in the field of
 computational chemistry and represents and warrants to the
 licensee that it is not a competitor of Gaussian, Inc. and that
 it will not use this program in any manner prohibited above.
 ---------------------------------------------------------------
  

 Cite this work as:
 Gaussian 09, Revision D.01,
 M. J. Frisch, G. W. Trucks, H. B. Schlegel, G. E. Scuseria, 
 M. A. Robb, J. R. Cheeseman, G. Scalmani, V. Barone, B. Mennucci, 
 G. A. Petersson, H. Nakatsuji, M. Caricato, X. Li, H. P. Hratchian, 
 A. F. Izmaylov, J. Bloino, G. Zheng, J. L. Sonnenberg, M. Hada, 
 M. Ehara, K. Toyota, R. Fukuda, J. Hasegawa, M. Ishida, T. Nakajima, 
 Y. Honda, O. Kitao, H. Nakai, T. Vreven, J. A. Montgomery, Jr., 
 J. E. Peralta, F. Ogliaro, M. Bearpark, J. J. Heyd, E. Brothers, 
 K. N. Kudin, V. N. Staroverov, T. Keith, R. Kobayashi, J. Normand, 
 K. Raghavachari, A. Rendell, J. C. Burant, S. S. Iyengar, J. Tomasi, 
 M. Cossi, N. Rega, J. M. Millam, M. Klene, J. E. Knox, J. B. Cross, 
 V. Bakken, C. Adamo, J. Jaramillo, R. Gomperts, R. E. Stratmann, 
 O. Yazyev, A. J. Austin, R. Cammi, C. Pomelli, J. W. Ochterski, 
 R. L. Martin, K. Morokuma, V. G. Zakrzewski, G. A. Voth, 
 P. Salvador, J. J. Dannenberg, S. Dapprich, A. D. Daniels, 
 O. Farkas, J. B. Foresman, J. V. Ortiz, J. Cioslowski, 
 and D. J. Fox, Gaussian, Inc., Wallingford CT, 2013.
 
 ******************************************
 Gaussian 09:  ES64L-G09RevD.01 24-Apr-2013
                 4-Mar-2019 
 ******************************************
 %nprocshared=8
 Will use up to    8 processors via shared memory.
 %mem=6000MB
 %chk=AT3_2ginp003.chk
 -------------------------------------------------------
 # mPW1PW91/6-311g(d) nmr=giao scrf=(solvent=chloroform)
 -------------------------------------------------------
 1/38=1/1;
 2/12=2,17=6,18=5,40=1/2;
 3/5=4,6=6,7=1,11=2,16=1,25=1,30=1,70=2201,72=7,74=-7/1,2,8,3;
 4//1;
 5/5=2,38=5,53=7/2;
 8/6=1,10=90,11=11/1;
 10/13=100,45=16/2;
 6/7=2,8=2,9=2,10=2,28=1/1;
 99/9=1/99;
 ------------
 AT3_2ginp003
 ------------
 Symbolic Z-matrix:
 Charge =  0 Multiplicity = 1
 C                    -3.11655  -1.5042   -0.48169 
 C                    -2.5487   -1.22071   0.90692 
 C                    -3.631    -1.12349   2.01234 
 C                    -3.0215   -1.13272   3.45226 
 C                    -2.07105   0.04195   3.73885 
 O                    -2.7408    1.2928    3.64831 
 N                    -4.44144   0.09375   1.78463 
 C                    -5.76551   0.06856   2.43072 
 C                    -8.52898  -2.7844    0.72824 
 C                    -8.06973  -2.94474   2.03452 
 C                    -7.17736  -2.01951   2.57532 
 C                    -6.72402  -0.92488   1.83753 
 C                    -7.19724  -0.78324   0.53158 
 C                    -8.08932  -1.6981   -0.02611 
 H                    -9.22497  -3.50184   0.30089 
 H                    -8.39974  -3.78502   2.63844 
 H                    -8.43434  -1.55569  -1.04601 
 F                    -6.74785  -2.20419   3.83178 
 F                    -6.78311   0.24864  -0.21819 
 H                    -2.29901  -1.6763   -1.18956 
 H                    -3.74736  -2.39871  -0.47209 
 H                    -3.70739  -0.66725  -0.86367 
 H                    -1.85077  -2.03182   1.13791 
 H                    -1.9563   -0.2989    0.86319 
 H                    -3.85506  -1.05752   4.16211 
 H                    -1.22141   0.05414   3.04932 
 H                    -1.66615  -0.03457   4.75353 
 H                    -3.34753   1.22099   2.87957 
 H                    -5.66994  -0.06875   3.51276 
 H                    -6.20765   1.06687   2.31792 
 H                    -4.26231  -2.01466   1.90835 
 C                    -2.31481  -2.4565    3.76586 
 H                    -1.37448  -2.56244   3.21676 
 H                    -2.07572  -2.51565   4.83357 
 H                    -2.9563   -3.31006   3.52362 
 H                    -4.60058   0.23448   0.7854 
 
                          Input orientation:                          
 ---------------------------------------------------------------------
 Center     Atomic      Atomic             Coordinates (Angstroms)
 Number     Number       Type             X           Y           Z
 ---------------------------------------------------------------------
      1          6           0       -3.116552   -1.504203   -0.481692
      2          6           0       -2.548700   -1.220708    0.906923
      3          6           0       -3.630995   -1.123491    2.012336
      4          6           0       -3.021504   -1.132715    3.452263
      5          6           0       -2.071047    0.041949    3.738845
      6          8           0       -2.740801    1.292803    3.648307
      7          7           0       -4.441435    0.093746    1.784630
      8          6           0       -5.765513    0.068556    2.430718
      9          6           0       -8.528975   -2.784402    0.728236
     10          6           0       -8.069734   -2.944735    2.034525
     11          6           0       -7.177359   -2.019506    2.575323
     12          6           0       -6.724017   -0.924883    1.837525
     13          6           0       -7.197237   -0.783243    0.531582
     14          6           0       -8.089316   -1.698104   -0.026107
     15          1           0       -9.224974   -3.501844    0.300889
     16          1           0       -8.399740   -3.785015    2.638441
     17          1           0       -8.434339   -1.555694   -1.046007
     18          9           0       -6.747849   -2.204189    3.831782
     19          9           0       -6.783111    0.248643   -0.218186
     20          1           0       -2.299006   -1.676303   -1.189560
     21          1           0       -3.747364   -2.398714   -0.472087
     22          1           0       -3.707387   -0.667253   -0.863666
     23          1           0       -1.850773   -2.031823    1.137909
     24          1           0       -1.956297   -0.298898    0.863191
     25          1           0       -3.855064   -1.057523    4.162108
     26          1           0       -1.221412    0.054135    3.049317
     27          1           0       -1.666153   -0.034574    4.753526
     28          1           0       -3.347530    1.220993    2.879570
     29          1           0       -5.669936   -0.068747    3.512762
     30          1           0       -6.207645    1.066868    2.317922
     31          1           0       -4.262307   -2.014657    1.908348
     32          6           0       -2.314810   -2.456504    3.765861
     33          1           0       -1.374480   -2.562438    3.216757
     34          1           0       -2.075722   -2.515646    4.833566
     35          1           0       -2.956301   -3.310055    3.523621
     36          1           0       -4.600577    0.234478    0.785399
 ---------------------------------------------------------------------
                    Distance matrix (angstroms):
                    1          2          3          4          5
     1  C    0.000000
     2  C    1.526786   0.000000
     3  C    2.574834   1.550081   0.000000
     4  C    3.952599   2.590375   1.563635   0.000000
     5  C    4.614824   3.137234   2.602407   1.537964   0.000000
     6  O    5.002132   3.724222   3.050791   2.449564   1.421761
     7  N    3.073267   2.465888   1.479976   2.510261   3.072520
     8  C    4.239422   3.785768   2.480360   3.164837   3.919309
     9  C    5.691850   6.183911   5.328954   6.362439   7.665302
    10  C    5.739381   5.892841   4.797898   5.547794   6.914422
    11  C    5.108917   4.984588   3.700878   4.338958   5.628304
    12  C    4.327607   4.287984   3.104318   4.044648   5.118585
    13  C    4.265970   4.684138   3.876401   5.107764   6.102893
    14  C    4.997353   5.638872   4.935793   6.172636   7.309050
    15  H    6.474243   7.081207   6.314920   7.350304   8.692335
    16  H    6.545946   6.618799   5.496967   6.051646   7.477225
    17  H    5.347893   6.210225   5.710725   7.050683   8.120268
    18  F    5.681756   5.211035   3.767369   3.895862   5.189051
    19  F    4.072537   4.621158   4.098026   5.434154   6.156652
    20  H    1.095024   2.159897   3.511685   4.729060   5.224321
    21  H    1.094608   2.173974   2.795012   4.186902   5.147701
    22  H    1.093378   2.187202   2.912967   4.394808   4.935958
    23  H    2.122189   1.094698   2.181486   2.745039   3.333754
    24  H    2.146547   1.096625   2.192054   2.921166   2.898056
    25  H    4.723325   3.511331   2.162424   1.097432   2.137921
    26  H    4.299767   2.824318   2.875452   2.193470   1.094293
    27  H    5.627697   4.120941   3.544075   2.176276   1.095159
    28  H    4.333374   3.239038   2.515761   2.444220   1.938532
    29  H    4.953379   4.226053   2.742452   2.854799   3.607682
    30  H    4.899296   4.540022   3.395612   4.034401   4.492318
    31  H    2.699187   2.137675   1.097062   2.168199   3.518802
    32  C    4.426214   3.123367   2.565953   1.533029   2.510462
    33  H    4.222938   2.917939   2.934801   2.193686   2.746018
    34  H    5.509838   4.161622   3.509460   2.171405   2.782037
    35  H    4.396512   3.373221   2.742309   2.179485   3.473604
    36  H    2.613592   2.518439   2.071121   3.387455   3.893383
                    6          7          8          9         10
     6  O    0.000000
     7  N    2.793418   0.000000
     8  C    3.482842   1.473515   0.000000
     9  C    7.658549   5.109568   4.321404   0.000000
    10  C    6.997038   4.739132   3.813965   1.393915   0.000000
    11  C    5.639657   3.546309   2.524722   2.413226   1.394577
    12  C    4.905413   2.500117   1.502508   2.818902   2.435070
    13  C    5.820976   3.151775   2.526284   2.411812   2.773470
    14  C    7.145170   4.449329   3.815382   1.393692   2.408459
    15  H    8.731457   6.165387   5.408493   1.087089   2.156489
    16  H    7.669919   5.607313   4.672506   2.160280   1.086135
    17  H    7.909924   5.164924   4.674231   2.160236   3.398831
    18  F    5.321565   3.845892   2.844879   3.625059   2.350728
    19  F    5.690370   3.085241   2.843348   3.625344   4.114337
    20  H    5.693481   4.070489   5.307317   6.611984   6.730895
    21  H    5.622999   3.433200   4.311221   4.945031   5.026343
    22  H    5.013383   2.851564   3.953513   5.501289   5.711086
    23  H    4.259975   3.412890   4.626893   6.732948   6.349237
    24  H    3.302398   2.679390   4.135491   7.028232   6.763622
    25  H    2.651340   2.705855   2.813464   6.051366   5.084449
    26  H    2.049788   3.459704   4.586036   8.175891   7.544703
    27  H    2.034283   4.066079   4.712836   8.418007   7.541078
    28  H    0.981954   1.914734   2.715920   6.893388   6.353472
    29  H    3.232959   2.126513   1.094900   4.827263   4.026850
    30  H    3.720212   2.085873   1.097648   4.769482   4.431777
    31  H    4.035063   2.119612   2.621502   4.493287   3.921411
    32  C    3.775260   3.866728   4.479496   6.924632   6.029514
    33  H    4.112901   4.302617   5.178915   7.578179   6.809570
    34  H    4.043693   4.658491   5.105520   7.653133   6.629248
    35  H    4.609587   4.100680   4.527816   6.256611   5.338358
    36  H    3.574222   1.021565   2.022790   4.954716   4.868548
                   11         12         13         14         15
    11  C    0.000000
    12  C    1.395731   0.000000
    13  C    2.388644   1.396240   0.000000
    14  C    2.775320   2.436193   1.394200   0.000000
    15  H    3.400456   3.905991   3.399372   2.156414   0.000000
    16  H    2.148307   3.410259   3.859469   3.398732   2.495064
    17  H    3.861237   3.411434   2.148462   1.086056   2.495342
    18  F    1.340625   2.369441   3.621099   4.115697   4.504138
    19  F    3.619893   2.367827   1.341060   2.352210   4.505362
    20  H    6.171747   5.413742   5.268069   5.906081   7.315946
    21  H    4.603843   4.045609   3.939381   4.420667   5.640798
    22  H    5.069116   4.057445   3.760216   4.578806   6.311486
    23  H    5.517140   5.046116   5.523700   6.354976   7.565739
    24  H    5.757723   4.906357   5.273709   6.353153   7.962959
    25  H    3.805383   3.694884   4.942274   5.990023   7.051216
    26  H    6.324394   5.718879   6.538400   7.726363   9.179098
    27  H    6.249633   5.905735   6.998443   8.177362   9.433118
    28  H    5.026031   4.134163   4.934598   6.280814   7.968634
    29  H    2.637532   2.156496   3.424994   4.586044   5.894114
    30  H    3.245351   2.112935   2.755579   4.084143   5.834880
    31  H    2.990386   2.693072   3.467806   4.299805   5.424363
    32  C    5.025210   5.050292   6.090850   6.949756   7.800585
    33  H    5.863413   5.762067   6.654337   7.506814   8.427041
    34  H    5.601117   5.754427   6.909284   7.774838   8.522297
    35  H    4.514656   4.767352   5.772574   6.445681   7.051173
    36  H    3.863169   2.638197   2.800504   4.069977   5.964889
                   16         17         18         19         20
    16  H    0.000000
    17  H    4.306533   0.000000
    18  F    2.579112   5.201694   0.000000
    19  F    5.200404   2.582145   4.734962   0.000000
    20  H    7.504613   6.138197   6.729394   4.975558   0.000000
    21  H    5.765572   4.796645   5.250147   4.035929   1.770420
    22  H    6.633504   4.813175   5.801191   3.273467   1.762931
    23  H    6.943648   6.952663   5.591781   5.600668   2.396752
    24  H    7.538069   6.869469   5.949927   4.976677   2.495692
    25  H    5.514966   6.952870   3.129243   5.428306   5.607545
    26  H    8.150846   8.449233   6.021112   6.453441   4.703584
    27  H    7.992533   9.041943   5.601828   7.140125   6.198068
    28  H    7.116396   6.999698   4.919426   4.727026   5.104071
    29  H    4.693284   5.534917   2.413251   3.906388   6.004934
    30  H    5.333740   4.811654   3.644641   2.726261   5.924937
    31  H    4.559118   5.132710   3.148562   3.999891   3.683214
    32  C    6.329486   7.836719   4.440703   6.569335   5.016489
    33  H    7.154259   8.308207   5.420304   6.996735   4.588640
    34  H    6.813448   8.713375   4.788460   7.437809   6.085425
    35  H    5.535355   7.346304   3.961532   6.427280   5.031427
    36  H    5.832986   4.610477   4.454023   2.402257   3.584519
                   21         22         23         24         25
    21  H    0.000000
    22  H    1.775638   0.000000
    23  H    2.514707   3.052109   0.000000
    24  H    3.065961   2.486772   1.757736   0.000000
    25  H    4.825573   5.043067   3.756624   3.881196   0.000000
    26  H    4.979677   4.691685   2.898413   2.333203   3.067607
    27  H    6.101445   6.009972   4.134704   3.910084   2.487475
    28  H    4.949318   4.207943   3.981768   2.882947   2.663481
    29  H    5.000405   4.833521   4.907097   4.567747   2.166354
    30  H    5.084033   4.402382   5.475094   4.696330   3.667246
    31  H    2.465591   3.131692   2.531673   3.058409   2.482214
    32  C    4.473897   5.154921   2.702187   3.634458   2.118146
    33  H    4.389186   5.067942   2.197730   3.316835   3.051517
    34  H    5.563993   6.207845   3.733975   4.548858   2.396463
    35  H    4.173968   5.176564   2.923643   4.140648   2.507856
    36  H    3.040221   2.080943   3.580755   2.698659   3.691506
                   26         27         28         29         30
    26  H    0.000000
    27  H    1.763517   0.000000
    28  H    2.431203   2.813394   0.000000
    29  H    4.474287   4.191771   2.730921   0.000000
    30  H    5.140339   5.269771   2.918812   1.733896   0.000000
    31  H    3.850812   4.330795   3.499931   2.888274   3.667136
    32  C    2.830594   2.694807   3.921225   4.125811   5.446544
    33  H    2.626389   2.972680   4.280300   4.975646   6.110585
    34  H    3.243018   2.515924   4.404324   4.544250   6.019606
    35  H    3.814784   3.729065   4.593284   4.227294   5.584121
    36  H    4.071438   4.942597   2.632279   2.945163   2.371533
                   31         32         33         34         35
    31  H    0.000000
    32  C    2.727330   0.000000
    33  H    3.217381   1.094056   0.000000
    34  H    3.686332   1.095744   1.762952   0.000000
    35  H    2.448023   1.094870   1.776304   1.767049   0.000000
    36  H    2.536543   4.620527   4.913445   5.506880   4.771291
                   36
    36  H    0.000000
 Stoichiometry    C13H19F2NO
 Framework group  C1[X(C13H19F2NO)]
 Deg. of freedom   102
 Full point group                 C1      NOp   1
 Largest Abelian subgroup         C1      NOp   1
 Largest concise Abelian subgroup C1      NOp   1
                         Standard orientation:                         
 ---------------------------------------------------------------------
 Center     Atomic      Atomic             Coordinates (Angstroms)
 Number     Number       Type             X           Y           Z
 ---------------------------------------------------------------------
      1          6           0       -0.906928    2.504592    1.670639
      2          6           0       -1.955411    1.500058    1.198758
      3          6           0       -1.355087    0.277183    0.459205
      4          6           0       -2.397032   -0.870013    0.251247
      5          6           0       -3.614405   -0.465753   -0.597228
      6          8           0       -3.234429   -0.092384   -1.915415
      7          7           0       -0.792737    0.726983   -0.833765
      8          6           0        0.209969   -0.187292   -1.408160
      9          6           0        3.922939   -0.376768    0.794676
     10          6           0        3.095846   -1.495913    0.714468
     11          6           0        1.899037   -1.425231    0.002080
     12          6           0        1.499538   -0.252017   -0.639818
     13          6           0        2.343301    0.856568   -0.547137
     14          6           0        3.543328    0.804913    0.160720
     15          1           0        4.857363   -0.425379    1.348076
     16          1           0        3.373364   -2.425835    1.202235
     17          1           0        4.173022    1.688303    0.211961
     18          9           0        1.121154   -2.515794   -0.051270
     19          9           0        1.997104    2.008028   -1.141047
     20          1           0       -1.382296    3.278138    2.282789
     21          1           0       -0.141881    2.014907    2.281440
     22          1           0       -0.413573    3.008086    0.834834
     23          1           0       -2.501673    1.167873    2.087361
     24          1           0       -2.679514    2.020933    0.560830
     25          1           0       -1.887106   -1.684617   -0.278613
     26          1           0       -4.164430    0.366422   -0.147301
     27          1           0       -4.311233   -1.305733   -0.687985
     28          1           0       -2.403777    0.423071   -1.822903
     29          1           0       -0.212858   -1.185820   -1.559701
     30          1           0        0.442095    0.169771   -2.419819
     31          1           0       -0.552053   -0.109376    1.098935
     32          6           0       -2.870532   -1.461280    1.584056
     33          1           0       -3.526013   -0.776078    2.129767
     34          1           0       -3.436763   -2.383214    1.410636
     35          1           0       -2.019592   -1.712437    2.225587
     36          1           0       -0.340191    1.636789   -0.728650
 ---------------------------------------------------------------------
 Rotational constants (GHZ):      0.6787326      0.3010587      0.2688669
 Standard basis: 6-311G(d) (5D, 7F)
 There are   380 symmetry adapted cartesian basis functions of A   symmetry.
 There are   363 symmetry adapted basis functions of A   symmetry.
   363 basis functions,   639 primitive gaussians,   380 cartesian basis functions
    65 alpha electrons       65 beta electrons
       nuclear repulsion energy      1305.2552482807 Hartrees.
 NAtoms=   36 NActive=   36 NUniq=   36 SFac= 1.00D+00 NAtFMM=   60 NAOKFM=F Big=F
 Integral buffers will be    131072 words long.
 Raffenetti 2 integral format.
 Two-electron integral symmetry is turned on.
 ------------------------------------------------------------------------------
 Polarizable Continuum Model (PCM)
 =================================
 Model                : PCM (using non-symmetric T matrix).
 Atomic radii         : UFF (Universal Force Field).
 Polarization charges : Total charges.
 Charge compensation  : None.
 Solution method      : On-the-fly selection.
 Cavity type          : Scaled VdW (van der Waals Surface) (Alpha=1.100).
 Cavity algorithm     : GePol (No added spheres)
                        Default sphere list used, NSphG=   36.
                        Lebedev-Laikov grids with approx.  5.0 points / Ang**2.
                        Smoothing algorithm: Karplus/York (Gamma=1.0000).
                        Polarization charges: spherical gaussians, with
                                              point-specific exponents (IZeta= 3).
                        Self-potential: point-specific (ISelfS= 7).
                        Self-field    : sphere-specific E.n sum rule (ISelfD= 2).
 Solvent              : Chloroform, Eps=   4.711300 Eps(inf)=   2.090627
 ------------------------------------------------------------------------------
 One-electron integrals computed using PRISM.
 NBasis=   363 RedAO= T EigKep=  2.45D-04  NBF=   363
 NBsUse=   363 1.00D-06 EigRej= -1.00D+00 NBFU=   363
 ExpMin= 1.03D-01 ExpMax= 1.14D+04 ExpMxC= 1.72D+03 IAcc=1 IRadAn=         1 AccDes= 0.00D+00
 Harris functional with IExCor=  908 and IRadAn=       1 diagonalized for initial guess.
 HarFok:  IExCor=  908 AccDes= 0.00D+00 IRadAn=         1 IDoV= 1 UseB2=F ITyADJ=14
 ICtDFT=  3500011 ScaDFX=  1.000000  1.000000  1.000000  1.000000
 FoFCou: FMM=F IPFlag=           0 FMFlag=      100000 FMFlg1=           0
         NFxFlg=           0 DoJE=T BraDBF=F KetDBF=T FulRan=T
         wScrn=  0.000000 ICntrl=     500 IOpCl=  0 I1Cent=   200000004 NGrid=           0
         NMat0=    1 NMatS0=      1 NMatT0=    0 NMatD0=    1 NMtDS0=    0 NMtDT0=    0
 Petite list used in FoFCou.
 Requested convergence on RMS density matrix=1.00D-08 within 128 cycles.
 Requested convergence on MAX density matrix=1.00D-06.
 Requested convergence on             energy=1.00D-06.
 No special actions if energy rises.
 Inv3:  Mode=1 IEnd=    18870192.
 Iteration    1 A*A^-1 deviation from unit magnitude is 4.00D-15 for   2484.
 Iteration    1 A*A^-1 deviation from orthogonality  is 2.35D-15 for   2278   1092.
 Iteration    1 A^-1*A deviation from unit magnitude is 3.66D-15 for   2487.
 Iteration    1 A^-1*A deviation from orthogonality  is 2.51D-13 for   1830   1816.
 Error on total polarization charges =  0.00912
 SCF Done:  E(RmPW1PW91) =  -836.466752037     A.U. after   12 cycles
            NFock= 12  Conv=0.70D-08     -V/T= 2.0038
 DoSCS=F DFT=T ScalE2(SS,OS)=  1.000000  1.000000
 Range of M.O.s used for correlation:     1   363
 NBasis=   363 NAE=    65 NBE=    65 NFC=     0 NFV=     0
 NROrb=    363 NOA=    65 NOB=    65 NVA=   298 NVB=   298

 **** Warning!!: The largest alpha MO coefficient is  0.11654448D+02

 NEqPCM:  Using equilibrium solvation (IEInf=0, Eps=   4.7113, EpsInf=   2.0906)
          Differentiating once with respect to magnetic field using GIAOs.
          Electric field/nuclear overlap derivatives assumed to be zero.
 FoFJK:  IHMeth= 1 ICntrl=    6127 DoSepK=F KAlg= 0 I1Cent=   0 FoldK=F
 IRaf=         1 NMat=   1 IRICut=       1 DoRegI=T DoRafI=F ISym2E= 0.
          There are     3 degrees of freedom in the 1st order CPHF.  IDoFFX=0 NUNeed=     3.
      3 vectors produced by pass  0 Test12= 6.46D-13 3.33D-08 XBig12= 3.89D+01 1.93D+00.
 AX will form     3 AO Fock derivatives at one time.
      3 vectors produced by pass  1 Test12= 6.46D-13 3.33D-08 XBig12= 1.29D-01 1.80D-01.
      3 vectors produced by pass  2 Test12= 6.46D-13 3.33D-08 XBig12= 5.99D-04 6.47D-03.
      3 vectors produced by pass  3 Test12= 6.46D-13 3.33D-08 XBig12= 1.37D-06 2.46D-04.
      3 vectors produced by pass  4 Test12= 6.46D-13 3.33D-08 XBig12= 3.57D-09 1.42D-05.
      3 vectors produced by pass  5 Test12= 6.46D-13 3.33D-08 XBig12= 1.52D-11 8.33D-07.
      2 vectors produced by pass  6 Test12= 6.46D-13 3.33D-08 XBig12= 3.84D-14 3.52D-08.
 InvSVY:  IOpt=1 It=  1 EMax= 8.88D-16
 Solved reduced A of dimension    20 with     3 vectors.
 Calculating GIAO nuclear magnetic shielding tensors.
 SCF GIAO Magnetic shielding tensor (ppm):
      1  C    Isotropic =   175.6064   Anisotropy =    21.6652
   XX=   181.8249   YX=     5.9805   ZX=    10.5387
   XY=     2.4441   YY=   178.6545   ZY=     7.0701
   XZ=     7.5617   YZ=     6.2025   ZZ=   166.3399
   Eigenvalues:   161.0264   175.7430   190.0499
      2  C    Isotropic =   165.3143   Anisotropy =    16.8145
   XX=   166.5592   YX=    -1.2206   ZX=    -2.9967
   XY=    -8.3602   YY=   166.8557   ZY=     8.8916
   XZ=    -7.0494   YZ=     4.6565   ZZ=   162.5281
   Eigenvalues:   157.3284   162.0907   176.5240
      3  C    Isotropic =   123.5714   Anisotropy =    14.8511
   XX=   120.7219   YX=     5.7141   ZX=    -3.7238
   XY=    14.4541   YY=   122.3772   ZY=   -10.2547
   XZ=    -0.8269   YZ=     5.6066   ZZ=   127.6151
   Eigenvalues:   111.4308   125.8111   133.4721
      4  C    Isotropic =   152.0364   Anisotropy =    20.9006
   XX=   151.1936   YX=     1.4414   ZX=     9.5469
   XY=    -1.5501   YY=   141.5541   ZY=     9.1418
   XZ=     2.6390   YZ=    -6.0307   ZZ=   163.3616
   Eigenvalues:   141.4146   148.7245   165.9702
      5  C    Isotropic =   119.1692   Anisotropy =    66.7769
   XX=   106.6714   YX=     1.1569   ZX=    -2.3847
   XY=     4.0412   YY=    95.4415   ZY=   -21.8040
   XZ=   -10.2669   YZ=   -23.1002   ZZ=   155.3947
   Eigenvalues:    87.9535   105.8669   163.6872
      6  O    Isotropic =   302.1146   Anisotropy =    69.4271
   XX=   330.4336   YX=    14.9084   ZX=    25.5592
   XY=     2.3433   YY=   281.4648   ZY=    -7.8603
   XZ=    35.0829   YZ=     5.1718   ZZ=   294.4455
   Eigenvalues:   273.2740   284.6704   348.3993
      7  N    Isotropic =   197.2655   Anisotropy =    33.3336
   XX=   186.5399   YX=   -14.2711   ZX=     3.6360
   XY=    -5.8069   YY=   216.4288   ZY=    -3.1190
   XZ=    -8.1540   YZ=     1.5464   ZZ=   188.8277
   Eigenvalues:   182.5684   189.7401   219.4879
      8  C    Isotropic =   150.0405   Anisotropy =    46.6342
   XX=   161.3071   YX=   -24.7628   ZX=    -6.1994
   XY=   -21.5617   YY=   137.8803   ZY=    13.3560
   XZ=    -6.6627   YZ=    14.2749   ZZ=   150.9342
   Eigenvalues:   121.0198   147.9718   181.1300
      9  C    Isotropic =    54.2490   Anisotropy =   186.5359
   XX=     3.0858   YX=   -16.3913   ZX=   -95.7734
   XY=   -15.4824   YY=    49.1601   ZY=    36.9565
   XZ=   -95.2326   YZ=    36.6072   ZZ=   110.5011
   Eigenvalues:   -53.0195    37.1602   178.6063
     10  C    Isotropic =    71.2002   Anisotropy =   148.5381
   XX=    78.1017   YX=    -6.3489   ZX=   -51.4279
   XY=     0.8317   YY=    15.2207   ZY=    55.7035
   XZ=   -54.4004   YZ=    51.2082   ZZ=   120.2783
   Eigenvalues:   -11.5618    54.9368   170.2256
     11  C    Isotropic =    19.5103   Anisotropy =   101.5441
   XX=    16.0021   YX=   -56.9454   ZX=   -20.9458
   XY=   -56.4086   YY=   -26.6598   ZY=     9.3249
   XZ=   -23.5078   YZ=    10.4905   ZZ=    69.1887
   Eigenvalues:   -66.0424    37.3670    87.2064
     12  C    Isotropic =    66.7884   Anisotropy =   140.3687
   XX=    51.8959   YX=   -23.7415   ZX=   -55.4303
   XY=   -22.1964   YY=    36.7546   ZY=    37.7444
   XZ=   -52.6337   YZ=    40.9883   ZZ=   111.7146
   Eigenvalues:    19.8027    20.1949   160.3675
     13  C    Isotropic =    19.3919   Anisotropy =    97.6553
   XX=    43.1487   YX=    17.5143   ZX=   -31.4732
   XY=    11.4282   YY=   -35.8156   ZY=    48.2178
   XZ=   -27.2673   YZ=    49.1264   ZZ=    50.8426
   Eigenvalues:   -63.7845    37.4648    84.4955
     14  C    Isotropic =    70.2921   Anisotropy =   149.3271
   XX=    61.8796   YX=   -43.3341   ZX=   -47.3722
   XY=   -51.3637   YY=    15.8141   ZY=    24.8599
   XZ=   -45.7908   YZ=    28.2452   ZZ=   133.1827
   Eigenvalues:   -13.8472    54.8801   169.8435
     15  H    Isotropic =    24.5218   Anisotropy =     3.0787
   XX=    25.1782   YX=     0.6341   ZX=     1.7212
   XY=     0.7590   YY=    26.1083   ZY=    -1.3644
   XZ=     1.7048   YZ=    -1.3642   ZZ=    22.2789
   Eigenvalues:    21.0236    25.9676    26.5743
     16  H    Isotropic =    25.1960   Anisotropy =     4.8741
   XX=    27.2053   YX=     0.2299   ZX=     2.7120
   XY=     0.5498   YY=    25.5139   ZY=    -0.9937
   XZ=     2.5399   YZ=    -1.0859   ZZ=    22.8689
   Eigenvalues:    21.3383    25.8044    28.4454
     17  H    Isotropic =    25.1576   Anisotropy =     4.9684
   XX=    27.2582   YX=     0.4350   ZX=     2.4623
   XY=     0.1725   YY=    25.1070   ZY=    -1.4232
   XZ=     2.5610   YZ=    -1.2659   ZZ=    23.1075
   Eigenvalues:    21.4304    25.5726    28.4698
     18  F    Isotropic =   299.4358   Anisotropy =   127.0151
   XX=   285.7983   YX=     7.3906   ZX=   -64.2657
   XY=     8.9586   YY=   279.6033   ZY=    41.8256
   XZ=   -61.4895   YZ=    36.1998   ZZ=   332.9057
   Eigenvalues:   225.2452   288.9496   384.1126
     19  F    Isotropic =   304.0741   Anisotropy =   144.4371
   XX=   264.3078   YX=   -15.5550   ZX=   -67.8502
   XY=   -34.5612   YY=   280.7970   ZY=    15.9787
   XZ=   -54.8579   YZ=    12.0793   ZZ=   367.1175
   Eigenvalues:   229.7780   282.0788   400.3655
     20  H    Isotropic =    30.9983   Anisotropy =    11.7045
   XX=    28.9254   YX=    -0.7608   ZX=    -1.1068
   XY=    -1.6069   YY=    34.3876   ZY=     6.0178
   XZ=    -1.7719   YZ=     5.9758   ZZ=    29.6818
   Eigenvalues:    25.5069    28.6866    38.8013
     21  H    Isotropic =    31.9310   Anisotropy =     7.4347
   XX=    33.7848   YX=    -1.5260   ZX=     4.3272
   XY=    -0.5078   YY=    29.6867   ZY=     1.0892
   XZ=     3.1984   YZ=     1.6448   ZZ=    32.3214
   Eigenvalues:    27.7353    31.1702    36.8874
     22  H    Isotropic =    31.3464   Anisotropy =     6.7915
   XX=    30.2563   YX=     2.7922   ZX=    -3.0298
   XY=     3.3438   YY=    33.4770   ZY=    -0.6881
   XZ=    -2.8133   YZ=     0.4606   ZZ=    30.3059
   Eigenvalues:    26.6349    31.5302    35.8741
     23  H    Isotropic =    30.6361   Anisotropy =     7.7033
   XX=    29.5079   YX=     3.5752   ZX=    -4.7574
   XY=     2.9789   YY=    30.7970   ZY=     1.2086
   XZ=    -5.0271   YZ=     1.7825   ZZ=    31.6034
   Eigenvalues:    23.7967    32.3399    35.7716
     24  H    Isotropic =    30.6384   Anisotropy =     7.2111
   XX=    33.1862   YX=    -2.1753   ZX=     3.5462
   XY=    -2.4394   YY=    31.5549   ZY=     0.5473
   XZ=     2.8093   YZ=     1.1104   ZZ=    27.1741
   Eigenvalues:    25.3292    31.1401    35.4458
     25  H    Isotropic =    29.5898   Anisotropy =     4.5021
   XX=    29.8164   YX=     0.6196   ZX=    -2.6629
   XY=    -0.7092   YY=    31.6792   ZY=     2.1237
   XZ=    -2.8031   YZ=     0.8817   ZZ=    27.2739
   Eigenvalues:    25.2850    30.8933    32.5912
     26  H    Isotropic =    28.1680   Anisotropy =     4.0857
   XX=    30.0506   YX=    -1.9266   ZX=    -0.4203
   XY=    -0.9459   YY=    25.6575   ZY=    -0.9678
   XZ=    -1.4578   YZ=     1.1754   ZZ=    28.7959
   Eigenvalues:    25.2213    28.3909    30.8918
     27  H    Isotropic =    28.5967   Anisotropy =     6.9467
   XX=    30.4645   YX=     4.4663   ZX=     1.5261
   XY=     4.1500   YY=    26.5109   ZY=    -0.3024
   XZ=     0.2244   YZ=    -2.4613   ZZ=    28.8146
   Eigenvalues:    23.2655    29.2967    33.2278
     28  H    Isotropic =    27.6225   Anisotropy =    23.4676
   XX=    37.4379   YX=    10.8750   ZX=     5.4361
   XY=    10.0642   YY=    20.6349   ZY=    -0.9917
   XZ=     4.3512   YZ=    -1.7513   ZZ=    24.7946
   Eigenvalues:    14.4662    25.1337    43.2675
     29  H    Isotropic =    27.9332   Anisotropy =     4.9386
   XX=    28.5897   YX=    -1.2819   ZX=     0.4863
   XY=     0.3580   YY=    30.3360   ZY=     1.7576
   XZ=     1.5011   YZ=     2.9878   ZZ=    24.8740
   Eigenvalues:    23.7410    28.8330    31.2257
     30  H    Isotropic =    28.2884   Anisotropy =     8.1019
   XX=    27.7194   YX=    -0.4981   ZX=    -2.0733
   XY=    -0.0946   YY=    23.8252   ZY=     0.0313
   XZ=    -0.5224   YZ=    -2.0103   ZZ=    33.3207
   Eigenvalues:    23.6760    27.4996    33.6897
     31  H    Isotropic =    29.8014   Anisotropy =     4.8285
   XX=    32.7770   YX=    -0.1275   ZX=     0.0693
   XY=    -1.8606   YY=    27.6023   ZY=    -0.7907
   XZ=    -1.4942   YZ=    -1.8071   ZZ=    29.0249
   Eigenvalues:    26.5925    29.7913    33.0204
     32  C    Isotropic =   172.8091   Anisotropy =    27.1828
   XX=   167.4745   YX=     6.7291   ZX=    -3.6370
   XY=     6.7597   YY=   167.3021   ZY=   -10.4654
   XZ=     0.1255   YZ=   -13.4295   ZZ=   183.6506
   Eigenvalues:   157.9888   169.5074   190.9309
     33  H    Isotropic =    31.5690   Anisotropy =     7.9627
   XX=    31.3938   YX=    -0.5145   ZX=    -4.6079
   XY=    -0.4150   YY=    30.8176   ZY=     0.2154
   XZ=    -4.9703   YZ=     1.1645   ZZ=    32.4955
   Eigenvalues:    27.1205    30.7090    36.8775
     34  H    Isotropic =    31.2358   Anisotropy =    10.8018
   XX=    29.9241   YX=     5.3154   ZX=    -0.7694
   XY=     4.5707   YY=    34.9120   ZY=    -1.1938
   XZ=    -1.5677   YZ=    -2.4125   ZZ=    28.8713
   Eigenvalues:    26.8798    28.3905    38.4370
     35  H    Isotropic =    31.5582   Anisotropy =     8.5748
   XX=    31.4276   YX=    -0.5480   ZX=     1.7621
   XY=    -1.1469   YY=    29.7848   ZY=    -4.0045
   XZ=     2.5911   YZ=    -4.7704   ZZ=    33.4624
   Eigenvalues:    26.8051    30.5949    37.2748
     36  H    Isotropic =    30.2782   Anisotropy =    11.0631
   XX=    30.4419   YX=     2.6122   ZX=    -4.7484
   XY=     4.2994   YY=    35.9545   ZY=     1.2825
   XZ=    -5.6428   YZ=     2.4186   ZZ=    24.4382
   Eigenvalues:    20.6964    32.4845    37.6536
 End of Minotr F.D. properties file   721 does not exist.
 End of Minotr F.D. properties file   722 does not exist.
 End of Minotr F.D. properties file   788 does not exist.

 **********************************************************************

            Population analysis using the SCF density.

 **********************************************************************

 Orbital symmetries:
       Occupied  (A) (A) (A) (A) (A) (A) (A) (A) (A) (A) (A) (A)
                 (A) (A) (A) (A) (A) (A) (A) (A) (A) (A) (A) (A)
                 (A) (A) (A) (A) (A) (A) (A) (A) (A) (A) (A) (A)
                 (A) (A) (A) (A) (A) (A) (A) (A) (A) (A) (A) (A)
                 (A) (A) (A) (A) (A) (A) (A) (A) (A) (A) (A) (A)
                 (A) (A) (A) (A) (A)
       Virtual   (A) (A) (A) (A) (A) (A) (A) (A) (A) (A) (A) (A)
                 (A) (A) (A) (A) (A) (A) (A) (A) (A) (A) (A) (A)
                 (A) (A) (A) (A) (A) (A) (A) (A) (A) (A) (A) (A)
                 (A) (A) (A) (A) (A) (A) (A) (A) (A) (A) (A) (A)
                 (A) (A) (A) (A) (A) (A) (A) (A) (A) (A) (A) (A)
                 (A) (A) (A) (A) (A) (A) (A) (A) (A) (A) (A) (A)
                 (A) (A) (A) (A) (A) (A) (A) (A) (A) (A) (A) (A)
                 (A) (A) (A) (A) (A) (A) (A) (A) (A) (A) (A) (A)
                 (A) (A) (A) (A) (A) (A) (A) (A) (A) (A) (A) (A)
                 (A) (A) (A) (A) (A) (A) (A) (A) (A) (A) (A) (A)
                 (A) (A) (A) (A) (A) (A) (A) (A) (A) (A) (A) (A)
                 (A) (A) (A) (A) (A) (A) (A) (A) (A) (A) (A) (A)
                 (A) (A) (A) (A) (A) (A) (A) (A) (A) (A) (A) (A)
                 (A) (A) (A) (A) (A) (A) (A) (A) (A) (A) (A) (A)
                 (A) (A) (A) (A) (A) (A) (A) (A) (A) (A) (A) (A)
                 (A) (A) (A) (A) (A) (A) (A) (A) (A) (A) (A) (A)
                 (A) (A) (A) (A) (A) (A) (A) (A) (A) (A) (A) (A)
                 (A) (A) (A) (A) (A) (A) (A) (A) (A) (A) (A) (A)
                 (A) (A) (A) (A) (A) (A) (A) (A) (A) (A) (A) (A)
                 (A) (A) (A) (A) (A) (A) (A) (A) (A) (A) (A) (A)
                 (A) (A) (A) (A) (A) (A) (A) (A) (A) (A) (A) (A)
                 (A) (A) (A) (A) (A) (A) (A) (A) (A) (A) (A) (A)
                 (A) (A) (A) (A) (A) (A) (A) (A) (A) (A) (A) (A)
                 (A) (A) (A) (A) (A) (A) (A) (A) (A) (A) (A) (A)
                 (A) (A) (A) (A) (A) (A) (A) (A) (A) (A)
 The electronic state is 1-A.
 Alpha  occ. eigenvalues --  -24.81120 -24.80604 -19.17788 -14.39760 -10.34151
 Alpha  occ. eigenvalues --  -10.34037 -10.27407 -10.26892 -10.26647 -10.26279
 Alpha  occ. eigenvalues --  -10.26242 -10.25516 -10.25445 -10.23706 -10.23212
 Alpha  occ. eigenvalues --  -10.22314 -10.22079  -1.28360  -1.27884  -1.02512
 Alpha  occ. eigenvalues --   -0.95181  -0.90745  -0.83321  -0.80557  -0.78935
 Alpha  occ. eigenvalues --   -0.78680  -0.72176  -0.68709  -0.68163  -0.66336
 Alpha  occ. eigenvalues --   -0.64315  -0.63037  -0.59536  -0.57663  -0.56155
 Alpha  occ. eigenvalues --   -0.52625  -0.52291  -0.52011  -0.51083  -0.50492
 Alpha  occ. eigenvalues --   -0.49891  -0.49098  -0.47414  -0.46959  -0.46129
 Alpha  occ. eigenvalues --   -0.44483  -0.42934  -0.42579  -0.42196  -0.41799
 Alpha  occ. eigenvalues --   -0.40742  -0.40100  -0.39663  -0.38738  -0.38233
 Alpha  occ. eigenvalues --   -0.37954  -0.37036  -0.35399  -0.34582  -0.32898
 Alpha  occ. eigenvalues --   -0.32633  -0.27949  -0.27100  -0.26520  -0.25398
 Alpha virt. eigenvalues --   -0.02420  -0.01257   0.05122   0.05724   0.06228
 Alpha virt. eigenvalues --    0.07162   0.08132   0.09926   0.10191   0.10759
 Alpha virt. eigenvalues --    0.11430   0.11804   0.12083   0.12622   0.13181
 Alpha virt. eigenvalues --    0.13667   0.14468   0.14925   0.15559   0.16618
 Alpha virt. eigenvalues --    0.17050   0.18179   0.18539   0.19636   0.19937
 Alpha virt. eigenvalues --    0.21648   0.22622   0.23573   0.23963   0.24181
 Alpha virt. eigenvalues --    0.25350   0.26018   0.27296   0.27319   0.28289
 Alpha virt. eigenvalues --    0.31284   0.32183   0.32649   0.34522   0.35172
 Alpha virt. eigenvalues --    0.35973   0.36354   0.36936   0.38409   0.39281
 Alpha virt. eigenvalues --    0.40063   0.40960   0.41270   0.41658   0.42280
 Alpha virt. eigenvalues --    0.42815   0.43990   0.45019   0.46249   0.46407
 Alpha virt. eigenvalues --    0.46689   0.47819   0.49434   0.50328   0.51656
 Alpha virt. eigenvalues --    0.52091   0.53573   0.54198   0.55173   0.55738
 Alpha virt. eigenvalues --    0.55884   0.57261   0.57862   0.58489   0.59015
 Alpha virt. eigenvalues --    0.59471   0.59909   0.60204   0.60968   0.62053
 Alpha virt. eigenvalues --    0.62256   0.62749   0.63579   0.63829   0.64372
 Alpha virt. eigenvalues --    0.64893   0.66072   0.66305   0.66441   0.67598
 Alpha virt. eigenvalues --    0.68147   0.69419   0.70347   0.70632   0.71589
 Alpha virt. eigenvalues --    0.72745   0.73965   0.74376   0.75815   0.78187
 Alpha virt. eigenvalues --    0.78389   0.79262   0.80878   0.82057   0.85475
 Alpha virt. eigenvalues --    0.87944   0.89190   0.91732   0.92379   0.94026
 Alpha virt. eigenvalues --    0.95836   0.96110   0.97652   0.99859   1.00126
 Alpha virt. eigenvalues --    1.02193   1.04453   1.05695   1.06396   1.07129
 Alpha virt. eigenvalues --    1.08527   1.09444   1.10042   1.13760   1.15612
 Alpha virt. eigenvalues --    1.17067   1.18465   1.20311   1.21138   1.23960
 Alpha virt. eigenvalues --    1.24875   1.28057   1.28380   1.29394   1.30911
 Alpha virt. eigenvalues --    1.33836   1.34815   1.36399   1.40989   1.42443
 Alpha virt. eigenvalues --    1.44398   1.45655   1.47204   1.48494   1.49878
 Alpha virt. eigenvalues --    1.51545   1.52125   1.52989   1.54006   1.55122
 Alpha virt. eigenvalues --    1.55406   1.57552   1.59121   1.59518   1.61609
 Alpha virt. eigenvalues --    1.62922   1.63731   1.64817   1.65604   1.66719
 Alpha virt. eigenvalues --    1.68173   1.68773   1.70276   1.70890   1.73576
 Alpha virt. eigenvalues --    1.74338   1.75466   1.78250   1.79581   1.80552
 Alpha virt. eigenvalues --    1.81936   1.83161   1.86447   1.87645   1.89150
 Alpha virt. eigenvalues --    1.89373   1.90436   1.91625   1.95430   1.95885
 Alpha virt. eigenvalues --    1.96599   1.98057   1.99474   2.01128   2.02876
 Alpha virt. eigenvalues --    2.04041   2.12512   2.16305   2.18358   2.20802
 Alpha virt. eigenvalues --    2.22224   2.24877   2.26163   2.27152   2.28636
 Alpha virt. eigenvalues --    2.31058   2.32873   2.34228   2.40109   2.40963
 Alpha virt. eigenvalues --    2.42475   2.43147   2.43742   2.44651   2.46465
 Alpha virt. eigenvalues --    2.48301   2.50128   2.51726   2.52271   2.53748
 Alpha virt. eigenvalues --    2.55024   2.56648   2.58417   2.62899   2.65527
 Alpha virt. eigenvalues --    2.67280   2.69298   2.69454   2.72615   2.75393
 Alpha virt. eigenvalues --    2.76976   2.84280   2.84990   2.86616   2.88805
 Alpha virt. eigenvalues --    2.91597   2.94360   2.98764   3.00593   3.04818
 Alpha virt. eigenvalues --    3.06418   3.07675   3.09949   3.09985   3.11968
 Alpha virt. eigenvalues --    3.14487   3.15990   3.17075   3.20245   3.21470
 Alpha virt. eigenvalues --    3.24083   3.26104   3.27410   3.28356   3.28982
 Alpha virt. eigenvalues --    3.29785   3.31777   3.35492   3.38893   3.40046
 Alpha virt. eigenvalues --    3.44924   3.47743   3.49591   3.59466   3.65245
 Alpha virt. eigenvalues --    3.72764   3.79133   3.79379   3.79712   3.80583
 Alpha virt. eigenvalues --    3.86408   3.89052   3.96138   3.96494   3.99348
 Alpha virt. eigenvalues --    4.00017   4.07287   4.08067   4.12033   4.12604
 Alpha virt. eigenvalues --    4.18011   4.21751   4.45443   4.75010   4.76640
 Alpha virt. eigenvalues --    4.78003   4.80510   4.95083   5.07682   5.45906
 Alpha virt. eigenvalues --    6.13329   6.14846   6.31110   6.32258   6.56306
 Alpha virt. eigenvalues --    6.59421  23.29734  23.46519  23.58985  23.69207
 Alpha virt. eigenvalues --   23.72783  23.78391  23.83464  23.84326  23.86723
 Alpha virt. eigenvalues --   23.89965  24.08556  24.10722  24.19147  35.57312
 Alpha virt. eigenvalues --   50.00537  66.89080  66.89818
          Condensed to atoms (all electrons):
               1          2          3          4          5          6
     1  C    5.350566   0.307665  -0.071831   0.008291  -0.000199   0.000019
     2  C    0.307665   5.359276   0.295078  -0.060331  -0.008196  -0.002611
     3  C   -0.071831   0.295078   5.424366   0.294167  -0.061858   0.006082
     4  C    0.008291  -0.060331   0.294167   5.420102   0.317904  -0.044081
     5  C   -0.000199  -0.008196  -0.061858   0.317904   5.065611   0.248145
     6  O    0.000019  -0.002611   0.006082  -0.044081   0.248145   8.244443
     7  N    0.000950  -0.051289   0.207785  -0.057370   0.005805  -0.034963
     8  C   -0.000681   0.009072  -0.089664  -0.005227   0.000064   0.003703
     9  C   -0.000016   0.000002   0.000044  -0.000001   0.000000   0.000000
    10  C   -0.000003   0.000004  -0.000323  -0.000005   0.000000   0.000000
    11  C    0.000000   0.000094  -0.001809   0.000347  -0.000007  -0.000006
    12  C    0.000796  -0.000539  -0.015157   0.000681  -0.000048   0.000298
    13  C    0.000171  -0.000036   0.000693   0.000117  -0.000002   0.000000
    14  C    0.000010  -0.000005  -0.000050   0.000008   0.000000   0.000000
    15  H    0.000000   0.000000   0.000000   0.000000   0.000000   0.000000
    16  H    0.000001  -0.000001   0.000001   0.000002   0.000000   0.000000
    17  H    0.000013  -0.000002   0.000003   0.000000   0.000000   0.000000
    18  F    0.000000   0.000006   0.000154  -0.000085   0.000015   0.000000
    19  F   -0.000261  -0.000063  -0.000107  -0.000002   0.000000   0.000000
    20  H    0.393902  -0.037223   0.007740  -0.000182   0.000005   0.000002
    21  H    0.385759  -0.043108  -0.004471  -0.000213   0.000006  -0.000002
    22  H    0.383794  -0.038044  -0.006299  -0.000145  -0.000029  -0.000013
    23  H   -0.041590   0.400577  -0.044691  -0.004731  -0.000657  -0.000102
    24  H   -0.046031   0.388662  -0.036217  -0.010704   0.003428   0.001871
    25  H   -0.000216   0.008246  -0.067602   0.412112  -0.048891   0.006209
    26  H    0.000313   0.009099  -0.022338  -0.036601   0.378684  -0.042487
    27  H    0.000011  -0.000640   0.010020  -0.037497   0.392299  -0.029794
    28  H   -0.000208  -0.000923   0.002624  -0.008994  -0.055258   0.258716
    29  H    0.000005   0.000009  -0.011600   0.005153  -0.000359   0.003893
    30  H    0.000054  -0.000293   0.007629  -0.000043  -0.000047   0.000357
    31  H   -0.011736  -0.040054   0.410059  -0.066736   0.007356  -0.000564
    32  C    0.000024  -0.007361  -0.073836   0.290755  -0.076274   0.005581
    33  H    0.000140   0.002585  -0.010083  -0.037547  -0.006008   0.000011
    34  H    0.000015   0.000016   0.008458  -0.035325  -0.003862  -0.000043
    35  H   -0.000220  -0.000175  -0.002728  -0.035221   0.006768  -0.000239
    36  H    0.006579  -0.013606  -0.053353   0.006538  -0.000077   0.000425
               7          8          9         10         11         12
     1  C    0.000950  -0.000681  -0.000016  -0.000003   0.000000   0.000796
     2  C   -0.051289   0.009072   0.000002   0.000004   0.000094  -0.000539
     3  C    0.207785  -0.089664   0.000044  -0.000323  -0.001809  -0.015157
     4  C   -0.057370  -0.005227  -0.000001  -0.000005   0.000347   0.000681
     5  C    0.005805   0.000064   0.000000   0.000000  -0.000007  -0.000048
     6  O   -0.034963   0.003703   0.000000   0.000000  -0.000006   0.000298
     7  N    7.042302   0.269183  -0.000043  -0.000093   0.002685  -0.068775
     8  C    0.269183   5.390488  -0.001569   0.010928  -0.068332   0.212233
     9  C   -0.000043  -0.001569   5.060551   0.431107  -0.001318  -0.060032
    10  C   -0.000093   0.010928   0.431107   5.207494   0.465397  -0.032761
    11  C    0.002685  -0.068332  -0.001318   0.465397   4.714354   0.294705
    12  C   -0.068775   0.212233  -0.060032  -0.032761   0.294705   5.888769
    13  C   -0.000859  -0.087604  -0.004008  -0.061990   0.051702   0.236508
    14  C    0.000593   0.008417   0.433669  -0.035535  -0.064261  -0.029654
    15  H   -0.000001   0.000027   0.405419  -0.040708   0.006112  -0.002110
    16  H    0.000013  -0.000270  -0.041602   0.391847  -0.048286   0.012280
    17  H    0.000043  -0.000314  -0.040633   0.007055  -0.001258   0.012476
    18  F   -0.000024  -0.006083   0.005634  -0.056065   0.313654  -0.074999
    19  F   -0.004368   0.007846   0.005479  -0.000573   0.004515  -0.086309
    20  H    0.000130   0.000033   0.000000   0.000000   0.000001  -0.000006
    21  H   -0.000159  -0.000149   0.000033   0.000008  -0.000074   0.000327
    22  H    0.000653  -0.000401   0.000003   0.000010   0.000000   0.000080
    23  H    0.004556  -0.000474   0.000000   0.000000   0.000009   0.000090
    24  H    0.000684  -0.000209   0.000000   0.000000  -0.000009   0.000062
    25  H   -0.001474   0.000828  -0.000005  -0.000002  -0.000292  -0.000354
    26  H    0.000772   0.000126   0.000000   0.000000  -0.000002   0.000036
    27  H   -0.000660  -0.000053   0.000000   0.000000   0.000002  -0.000012
    28  H    0.053691  -0.005310   0.000000   0.000002  -0.000052   0.001343
    29  H   -0.025875   0.397746  -0.000220   0.001079  -0.009813  -0.049496
    30  H   -0.034589   0.409469  -0.000077  -0.000108   0.003800  -0.056014
    31  H   -0.046635  -0.007493   0.000021  -0.000340  -0.001442   0.004669
    32  C    0.005180  -0.000147   0.000000  -0.000006  -0.000037   0.000310
    33  H   -0.000028  -0.000025   0.000000   0.000000   0.000001   0.000008
    34  H   -0.000201  -0.000004   0.000000   0.000000   0.000001  -0.000006
    35  H   -0.000010   0.000131  -0.000002   0.000009   0.000013  -0.000018
    36  H    0.342556  -0.049290  -0.000150   0.000139  -0.000781  -0.009779
              13         14         15         16         17         18
     1  C    0.000171   0.000010   0.000000   0.000001   0.000013   0.000000
     2  C   -0.000036  -0.000005   0.000000  -0.000001  -0.000002   0.000006
     3  C    0.000693  -0.000050   0.000000   0.000001   0.000003   0.000154
     4  C    0.000117   0.000008   0.000000   0.000002   0.000000  -0.000085
     5  C   -0.000002   0.000000   0.000000   0.000000   0.000000   0.000015
     6  O    0.000000   0.000000   0.000000   0.000000   0.000000   0.000000
     7  N   -0.000859   0.000593  -0.000001   0.000013   0.000043  -0.000024
     8  C   -0.087604   0.008417   0.000027  -0.000270  -0.000314  -0.006083
     9  C   -0.004008   0.433669   0.405419  -0.041602  -0.040633   0.005634
    10  C   -0.061990  -0.035535  -0.040708   0.391847   0.007055  -0.056065
    11  C    0.051702  -0.064261   0.006112  -0.048286  -0.001258   0.313654
    12  C    0.236508  -0.029654  -0.002110   0.012280   0.012476  -0.074999
    13  C    4.768107   0.477345   0.006545  -0.001510  -0.051479   0.005226
    14  C    0.477345   5.184419  -0.041730   0.007318   0.393361  -0.000501
    15  H    0.006545  -0.041730   0.444818  -0.006582  -0.006713  -0.000071
    16  H   -0.001510   0.007318  -0.006582   0.449789  -0.000167   0.001281
    17  H   -0.051479   0.393361  -0.006713  -0.000167   0.449301   0.000004
    18  F    0.005226  -0.000501  -0.000071   0.001281   0.000004   9.032040
    19  F    0.313291  -0.053604  -0.000071   0.000004   0.001463  -0.000001
    20  H    0.000027   0.000002   0.000000   0.000000   0.000000   0.000000
    21  H    0.000285   0.000274  -0.000001   0.000000   0.000007  -0.000006
    22  H   -0.000563  -0.000225   0.000000   0.000000   0.000028   0.000000
    23  H    0.000004  -0.000001   0.000000   0.000000   0.000000  -0.000001
    24  H   -0.000025  -0.000001   0.000000   0.000000   0.000000   0.000000
    25  H    0.000051   0.000005   0.000000   0.000000   0.000000   0.003271
    26  H    0.000001   0.000000   0.000000   0.000000   0.000000   0.000000
    27  H    0.000000   0.000000   0.000000   0.000000   0.000000  -0.000001
    28  H   -0.000096  -0.000002   0.000000   0.000000   0.000000  -0.000013
    29  H    0.006456   0.000096   0.000003  -0.000038   0.000010   0.009501
    30  H   -0.008840   0.000378   0.000001   0.000016  -0.000007   0.000182
    31  H    0.000089  -0.000454   0.000005  -0.000060  -0.000019   0.001713
    32  C    0.000004   0.000000   0.000000   0.000001   0.000000  -0.000163
    33  H    0.000000   0.000000   0.000000   0.000000   0.000000  -0.000003
    34  H    0.000000   0.000000   0.000000   0.000000   0.000000  -0.000016
    35  H   -0.000001   0.000001   0.000000   0.000002   0.000000   0.000296
    36  H    0.002689   0.000872   0.000003  -0.000001  -0.000006  -0.000049
              19         20         21         22         23         24
     1  C   -0.000261   0.393902   0.385759   0.383794  -0.041590  -0.046031
     2  C   -0.000063  -0.037223  -0.043108  -0.038044   0.400577   0.388662
     3  C   -0.000107   0.007740  -0.004471  -0.006299  -0.044691  -0.036217
     4  C   -0.000002  -0.000182  -0.000213  -0.000145  -0.004731  -0.010704
     5  C    0.000000   0.000005   0.000006  -0.000029  -0.000657   0.003428
     6  O    0.000000   0.000002  -0.000002  -0.000013  -0.000102   0.001871
     7  N   -0.004368   0.000130  -0.000159   0.000653   0.004556   0.000684
     8  C    0.007846   0.000033  -0.000149  -0.000401  -0.000474  -0.000209
     9  C    0.005479   0.000000   0.000033   0.000003   0.000000   0.000000
    10  C   -0.000573   0.000000   0.000008   0.000010   0.000000   0.000000
    11  C    0.004515   0.000001  -0.000074   0.000000   0.000009  -0.000009
    12  C   -0.086309  -0.000006   0.000327   0.000080   0.000090   0.000062
    13  C    0.313291   0.000027   0.000285  -0.000563   0.000004  -0.000025
    14  C   -0.053604   0.000002   0.000274  -0.000225  -0.000001  -0.000001
    15  H   -0.000071   0.000000  -0.000001   0.000000   0.000000   0.000000
    16  H    0.000004   0.000000   0.000000   0.000000   0.000000   0.000000
    17  H    0.001463   0.000000   0.000007   0.000028   0.000000   0.000000
    18  F   -0.000001   0.000000  -0.000006   0.000000  -0.000001   0.000000
    19  F    9.031715  -0.000005  -0.000141   0.002242  -0.000002  -0.000012
    20  H   -0.000005   0.465257  -0.026571  -0.026054  -0.006169  -0.003826
    21  H   -0.000141  -0.026571   0.480007  -0.028549  -0.004382   0.007508
    22  H    0.002242  -0.026054  -0.028549   0.486143   0.007339  -0.006506
    23  H   -0.000002  -0.006169  -0.004382   0.007339   0.472805  -0.028153
    24  H   -0.000012  -0.003826   0.007508  -0.006506  -0.028153   0.487663
    25  H   -0.000002   0.000018  -0.000046   0.000013   0.000260  -0.000654
    26  H    0.000000   0.000023  -0.000024   0.000044   0.000367  -0.005260
    27  H    0.000000  -0.000001   0.000002  -0.000003  -0.000166   0.000391
    28  H   -0.000015  -0.000018   0.000016  -0.000020   0.000031   0.002613
    29  H    0.000197   0.000003   0.000004  -0.000025  -0.000011  -0.000072
    30  H    0.003258  -0.000001   0.000015   0.000002   0.000015  -0.000014
    31  H    0.000126  -0.000314   0.006233  -0.000396  -0.001780   0.008449
    32  C    0.000000  -0.000003   0.000038  -0.000017   0.000538   0.000550
    33  H    0.000000   0.000027   0.000038  -0.000014   0.001550   0.000011
    34  H    0.000000  -0.000001  -0.000005   0.000002   0.000236  -0.000063
    35  H    0.000000   0.000002   0.000005   0.000007   0.000307   0.000061
    36  H    0.011550  -0.000205  -0.000505   0.005201   0.000480   0.000017
              25         26         27         28         29         30
     1  C   -0.000216   0.000313   0.000011  -0.000208   0.000005   0.000054
     2  C    0.008246   0.009099  -0.000640  -0.000923   0.000009  -0.000293
     3  C   -0.067602  -0.022338   0.010020   0.002624  -0.011600   0.007629
     4  C    0.412112  -0.036601  -0.037497  -0.008994   0.005153  -0.000043
     5  C   -0.048891   0.378684   0.392299  -0.055258  -0.000359  -0.000047
     6  O    0.006209  -0.042487  -0.029794   0.258716   0.003893   0.000357
     7  N   -0.001474   0.000772  -0.000660   0.053691  -0.025875  -0.034589
     8  C    0.000828   0.000126  -0.000053  -0.005310   0.397746   0.409469
     9  C   -0.000005   0.000000   0.000000   0.000000  -0.000220  -0.000077
    10  C   -0.000002   0.000000   0.000000   0.000002   0.001079  -0.000108
    11  C   -0.000292  -0.000002   0.000002  -0.000052  -0.009813   0.003800
    12  C   -0.000354   0.000036  -0.000012   0.001343  -0.049496  -0.056014
    13  C    0.000051   0.000001   0.000000  -0.000096   0.006456  -0.008840
    14  C    0.000005   0.000000   0.000000  -0.000002   0.000096   0.000378
    15  H    0.000000   0.000000   0.000000   0.000000   0.000003   0.000001
    16  H    0.000000   0.000000   0.000000   0.000000  -0.000038   0.000016
    17  H    0.000000   0.000000   0.000000   0.000000   0.000010  -0.000007
    18  F    0.003271   0.000000  -0.000001  -0.000013   0.009501   0.000182
    19  F   -0.000002   0.000000   0.000000  -0.000015   0.000197   0.003258
    20  H    0.000018   0.000023  -0.000001  -0.000018   0.000003  -0.000001
    21  H   -0.000046  -0.000024   0.000002   0.000016   0.000004   0.000015
    22  H    0.000013   0.000044  -0.000003  -0.000020  -0.000025   0.000002
    23  H    0.000260   0.000367  -0.000166   0.000031  -0.000011   0.000015
    24  H   -0.000654  -0.005260   0.000391   0.002613  -0.000072  -0.000014
    25  H    0.504528   0.009838  -0.011172  -0.001346   0.003337   0.000231
    26  H    0.009838   0.552714  -0.047697  -0.003384   0.000167   0.000013
    27  H   -0.011172  -0.047697   0.505745   0.005697  -0.000045   0.000001
    28  H   -0.001346  -0.003384   0.005697   0.343284  -0.002383  -0.001305
    29  H    0.003337   0.000167  -0.000045  -0.002383   0.420173  -0.023351
    30  H    0.000231   0.000013   0.000001  -0.001305  -0.023351   0.442137
    31  H   -0.006402  -0.000652  -0.000175   0.002192  -0.001815  -0.000270
    32  C   -0.037890   0.001034  -0.004209  -0.001253   0.000362   0.000011
    33  H    0.008058   0.005376  -0.001488  -0.000038  -0.000005   0.000002
    34  H   -0.008502  -0.001136   0.005298  -0.000044   0.000039  -0.000002
    35  H   -0.004024  -0.000462  -0.000096   0.000142  -0.000072  -0.000005
    36  H   -0.000649  -0.000247   0.000061  -0.000047   0.005838  -0.006948
              31         32         33         34         35         36
     1  C   -0.011736   0.000024   0.000140   0.000015  -0.000220   0.006579
     2  C   -0.040054  -0.007361   0.002585   0.000016  -0.000175  -0.013606
     3  C    0.410059  -0.073836  -0.010083   0.008458  -0.002728  -0.053353
     4  C   -0.066736   0.290755  -0.037547  -0.035325  -0.035221   0.006538
     5  C    0.007356  -0.076274  -0.006008  -0.003862   0.006768  -0.000077
     6  O   -0.000564   0.005581   0.000011  -0.000043  -0.000239   0.000425
     7  N   -0.046635   0.005180  -0.000028  -0.000201  -0.000010   0.342556
     8  C   -0.007493  -0.000147  -0.000025  -0.000004   0.000131  -0.049290
     9  C    0.000021   0.000000   0.000000   0.000000  -0.000002  -0.000150
    10  C   -0.000340  -0.000006   0.000000   0.000000   0.000009   0.000139
    11  C   -0.001442  -0.000037   0.000001   0.000001   0.000013  -0.000781
    12  C    0.004669   0.000310   0.000008  -0.000006  -0.000018  -0.009779
    13  C    0.000089   0.000004   0.000000   0.000000  -0.000001   0.002689
    14  C   -0.000454   0.000000   0.000000   0.000000   0.000001   0.000872
    15  H    0.000005   0.000000   0.000000   0.000000   0.000000   0.000003
    16  H   -0.000060   0.000001   0.000000   0.000000   0.000002  -0.000001
    17  H   -0.000019   0.000000   0.000000   0.000000   0.000000  -0.000006
    18  F    0.001713  -0.000163  -0.000003  -0.000016   0.000296  -0.000049
    19  F    0.000126   0.000000   0.000000   0.000000   0.000000   0.011550
    20  H   -0.000314  -0.000003   0.000027  -0.000001   0.000002  -0.000205
    21  H    0.006233   0.000038   0.000038  -0.000005   0.000005  -0.000505
    22  H   -0.000396  -0.000017  -0.000014   0.000002   0.000007   0.005201
    23  H   -0.001780   0.000538   0.001550   0.000236   0.000307   0.000480
    24  H    0.008449   0.000550   0.000011  -0.000063   0.000061   0.000017
    25  H   -0.006402  -0.037890   0.008058  -0.008502  -0.004024  -0.000649
    26  H   -0.000652   0.001034   0.005376  -0.001136  -0.000462  -0.000247
    27  H   -0.000175  -0.004209  -0.001488   0.005298  -0.000096   0.000061
    28  H    0.002192  -0.001253  -0.000038  -0.000044   0.000142  -0.000047
    29  H   -0.001815   0.000362  -0.000005   0.000039  -0.000072   0.005838
    30  H   -0.000270   0.000011   0.000002  -0.000002  -0.000005  -0.006948
    31  H    0.505398  -0.003268  -0.000474  -0.000297   0.005463   0.001552
    32  C   -0.003268   5.410274   0.386634   0.389051   0.380520  -0.000247
    33  H   -0.000474   0.386634   0.481273  -0.029272  -0.027636  -0.000020
    34  H   -0.000297   0.389051  -0.029272   0.467402  -0.025314   0.000027
    35  H    0.005463   0.380520  -0.027636  -0.025314   0.472569  -0.000029
    36  H    0.001552  -0.000247  -0.000020   0.000027  -0.000029   0.401878
 Mulliken charges:
               1
     1  C   -0.666084
     2  C   -0.475888
     3  C   -0.100886
     4  C   -0.315135
     5  C   -0.164317
     6  O   -0.624851
     7  N   -0.610166
     8  C   -0.396997
     9  C   -0.192289
    10  C   -0.286570
    11  C    0.340390
    12  C   -0.179599
    13  C    0.347704
    14  C   -0.280746
    15  H    0.235054
    16  H    0.235962
    17  H    0.236833
    18  F   -0.234896
    19  F   -0.236148
    20  H    0.233409
    21  H    0.227839
    22  H    0.221746
    23  H    0.243745
    24  H    0.235788
    25  H    0.232517
    26  H    0.201681
    27  H    0.214182
    28  H    0.410358
    29  H    0.271110
    30  H    0.264344
    31  H    0.238048
    32  C   -0.666154
    33  H    0.226928
    34  H    0.233550
    35  H    0.229955
    36  H    0.349584
 Sum of Mulliken charges =   0.00000
 Mulliken charges with hydrogens summed into heavy atoms:
               1
     1  C    0.016909
     2  C    0.003645
     3  C    0.137162
     4  C   -0.082618
     5  C    0.251546
     6  O   -0.214493
     7  N   -0.260581
     8  C    0.138457
     9  C    0.042766
    10  C   -0.050608
    11  C    0.340390
    12  C   -0.179599
    13  C    0.347704
    14  C   -0.043912
    18  F   -0.234896
    19  F   -0.236148
    32  C    0.024279
 Electronic spatial extent (au):  <R**2>=           4475.3691
 Charge=              0.0000 electrons
 Dipole moment (field-independent basis, Debye):
    X=              4.1346    Y=              0.5516    Z=              3.6887  Tot=              5.5683
 Quadrupole moment (field-independent basis, Debye-Ang):
   XX=           -100.1721   YY=           -100.8348   ZZ=           -107.3123
   XY=             -0.7951   XZ=             -6.9342   YZ=             -0.3885
 Traceless Quadrupole moment (field-independent basis, Debye-Ang):
   XX=              2.6010   YY=              1.9383   ZZ=             -4.5392
   XY=             -0.7951   XZ=             -6.9342   YZ=             -0.3885
 Octapole moment (field-independent basis, Debye-Ang**2):
  XXX=             90.7226  YYY=              1.6654  ZZZ=             -4.5550  XYY=             -0.5882
  XXY=             -3.8019  XXZ=             59.5970  XZZ=             27.4673  YZZ=             -0.5247
  YYZ=              0.1170  XYZ=             -5.7433
 Hexadecapole moment (field-independent basis, Debye-Ang**3):
 XXXX=          -3625.9612 YYYY=          -1217.7472 ZZZZ=           -857.9218 XXXY=             43.8979
 XXXZ=             -9.1019 YYYX=              1.3758 YYYZ=            -19.6007 ZZZX=            -56.1873
 ZZZY=            -18.7877 XXYY=           -779.7728 XXZZ=           -855.9009 YYZZ=           -338.5271
 XXYZ=            -20.0106 YYXZ=             19.3289 ZZXY=            -20.4050
 N-N= 1.305255248281D+03 E-N=-4.568007241914D+03  KE= 8.333282307744D+02
 1\1\GINC-CPU-E-904\SP\RmPW1PW91\6-311G(d)\C13H19F2N1O1\AH809\04-Mar-20
 19\0\\# mPW1PW91/6-311g(d) nmr=giao scrf=(solvent=chloroform)\\AT3_2gi
 np003\\0,1\C,0,-3.116552,-1.504203,-0.481692\C,0,-2.5487,-1.220708,0.9
 06923\C,0,-3.630995,-1.123491,2.012336\C,0,-3.021504,-1.132715,3.45226
 3\C,0,-2.071047,0.041949,3.738845\O,0,-2.740801,1.292803,3.648307\N,0,
 -4.441435,0.093746,1.78463\C,0,-5.765513,0.068556,2.430718\C,0,-8.5289
 75,-2.784402,0.728236\C,0,-8.069734,-2.944735,2.034525\C,0,-7.177359,-
 2.019506,2.575323\C,0,-6.724017,-0.924883,1.837525\C,0,-7.197237,-0.78
 3243,0.531582\C,0,-8.089316,-1.698104,-0.026107\H,0,-9.224974,-3.50184
 4,0.300889\H,0,-8.39974,-3.785015,2.638441\H,0,-8.434339,-1.555694,-1.
 046007\F,0,-6.747849,-2.204189,3.831782\F,0,-6.783111,0.248643,-0.2181
 86\H,0,-2.299006,-1.676303,-1.18956\H,0,-3.747364,-2.398714,-0.472087\
 H,0,-3.707387,-0.667253,-0.863666\H,0,-1.850773,-2.031823,1.137909\H,0
 ,-1.956297,-0.298898,0.863191\H,0,-3.855064,-1.057523,4.162108\H,0,-1.
 221412,0.054135,3.049317\H,0,-1.666153,-0.034574,4.753526\H,0,-3.34753
 ,1.220993,2.87957\H,0,-5.669936,-0.068747,3.512762\H,0,-6.207645,1.066
 868,2.317922\H,0,-4.262307,-2.014657,1.908348\C,0,-2.31481,-2.456504,3
 .765861\H,0,-1.37448,-2.562438,3.216757\H,0,-2.075722,-2.515646,4.8335
 66\H,0,-2.956301,-3.310055,3.523621\H,0,-4.600577,0.234478,0.785399\\V
 ersion=ES64L-G09RevD.01\State=1-A\HF=-836.466752\RMSD=7.028e-09\Dipole
 =-0.9848842,-1.5812391,-1.1528143\Quadrupole=4.5673296,-4.1936987,-0.3
 73631,-2.2240367,-0.552735,-3.3269559\PG=C01 [X(C13H19F2N1O1)]\\@


 THE ONLY DIFFERENCE BETWEEN ECCENTRICS AND JOGGERS
 IS THAT JOGGERS WEAR SWEATBANDS WHEN THEY RUN IN THE RAIN.
 Job cpu time:       0 days  0 hours 17 minutes 54.2 seconds.
 File lengths (MBytes):  RWF=    183 Int=      0 D2E=      0 Chk=     10 Scr=      1
 Normal termination of Gaussian 09 at Mon Mar  4 11:29:54 2019.
