 Entering Gaussian System, Link 0=/usr/local/Cluster-Apps/gaussian/g09/g09
 Initial command:
 /usr/local/Cluster-Apps/gaussian/g09/l1.exe "/home/ah809/rds/hpc-work/04Mar1111AT3/Gau-88910.inp" -scrdir="/home/ah809/rds/hpc-work/04Mar1111AT3/"
 Entering Link 1 = /usr/local/Cluster-Apps/gaussian/g09/l1.exe PID=     88915.
  
 Copyright (c) 1988,1990,1992,1993,1995,1998,2003,2009,2013,
            Gaussian, Inc.  All Rights Reserved.
  
 This is part of the Gaussian(R) 09 program.  It is based on
 the Gaussian(R) 03 system (copyright 2003, Gaussian, Inc.),
 the Gaussian(R) 98 system (copyright 1998, Gaussian, Inc.),
 the Gaussian(R) 94 system (copyright 1995, Gaussian, Inc.),
 the Gaussian 92(TM) system (copyright 1992, Gaussian, Inc.),
 the Gaussian 90(TM) system (copyright 1990, Gaussian, Inc.),
 the Gaussian 88(TM) system (copyright 1988, Gaussian, Inc.),
 the Gaussian 86(TM) system (copyright 1986, Carnegie Mellon
 University), and the Gaussian 82(TM) system (copyright 1983,
 Carnegie Mellon University). Gaussian is a federally registered
 trademark of Gaussian, Inc.
  
 This software contains proprietary and confidential information,
 including trade secrets, belonging to Gaussian, Inc.
  
 This software is provided under written license and may be
 used, copied, transmitted, or stored only in accord with that
 written license.
  
 The following legend is applicable only to US Government
 contracts under FAR:
  
                    RESTRICTED RIGHTS LEGEND
  
 Use, reproduction and disclosure by the US Government is
 subject to restrictions as set forth in subparagraphs (a)
 and (c) of the Commercial Computer Software - Restricted
 Rights clause in FAR 52.227-19.
  
 Gaussian, Inc.
 340 Quinnipiac St., Bldg. 40, Wallingford CT 06492
  
  
 ---------------------------------------------------------------
 Warning -- This program may not be used in any manner that
 competes with the business of Gaussian, Inc. or will provide
 assistance to any competitor of Gaussian, Inc.  The licensee
 of this program is prohibited from giving any competitor of
 Gaussian, Inc. access to this program.  By using this program,
 the user acknowledges that Gaussian, Inc. is engaged in the
 business of creating and licensing software in the field of
 computational chemistry and represents and warrants to the
 licensee that it is not a competitor of Gaussian, Inc. and that
 it will not use this program in any manner prohibited above.
 ---------------------------------------------------------------
  

 Cite this work as:
 Gaussian 09, Revision D.01,
 M. J. Frisch, G. W. Trucks, H. B. Schlegel, G. E. Scuseria, 
 M. A. Robb, J. R. Cheeseman, G. Scalmani, V. Barone, B. Mennucci, 
 G. A. Petersson, H. Nakatsuji, M. Caricato, X. Li, H. P. Hratchian, 
 A. F. Izmaylov, J. Bloino, G. Zheng, J. L. Sonnenberg, M. Hada, 
 M. Ehara, K. Toyota, R. Fukuda, J. Hasegawa, M. Ishida, T. Nakajima, 
 Y. Honda, O. Kitao, H. Nakai, T. Vreven, J. A. Montgomery, Jr., 
 J. E. Peralta, F. Ogliaro, M. Bearpark, J. J. Heyd, E. Brothers, 
 K. N. Kudin, V. N. Staroverov, T. Keith, R. Kobayashi, J. Normand, 
 K. Raghavachari, A. Rendell, J. C. Burant, S. S. Iyengar, J. Tomasi, 
 M. Cossi, N. Rega, J. M. Millam, M. Klene, J. E. Knox, J. B. Cross, 
 V. Bakken, C. Adamo, J. Jaramillo, R. Gomperts, R. E. Stratmann, 
 O. Yazyev, A. J. Austin, R. Cammi, C. Pomelli, J. W. Ochterski, 
 R. L. Martin, K. Morokuma, V. G. Zakrzewski, G. A. Voth, 
 P. Salvador, J. J. Dannenberg, S. Dapprich, A. D. Daniels, 
 O. Farkas, J. B. Foresman, J. V. Ortiz, J. Cioslowski, 
 and D. J. Fox, Gaussian, Inc., Wallingford CT, 2013.
 
 ******************************************
 Gaussian 09:  ES64L-G09RevD.01 24-Apr-2013
                 4-Mar-2019 
 ******************************************
 %nprocshared=8
 Will use up to    8 processors via shared memory.
 %mem=6000MB
 %chk=AT3_2ginp010.chk
 -------------------------------------------------------
 # mPW1PW91/6-311g(d) nmr=giao scrf=(solvent=chloroform)
 -------------------------------------------------------
 1/38=1/1;
 2/12=2,17=6,18=5,40=1/2;
 3/5=4,6=6,7=1,11=2,16=1,25=1,30=1,70=2201,72=7,74=-7/1,2,8,3;
 4//1;
 5/5=2,38=5,53=7/2;
 8/6=1,10=90,11=11/1;
 10/13=100,45=16/2;
 6/7=2,8=2,9=2,10=2,28=1/1;
 99/9=1/99;
 ------------
 AT3_2ginp010
 ------------
 Symbolic Z-matrix:
 Charge =  0 Multiplicity = 1
 C                    -2.72684  -2.86295   0.48529 
 C                    -3.60663  -1.63559   0.68333 
 C                    -3.62575  -1.11331   2.13955 
 C                    -2.21161  -0.70891   2.66756 
 C                    -2.261    -0.27243   4.14565 
 O                    -2.90884   0.98174   4.31532 
 N                    -4.55165   0.0325    2.25551 
 C                    -5.85795  -0.30538   2.83979 
 C                    -8.48068  -2.57171   0.26404 
 C                    -8.21096  -1.23247  -0.01207 
 C                    -7.36267  -0.50959   0.82563 
 C                    -6.76743  -1.09415   1.9452 
 C                    -7.05164  -2.43595   2.2037 
 C                    -7.89743  -3.17493   1.37713 
 H                    -9.14119  -3.14195  -0.38428 
 H                    -8.65463  -0.7442   -0.8748 
 H                    -8.09456  -4.21755   1.60891 
 F                    -7.11313   0.77501   0.53336 
 F                    -6.50064  -3.04455   3.26362 
 H                    -2.99357  -3.65568   1.1912 
 H                    -2.85631  -3.25582  -0.5285 
 H                    -1.66684  -2.62521   0.61073 
 H                    -3.28749  -0.84894  -0.01048 
 H                    -4.62119  -1.91203   0.37727 
 H                    -1.57855  -1.60491   2.64226 
 H                    -1.24679  -0.17648   4.54726 
 H                    -2.78723  -1.01657   4.75287 
 H                    -3.65898   0.97583   3.68245 
 H                    -5.71778  -0.80737   3.80526 
 H                    -6.36424   0.63604   3.08884 
 H                    -3.96995  -1.9344    2.78322 
 C                    -1.52264   0.36684   1.8174 
 H                    -2.12425   1.27753   1.73625 
 H                    -0.55778   0.64244   2.25727 
 H                    -1.32026   0.00354   0.8055 
 H                    -4.69772   0.47417   1.34525 
 
                          Input orientation:                          
 ---------------------------------------------------------------------
 Center     Atomic      Atomic             Coordinates (Angstroms)
 Number     Number       Type             X           Y           Z
 ---------------------------------------------------------------------
      1          6           0       -2.726840   -2.862949    0.485290
      2          6           0       -3.606630   -1.635589    0.683332
      3          6           0       -3.625748   -1.113306    2.139553
      4          6           0       -2.211613   -0.708906    2.667555
      5          6           0       -2.261000   -0.272434    4.145646
      6          8           0       -2.908841    0.981738    4.315323
      7          7           0       -4.551649    0.032504    2.255512
      8          6           0       -5.857954   -0.305383    2.839786
      9          6           0       -8.480682   -2.571709    0.264043
     10          6           0       -8.210963   -1.232468   -0.012071
     11          6           0       -7.362670   -0.509593    0.825630
     12          6           0       -6.767426   -1.094146    1.945195
     13          6           0       -7.051643   -2.435948    2.203703
     14          6           0       -7.897431   -3.174933    1.377128
     15          1           0       -9.141195   -3.141950   -0.384280
     16          1           0       -8.654627   -0.744203   -0.874803
     17          1           0       -8.094557   -4.217555    1.608905
     18          9           0       -7.113132    0.775013    0.533358
     19          9           0       -6.500639   -3.044555    3.263615
     20          1           0       -2.993574   -3.655683    1.191204
     21          1           0       -2.856312   -3.255822   -0.528503
     22          1           0       -1.666840   -2.625208    0.610730
     23          1           0       -3.287493   -0.848942   -0.010481
     24          1           0       -4.621187   -1.912025    0.377271
     25          1           0       -1.578547   -1.604909    2.642255
     26          1           0       -1.246790   -0.176475    4.547261
     27          1           0       -2.787229   -1.016574    4.752867
     28          1           0       -3.658981    0.975833    3.682446
     29          1           0       -5.717775   -0.807374    3.805264
     30          1           0       -6.364242    0.636041    3.088841
     31          1           0       -3.969945   -1.934402    2.783219
     32          6           0       -1.522641    0.366837    1.817398
     33          1           0       -2.124251    1.277525    1.736246
     34          1           0       -0.557775    0.642439    2.257275
     35          1           0       -1.320263    0.003535    0.805498
     36          1           0       -4.697715    0.474171    1.345253
 ---------------------------------------------------------------------
                    Distance matrix (angstroms):
                    1          2          3          4          5
     1  C    0.000000
     2  C    1.523044   0.000000
     3  C    2.570189   1.547167   0.000000
     4  C    3.109283   2.596527   1.562723   0.000000
     5  C    4.508434   3.956833   2.567881   1.541979   0.000000
     6  O    5.429907   4.530857   3.104374   2.461614   1.421772
     7  N    3.853214   2.479384   1.477708   2.489023   2.985409
     8  C    4.678533   3.389425   2.475037   3.672642   3.826805
     9  C    5.765455   4.980814   5.405077   6.967649   7.683616
    10  C    5.742947   4.673968   5.066348   6.591412   7.321908
    11  C    5.210090   3.923768   4.006925   5.474103   6.091452
    12  C    4.646108   3.446170   3.147742   4.628784   5.081837
    13  C    4.673242   3.849704   3.672908   5.159818   5.603766
    14  C    5.256208   4.611063   4.804048   6.330483   6.917987
    15  H    6.479039   5.834409   6.395724   7.953144   8.723040
    16  H    6.440310   5.357670   5.874709   7.352685   8.142846
    17  H    5.648881   5.259726   5.467010   6.931117   7.485280
    18  F    5.698828   4.257822   4.278722   5.548126   6.139133
    19  F    4.689737   4.125328   3.641186   4.919989   5.141709
    20  H    1.094481   2.171302   2.786161   3.387413   4.551018
    21  H    1.094938   2.157933   3.507268   4.137294   5.576977
    22  H    1.093552   2.178853   2.908688   2.863480   4.287680
    23  H    2.148568   1.096375   2.192476   2.889464   4.319658
    24  H    2.122375   1.095179   2.175888   3.535384   4.739134
    25  H    2.748407   2.819830   2.164582   1.097376   2.121654
    26  H    5.089921   4.756869   3.512001   2.178913   1.095046
    27  H    4.650265   4.197108   2.746249   2.185067   1.095161
    28  H    5.082021   3.977053   2.597330   2.441971   1.930564
    29  H    4.918669   3.858670   2.691610   3.687445   3.514444
    30  H    5.679093   4.307110   3.385367   4.385281   4.333446
    31  H    2.772722   2.151932   1.098625   2.146381   2.745694
    32  C    3.695419   3.104646   2.591846   1.534494   2.524793
    33  H    4.367096   3.433993   2.851881   2.195649   2.868149
    34  H    4.486928   4.118522   3.536800   2.174774   2.702575
    35  H    3.209006   2.815870   2.888304   2.183880   3.481054
    36  H    3.969919   2.465703   2.073670   3.054318   3.786450
                    6          7          8          9         10
     6  O    0.000000
     7  N    2.800479   0.000000
     8  C    3.539937   1.470366   0.000000
     9  C    7.751469   5.117145   4.318494   0.000000
    10  C    7.193160   4.486944   3.811722   1.393755   0.000000
    11  C    5.851377   3.200042   2.522439   2.411981   1.394235
    12  C    4.981514   2.505056   1.499860   2.818636   2.435944
    13  C    5.770817   3.513675   2.523649   2.413061   2.775255
    14  C    7.127197   4.717358   3.812237   1.393922   2.408598
    15  H    8.827984   6.173297   5.405588   1.087095   2.156384
    16  H    7.932864   5.218867   4.670344   2.160325   1.086070
    17  H    7.826174   5.570754   4.671461   2.160221   3.398802
    18  F    5.658804   3.174638   2.839426   3.625365   2.352170
    19  F    5.497103   3.779302   2.845301   3.625133   4.115700
    20  H    5.592224   4.142834   4.706061   5.669478   5.877158
    21  H    6.436018   4.630118   5.390762   5.720986   5.747430
    22  H    5.317578   4.253336   5.283532   6.822866   6.719609
    23  H    4.712467   2.740394   3.876435   5.478367   4.938386
    24  H    5.178247   2.704407   3.189807   3.917104   3.674218
    25  H    3.355530   3.416142   4.476730   7.364106   7.153538
    26  H    2.039036   4.027143   4.918833   8.741413   8.390610
    27  H    2.049265   3.232727   3.687143   7.415079   7.222751
    28  H    0.981467   1.929473   2.680872   6.893427   6.264710
    29  H    3.369153   2.113522   1.097175   4.825638   4.579163
    30  H    3.682874   2.084271   1.097559   4.769535   4.064155
    31  H    3.460803   2.117917   2.494290   5.205685   5.127630
    32  C    2.922205   3.078735   4.504675   7.711180   7.116065
    33  H    2.711957   2.777044   4.202849   7.575500   6.812102
    34  H    3.142960   4.040180   5.415679   8.779304   8.199786
    35  H    3.974837   3.541925   4.982409   7.628673   7.048253
    36  H    3.504142   1.022241   2.046335   4.975665   4.134955
                   11         12         13         14         15
    11  C    0.000000
    12  C    1.396225   0.000000
    13  C    2.388863   1.395721   0.000000
    14  C    2.773834   2.435013   1.394519   0.000000
    15  H    3.399461   3.905731   3.400342   2.156524   0.000000
    16  H    2.148410   3.411213   3.861186   3.398969   2.495306
    17  H    3.859814   3.410286   2.148390   1.086112   2.495028
    18  F    1.340860   2.367816   3.619959   4.114504   4.505297
    19  F    3.621174   2.369283   1.340679   2.350927   4.504349
    20  H    5.396344   4.622979   4.356700   4.930872   6.367049
    21  H    5.448184   5.107723   5.073258   5.389884   6.287569
    22  H    6.079843   5.490075   5.618673   6.301573   7.557979
    23  H    4.173884   3.999341   4.646507   5.346702   6.297892
    24  H    3.111844   2.780945   3.085039   3.650812   4.745856
    25  H    6.160838   5.260346   5.553173   6.632783   8.289515
    26  H    7.166972   6.171733   6.655359   7.954340   9.769123
    27  H    6.051023   4.871448   5.167019   6.493712   8.442771
    28  H    4.907667   4.118894   5.033596   6.364574   7.971767
    29  H    3.416515   2.154962   2.645081   4.031387   5.892566
    30  H    2.726070   2.112825   3.270031   4.450186   5.835002
    31  H    4.168071   3.038785   3.175571   4.352144   6.183288
    32  C    5.988128   5.445969   6.210853   7.305883   8.671870
    33  H    5.609282   5.218003   6.187697   7.299517   8.559550
    34  H    7.048644   6.455454   7.186770   8.319708   9.745487
    35  H    6.064189   5.672336   6.383946   7.327248   8.513320
    36  H    2.887869   2.665193   3.840144   4.853366   5.984324
                   16         17         18         19         20
    16  H    0.000000
    17  H    4.306583   0.000000
    18  F    2.582081   5.200551   0.000000
    19  F    5.201710   2.579645   4.734823   0.000000
    20  H    6.692729   5.148806   6.085605   4.119207   0.000000
    21  H    6.328397   5.738698   5.957826   5.263641   1.770910
    22  H    7.387432   6.696825   6.421027   5.529852   1.777372
    23  H    5.437293   6.089157   4.191480   5.085738   3.067284
    24  H    4.381796   4.347032   3.668014   3.625734   2.520308
    25  H    7.948674   7.095923   6.383033   5.165816   2.883318
    26  H    9.197670   8.476802   7.171521   6.121810   5.139967
    27  H    8.134569   6.949713   6.302974   4.485531   4.437670
    28  H    6.977358   7.137590   4.678487   4.941048   5.300943
    29  H    5.525588   4.701321   3.893114   2.431304   4.729423
    30  H    4.781361   5.361119   2.666579   3.687267   5.777657
    31  H    6.061678   4.858418   4.720427   2.804930   2.539807
    32  C    7.703738   8.015622   5.750561   6.205611   4.328560
    33  H    7.317839   8.115212   5.156393   6.337665   5.038783
    34  H    8.791570   8.991274   6.779541   7.065711   5.054055
    35  H    7.561443   8.022102   5.850348   6.493804   4.042105
    36  H    4.697897   5.798305   2.565915   4.394551   4.470293
                   21         22         23         24         25
    21  H    0.000000
    22  H    1.763624   0.000000
    23  H    2.499467   2.483453   0.000000
    24  H    2.396039   3.048163   1.749067   0.000000
    25  H    3.796301   2.275060   3.244841   3.805540   0.000000
    26  H    6.151123   4.654999   5.038819   5.638041   2.404066
    27  H    5.736887   4.582606   4.792478   4.828154   2.502346
    28  H    6.023560   5.135325   4.135882   4.493300   3.474253
    29  H    5.741464   5.469885   4.524147   3.764823   4.372855
    30  H    6.366895   6.232364   4.612738   4.108953   5.303223
    31  H    3.735483   3.240558   3.073878   2.492630   2.418103
    32  C    4.517254   3.229423   2.816729   4.107087   2.138059
    33  H    5.120179   4.087461   2.987649   4.272556   3.070354
    34  H    5.314158   3.823435   3.849454   5.154708   2.498151
    35  H    3.842189   2.658635   2.294021   3.840423   2.455092
    36  H    4.562299   4.396803   2.361645   2.576194   3.966610
                   26         27         28         29         30
    26  H    0.000000
    27  H    1.766633   0.000000
    28  H    2.809695   2.423930   0.000000
    29  H    4.575839   3.087040   2.726453   0.000000
    30  H    5.382888   4.277282   2.790388   1.736269   0.000000
    31  H    3.690220   2.474013   3.061826   2.317257   3.526080
    32  C    2.797040   3.482813   2.900557   4.788479   5.012997
    33  H    3.284183   3.847393   2.496820   4.641234   4.496503
    34  H    2.527726   3.735073   3.429248   5.578873   5.865714
    35  H    3.746811   4.332936   3.832988   5.384634   5.572741
    36  H    4.752376   4.181401   2.606358   2.955425   2.417357
                   31         32         33         34         35
    31  H    0.000000
    32  C    3.495398   0.000000
    33  H    3.849573   1.094474   0.000000
    34  H    4.308089   1.095634   1.768800   0.000000
    35  H    3.832466   1.094023   1.770802   1.759898   0.000000
    36  H    2.898037   3.211781   2.724146   4.242547   3.452538
                   36
    36  H    0.000000
 Stoichiometry    C13H19F2NO
 Framework group  C1[X(C13H19F2NO)]
 Deg. of freedom   102
 Full point group                 C1      NOp   1
 Largest Abelian subgroup         C1      NOp   1
 Largest concise Abelian subgroup C1      NOp   1
                         Standard orientation:                         
 ---------------------------------------------------------------------
 Center     Atomic      Atomic             Coordinates (Angstroms)
 Number     Number       Type             X           Y           Z
 ---------------------------------------------------------------------
      1          6           0       -1.211641    2.924445   -0.796206
      2          6           0       -0.803377    1.477473   -1.039635
      3          6           0       -1.377544    0.486523    0.000593
      4          6           0       -2.939468    0.481989    0.050355
      5          6           0       -3.469550   -0.455750    1.153695
      6          8           0       -3.271233   -1.827255    0.835764
      7          7           0       -0.879777   -0.878234   -0.270121
      8          6           0        0.222049   -1.302412    0.606251
      9          6           0        4.023159    0.584810   -0.193341
     10          6           0        3.499739   -0.346473   -1.088493
     11          6           0        2.271637   -0.949982   -0.821223
     12          6           0        1.541360   -0.645022    0.329055
     13          6           0        2.084132    0.289491    1.212300
     14          6           0        3.310877    0.903478    0.961702
     15          1           0        4.980188    1.059522   -0.394633
     16          1           0        4.038542   -0.607860   -1.994537
     17          1           0        3.701452    1.627111    1.671242
     18          9           0        1.786413   -1.836559   -1.702384
     19          9           0        1.419140    0.620282    2.328447
     20          1           0       -0.971863    3.233767    0.225907
     21          1           0       -0.673823    3.585180   -1.484006
     22          1           0       -2.281149    3.076893   -0.965820
     23          1           0       -1.093018    1.188626   -2.056844
     24          1           0        0.291014    1.442094   -1.017880
     25          1           0       -3.265987    1.490540    0.333981
     26          1           0       -4.544256   -0.302931    1.297840
     27          1           0       -2.975873   -0.249070    2.109177
     28          1           0       -2.390183   -1.870752    0.405489
     29          1           0       -0.068126   -1.182251    1.657513
     30          1           0        0.351531   -2.384660    0.477374
     31          1           0       -1.040224    0.813736    0.993630
     32          6           0       -3.596270    0.145818   -1.295108
     33          1           0       -3.269504   -0.823765   -1.683703
     34          1           0       -4.686494    0.113427   -1.191299
     35          1           0       -3.369571    0.906202   -2.048308
     36          1           0       -0.584956   -0.969968   -1.244617
 ---------------------------------------------------------------------
 Rotational constants (GHZ):      0.7201516      0.2779597      0.2677845
 Standard basis: 6-311G(d) (5D, 7F)
 There are   380 symmetry adapted cartesian basis functions of A   symmetry.
 There are   363 symmetry adapted basis functions of A   symmetry.
   363 basis functions,   639 primitive gaussians,   380 cartesian basis functions
    65 alpha electrons       65 beta electrons
       nuclear repulsion energy      1302.9169368945 Hartrees.
 NAtoms=   36 NActive=   36 NUniq=   36 SFac= 1.00D+00 NAtFMM=   60 NAOKFM=F Big=F
 Integral buffers will be    131072 words long.
 Raffenetti 2 integral format.
 Two-electron integral symmetry is turned on.
 ------------------------------------------------------------------------------
 Polarizable Continuum Model (PCM)
 =================================
 Model                : PCM (using non-symmetric T matrix).
 Atomic radii         : UFF (Universal Force Field).
 Polarization charges : Total charges.
 Charge compensation  : None.
 Solution method      : On-the-fly selection.
 Cavity type          : Scaled VdW (van der Waals Surface) (Alpha=1.100).
 Cavity algorithm     : GePol (No added spheres)
                        Default sphere list used, NSphG=   36.
                        Lebedev-Laikov grids with approx.  5.0 points / Ang**2.
                        Smoothing algorithm: Karplus/York (Gamma=1.0000).
                        Polarization charges: spherical gaussians, with
                                              point-specific exponents (IZeta= 3).
                        Self-potential: point-specific (ISelfS= 7).
                        Self-field    : sphere-specific E.n sum rule (ISelfD= 2).
 Solvent              : Chloroform, Eps=   4.711300 Eps(inf)=   2.090627
 ------------------------------------------------------------------------------
 One-electron integrals computed using PRISM.
 NBasis=   363 RedAO= T EigKep=  2.44D-04  NBF=   363
 NBsUse=   363 1.00D-06 EigRej= -1.00D+00 NBFU=   363
 ExpMin= 1.03D-01 ExpMax= 1.14D+04 ExpMxC= 1.72D+03 IAcc=1 IRadAn=         1 AccDes= 0.00D+00
 Harris functional with IExCor=  908 and IRadAn=       1 diagonalized for initial guess.
 HarFok:  IExCor=  908 AccDes= 0.00D+00 IRadAn=         1 IDoV= 1 UseB2=F ITyADJ=14
 ICtDFT=  3500011 ScaDFX=  1.000000  1.000000  1.000000  1.000000
 FoFCou: FMM=F IPFlag=           0 FMFlag=      100000 FMFlg1=           0
         NFxFlg=           0 DoJE=T BraDBF=F KetDBF=T FulRan=T
         wScrn=  0.000000 ICntrl=     500 IOpCl=  0 I1Cent=   200000004 NGrid=           0
         NMat0=    1 NMatS0=      1 NMatT0=    0 NMatD0=    1 NMtDS0=    0 NMtDT0=    0
 Petite list used in FoFCou.
 Requested convergence on RMS density matrix=1.00D-08 within 128 cycles.
 Requested convergence on MAX density matrix=1.00D-06.
 Requested convergence on             energy=1.00D-06.
 No special actions if energy rises.
 Inv3:  Mode=1 IEnd=    17729283.
 Iteration    1 A*A^-1 deviation from unit magnitude is 6.00D-15 for     75.
 Iteration    1 A*A^-1 deviation from orthogonality  is 6.97D-15 for   2409     28.
 Iteration    1 A^-1*A deviation from unit magnitude is 5.44D-15 for   2428.
 Iteration    1 A^-1*A deviation from orthogonality  is 5.36D-13 for   1716   1683.
 Error on total polarization charges =  0.00912
 SCF Done:  E(RmPW1PW91) =  -836.465067055     A.U. after   12 cycles
            NFock= 12  Conv=0.77D-08     -V/T= 2.0037
 DoSCS=F DFT=T ScalE2(SS,OS)=  1.000000  1.000000
 Range of M.O.s used for correlation:     1   363
 NBasis=   363 NAE=    65 NBE=    65 NFC=     0 NFV=     0
 NROrb=    363 NOA=    65 NOB=    65 NVA=   298 NVB=   298
 NEqPCM:  Using equilibrium solvation (IEInf=0, Eps=   4.7113, EpsInf=   2.0906)
          Differentiating once with respect to magnetic field using GIAOs.
          Electric field/nuclear overlap derivatives assumed to be zero.
 FoFJK:  IHMeth= 1 ICntrl=    6127 DoSepK=F KAlg= 0 I1Cent=   0 FoldK=F
 IRaf=         1 NMat=   1 IRICut=       1 DoRegI=T DoRafI=F ISym2E= 0.
          There are     3 degrees of freedom in the 1st order CPHF.  IDoFFX=0 NUNeed=     3.
      3 vectors produced by pass  0 Test12= 6.46D-13 3.33D-08 XBig12= 3.59D+01 1.86D+00.
 AX will form     3 AO Fock derivatives at one time.
      3 vectors produced by pass  1 Test12= 6.46D-13 3.33D-08 XBig12= 1.22D-01 1.82D-01.
      3 vectors produced by pass  2 Test12= 6.46D-13 3.33D-08 XBig12= 5.61D-04 7.25D-03.
      3 vectors produced by pass  3 Test12= 6.46D-13 3.33D-08 XBig12= 1.35D-06 2.33D-04.
      3 vectors produced by pass  4 Test12= 6.46D-13 3.33D-08 XBig12= 3.61D-09 1.33D-05.
      3 vectors produced by pass  5 Test12= 6.46D-13 3.33D-08 XBig12= 1.60D-11 7.07D-07.
      2 vectors produced by pass  6 Test12= 6.46D-13 3.33D-08 XBig12= 3.88D-14 4.89D-08.
 InvSVY:  IOpt=1 It=  1 EMax= 3.55D-15
 Solved reduced A of dimension    20 with     3 vectors.
 Calculating GIAO nuclear magnetic shielding tensors.
 SCF GIAO Magnetic shielding tensor (ppm):
      1  C    Isotropic =   175.4232   Anisotropy =    20.2760
   XX=   166.5828   YX=    -3.9450   ZX=    -1.3130
   XY=    -2.5404   YY=   188.3198   ZY=     0.6780
   XZ=    -0.5682   YZ=     2.2970   ZZ=   171.3670
   Eigenvalues:   166.0116   171.3175   188.9406
      2  C    Isotropic =   157.1388   Anisotropy =    33.0744
   XX=   146.8700   YX=     0.4623   ZX=    -9.7590
   XY=    -3.4287   YY=   175.1548   ZY=    -8.2669
   XZ=   -10.0004   YZ=   -13.2490   ZZ=   149.3917
   Eigenvalues:   136.3199   155.9082   179.1884
      3  C    Isotropic =   119.5931   Anisotropy =    30.5444
   XX=   117.5350   YX=    -4.4788   ZX=     4.0725
   XY=   -16.0651   YY=   135.2384   ZY=     7.4723
   XZ=     4.9604   YZ=    -4.5722   ZZ=   106.0057
   Eigenvalues:   103.5943   115.2289   139.9560
      4  C    Isotropic =   150.9808   Anisotropy =     8.3629
   XX=   150.8740   YX=     7.3037   ZX=     0.5714
   XY=    -0.4735   YY=   148.3554   ZY=     0.0883
   XZ=     2.1098   YZ=     6.1830   ZZ=   153.7131
   Eigenvalues:   145.5165   150.8699   156.5561
      5  C    Isotropic =   115.5976   Anisotropy =    39.7454
   XX=    97.6655   YX=    -3.1229   ZX=    -5.1158
   XY=    -1.7731   YY=   141.8491   ZY=    -2.9656
   XZ=    -6.3388   YZ=     6.2159   ZZ=   107.2780
   Eigenvalues:    94.9445   109.7536   142.0945
      6  O    Isotropic =   316.0474   Anisotropy =    84.6840
   XX=   353.1844   YX=    -5.9582   ZX=   -35.9802
   XY=    19.3233   YY=   285.9773   ZY=   -10.5004
   XZ=   -30.3624   YZ=   -13.5839   ZZ=   308.9804
   Eigenvalues:   279.6830   295.9558   372.5034
      7  N    Isotropic =   196.3285   Anisotropy =    31.4934
   XX=   174.3621   YX=     1.0116   ZX=   -10.6757
   XY=   -15.1223   YY=   198.2326   ZY=     4.1969
   XZ=    -0.9686   YZ=    -2.8922   ZZ=   216.3908
   Eigenvalues:   171.7662   199.8952   217.3241
      8  C    Isotropic =   144.8706   Anisotropy =    54.8008
   XX=   156.1073   YX=   -17.8689   ZX=    23.4122
   XY=   -12.8875   YY=   136.1472   ZY=   -14.9120
   XZ=    20.8704   YZ=   -11.3193   ZZ=   142.3572
   Eigenvalues:   125.1736   128.0337   181.4044
      9  C    Isotropic =    54.4004   Anisotropy =   186.4581
   XX=    -1.4166   YX=   -83.9409   ZX=    47.5856
   XY=   -83.2600   YY=    96.1112   ZY=   -43.4945
   XZ=    46.0858   YZ=   -44.0660   ZZ=    68.5065
   Eigenvalues:   -52.8922    37.3876   178.7058
     10  C    Isotropic =    70.2713   Anisotropy =   149.4020
   XX=    66.7370   YX=   -33.6186   ZX=    49.0843
   XY=   -29.6781   YY=   111.1980   ZY=   -59.1049
   XZ=    56.4307   YZ=   -55.2986   ZZ=    32.8787
   Eigenvalues:   -13.5814    54.5226   169.8726
     11  C    Isotropic =    19.4652   Anisotropy =    98.4285
   XX=    36.8006   YX=   -41.9605   ZX=   -14.7642
   XY=   -35.7257   YY=    20.7908   ZY=   -61.9451
   XZ=    -8.7273   YZ=   -60.6955   ZZ=     0.8041
   Eigenvalues:   -63.3722    36.6835    85.0842
     12  C    Isotropic =    64.7674   Anisotropy =   144.3548
   XX=    51.6495   YX=   -49.1106   ZX=    37.8210
   XY=   -47.0847   YY=    88.8333   ZY=   -54.3041
   XZ=    35.0968   YZ=   -52.8789   ZZ=    53.8195
   Eigenvalues:    14.6132    18.6850   161.0039
     13  C    Isotropic =    20.2804   Anisotropy =   101.1649
   XX=    26.2414   YX=    -3.4333   ZX=    54.2513
   XY=    -7.6480   YY=    54.7852   ZY=   -40.9540
   XZ=    51.1169   YZ=   -39.7949   ZZ=   -20.1854
   Eigenvalues:   -63.0069    36.1245    87.7237
     14  C    Isotropic =    70.7425   Anisotropy =   149.7103
   XX=    73.2618   YX=   -52.5450   ZX=    15.5699
   XY=   -57.7476   YY=    86.9710   ZY=   -69.0480
   XZ=     8.8181   YZ=   -73.6238   ZZ=    51.9948
   Eigenvalues:   -12.5997    54.2779   170.5494
     15  H    Isotropic =    24.5141   Anisotropy =     3.0976
   XX=    25.2104   YX=     1.4248   ZX=    -1.0150
   XY=     1.3275   YY=    23.1904   ZY=     2.1701
   XZ=    -1.1030   YZ=     2.1865   ZZ=    25.1413
   Eigenvalues:    21.0572    25.9058    26.5791
     16  H    Isotropic =    25.1872   Anisotropy =     4.7695
   XX=    27.2933   YX=     2.0944   ZX=    -1.4001
   XY=     2.1583   YY=    23.8739   ZY=     1.4683
   XZ=    -1.0582   YZ=     1.7006   ZZ=    24.3945
   Eigenvalues:    21.5107    25.6841    28.3669
     17  H    Isotropic =    25.1578   Anisotropy =     4.8302
   XX=    27.3599   YX=     2.3167   ZX=    -1.0305
   XY=     1.9835   YY=    23.2276   ZY=     1.3854
   XZ=    -1.3178   YZ=     1.2911   ZZ=    24.8858
   Eigenvalues:    21.4645    25.6309    28.3779
     18  F    Isotropic =   304.3850   Anisotropy =   140.6839
   XX=   263.5571   YX=   -56.1373   ZX=    36.5455
   XY=   -38.7666   YY=   357.7614   ZY=   -28.7138
   XZ=    49.9473   YZ=   -34.3857   ZZ=   291.8363
   Eigenvalues:   228.2206   286.7600   398.1743
     19  F    Isotropic =   302.0939   Anisotropy =   122.4656
   XX=   277.5450   YX=   -63.1519   ZX=    13.5968
   XY=   -58.8470   YY=   311.7577   ZY=   -47.4498
   XZ=     7.3111   YZ=   -39.0915   ZZ=   316.9792
   Eigenvalues:   227.1826   295.3615   383.7377
     20  H    Isotropic =    31.6727   Anisotropy =     8.0032
   XX=    28.4104   YX=    -0.0648   ZX=     1.1981
   XY=     0.2374   YY=    34.0831   ZY=     4.2025
   XZ=     2.4466   YZ=     2.6838   ZZ=    32.5247
   Eigenvalues:    27.4486    30.5613    37.0082
     21  H    Isotropic =    31.4368   Anisotropy =    10.9911
   XX=    28.9745   YX=     1.4009   ZX=    -1.9348
   XY=     2.0536   YY=    35.9105   ZY=    -4.6661
   XZ=    -1.9109   YZ=    -4.2139   ZZ=    29.4254
   Eigenvalues:    26.6832    28.8630    38.7642
     22  H    Isotropic =    31.4034   Anisotropy =     8.3650
   XX=    34.5161   YX=    -2.0453   ZX=     1.4065
   XY=    -3.1735   YY=    33.3890   ZY=    -1.3871
   XZ=     1.4765   YZ=    -1.2645   ZZ=    26.3049
   Eigenvalues:    25.9442    31.2858    36.9800
     23  H    Isotropic =    31.0252   Anisotropy =     4.0511
   XX=    29.6539   YX=     0.2542   ZX=    -0.0482
   XY=    -0.3473   YY=    29.7676   ZY=    -0.3052
   XZ=     1.1280   YZ=     0.2646   ZZ=    33.6542
   Eigenvalues:    29.5726    29.7771    33.7260
     24  H    Isotropic =    31.4510   Anisotropy =    11.4826
   XX=    37.1608   YX=    -2.2986   ZX=     0.4122
   XY=    -4.8062   YY=    31.2540   ZY=    -2.9756
   XZ=     0.9768   YZ=    -2.8867   ZZ=    25.9383
   Eigenvalues:    24.5807    30.6662    39.1061
     25  H    Isotropic =    30.6882   Anisotropy =     6.4986
   XX=    30.5690   YX=    -1.2407   ZX=    -1.5985
   XY=    -1.5700   YY=    33.9774   ZY=     1.2594
   XZ=    -1.4667   YZ=     1.8629   ZZ=    27.5182
   Eigenvalues:    26.7543    30.2896    35.0206
     26  H    Isotropic =    28.3415   Anisotropy =     8.1534
   XX=    30.8424   YX=    -0.2729   ZX=    -4.3616
   XY=    -2.2264   YY=    27.7788   ZY=     0.3364
   XZ=    -4.3971   YZ=     0.2161   ZZ=    26.4032
   Eigenvalues:    23.6688    27.5785    33.7771
     27  H    Isotropic =    27.8795   Anisotropy =     5.8675
   XX=    24.9371   YX=    -0.0493   ZX=    -1.3047
   XY=     0.4745   YY=    27.7994   ZY=     2.6853
   XZ=    -0.1848   YZ=     0.9503   ZZ=    30.9020
   Eigenvalues:    24.7712    27.0762    31.7912
     28  H    Isotropic =    27.9303   Anisotropy =    23.5940
   XX=    38.9789   YX=     1.5696   ZX=   -10.6555
   XY=     0.6501   YY=    25.1116   ZY=    -0.8567
   XZ=   -10.2290   YZ=    -1.1601   ZZ=    19.7003
   Eigenvalues:    15.1054    25.0258    43.6596
     29  H    Isotropic =    28.2307   Anisotropy =     5.6523
   XX=    28.6643   YX=     1.4708   ZX=     1.9126
   XY=     1.7425   YY=    24.4370   ZY=    -2.4009
   XZ=    -0.0127   YZ=    -0.4467   ZZ=    31.5908
   Eigenvalues:    23.5544    29.1388    31.9989
     30  H    Isotropic =    28.1895   Anisotropy =     7.7477
   XX=    28.1669   YX=    -2.6659   ZX=     0.5340
   XY=    -0.1445   YY=    32.7977   ZY=    -0.5177
   XZ=    -0.4766   YZ=    -2.0889   ZZ=    23.6039
   Eigenvalues:    23.4167    27.7971    33.3546
     31  H    Isotropic =    29.2221   Anisotropy =     4.9153
   XX=    31.1275   YX=    -1.1767   ZX=     1.9826
   XY=    -0.7825   YY=    28.2006   ZY=     2.0833
   XZ=     2.7714   YZ=     0.5432   ZZ=    28.3382
   Eigenvalues:    25.8491    29.3182    32.4990
     32  C    Isotropic =   177.7797   Anisotropy =    17.2572
   XX=   184.1786   YX=     3.7438   ZX=     5.0796
   XY=     1.6293   YY=   165.5207   ZY=     2.4020
   XZ=     4.9844   YZ=     0.1316   ZZ=   183.6396
   Eigenvalues:   165.1239   178.9306   189.2844
     33  H    Isotropic =    30.8190   Anisotropy =     5.8975
   XX=    29.4910   YX=    -0.3129   ZX=     1.3325
   XY=    -1.0458   YY=    31.9753   ZY=     2.9737
   XZ=     1.8332   YZ=     3.3766   ZZ=    30.9907
   Eigenvalues:    27.1153    30.5910    34.7506
     34  H    Isotropic =    31.3432   Anisotropy =    11.5982
   XX=    38.6258   YX=     0.5749   ZX=     1.7694
   XY=     0.0076   YY=    26.7125   ZY=    -0.6109
   XZ=     2.5332   YZ=    -0.1125   ZZ=    28.6912
   Eigenvalues:    26.6048    28.3494    39.0753
     35  H    Isotropic =    31.3476   Anisotropy =     7.7431
   XX=    30.7975   YX=     1.6684   ZX=     2.1232
   XY=     1.0207   YY=    29.5799   ZY=    -4.0219
   XZ=     2.2074   YZ=    -4.3134   ZZ=    33.6655
   Eigenvalues:    25.8889    31.6443    36.5097
     36  H    Isotropic =    31.2268   Anisotropy =     9.4807
   XX=    31.6594   YX=    -4.5785   ZX=    -1.1595
   XY=    -5.4087   YY=    26.6517   ZY=     2.2391
   XZ=    -1.3864   YZ=     2.7216   ZZ=    35.3692
   Eigenvalues:    23.3883    32.7449    37.5473
 End of Minotr F.D. properties file   721 does not exist.
 End of Minotr F.D. properties file   722 does not exist.
 End of Minotr F.D. properties file   788 does not exist.

 **********************************************************************

            Population analysis using the SCF density.

 **********************************************************************

 Orbital symmetries:
       Occupied  (A) (A) (A) (A) (A) (A) (A) (A) (A) (A) (A) (A)
                 (A) (A) (A) (A) (A) (A) (A) (A) (A) (A) (A) (A)
                 (A) (A) (A) (A) (A) (A) (A) (A) (A) (A) (A) (A)
                 (A) (A) (A) (A) (A) (A) (A) (A) (A) (A) (A) (A)
                 (A) (A) (A) (A) (A) (A) (A) (A) (A) (A) (A) (A)
                 (A) (A) (A) (A) (A)
       Virtual   (A) (A) (A) (A) (A) (A) (A) (A) (A) (A) (A) (A)
                 (A) (A) (A) (A) (A) (A) (A) (A) (A) (A) (A) (A)
                 (A) (A) (A) (A) (A) (A) (A) (A) (A) (A) (A) (A)
                 (A) (A) (A) (A) (A) (A) (A) (A) (A) (A) (A) (A)
                 (A) (A) (A) (A) (A) (A) (A) (A) (A) (A) (A) (A)
                 (A) (A) (A) (A) (A) (A) (A) (A) (A) (A) (A) (A)
                 (A) (A) (A) (A) (A) (A) (A) (A) (A) (A) (A) (A)
                 (A) (A) (A) (A) (A) (A) (A) (A) (A) (A) (A) (A)
                 (A) (A) (A) (A) (A) (A) (A) (A) (A) (A) (A) (A)
                 (A) (A) (A) (A) (A) (A) (A) (A) (A) (A) (A) (A)
                 (A) (A) (A) (A) (A) (A) (A) (A) (A) (A) (A) (A)
                 (A) (A) (A) (A) (A) (A) (A) (A) (A) (A) (A) (A)
                 (A) (A) (A) (A) (A) (A) (A) (A) (A) (A) (A) (A)
                 (A) (A) (A) (A) (A) (A) (A) (A) (A) (A) (A) (A)
                 (A) (A) (A) (A) (A) (A) (A) (A) (A) (A) (A) (A)
                 (A) (A) (A) (A) (A) (A) (A) (A) (A) (A) (A) (A)
                 (A) (A) (A) (A) (A) (A) (A) (A) (A) (A) (A) (A)
                 (A) (A) (A) (A) (A) (A) (A) (A) (A) (A) (A) (A)
                 (A) (A) (A) (A) (A) (A) (A) (A) (A) (A) (A) (A)
                 (A) (A) (A) (A) (A) (A) (A) (A) (A) (A) (A) (A)
                 (A) (A) (A) (A) (A) (A) (A) (A) (A) (A) (A) (A)
                 (A) (A) (A) (A) (A) (A) (A) (A) (A) (A) (A) (A)
                 (A) (A) (A) (A) (A) (A) (A) (A) (A) (A) (A) (A)
                 (A) (A) (A) (A) (A) (A) (A) (A) (A) (A) (A) (A)
                 (A) (A) (A) (A) (A) (A) (A) (A) (A) (A)
 The electronic state is 1-A.
 Alpha  occ. eigenvalues --  -24.80952 -24.80666 -19.17880 -14.39526 -10.34096
 Alpha  occ. eigenvalues --  -10.34022 -10.27521 -10.26786 -10.26585 -10.26241
 Alpha  occ. eigenvalues --  -10.26231 -10.25505 -10.25457 -10.23407 -10.22980
 Alpha  occ. eigenvalues --  -10.21977 -10.21472  -1.28205  -1.27937  -1.02587
 Alpha  occ. eigenvalues --   -0.95118  -0.90740  -0.83239  -0.80355  -0.78919
 Alpha  occ. eigenvalues --   -0.78131  -0.72183  -0.69498  -0.67598  -0.66314
 Alpha  occ. eigenvalues --   -0.64130  -0.62852  -0.59432  -0.57991  -0.55712
 Alpha  occ. eigenvalues --   -0.52802  -0.52271  -0.51900  -0.50874  -0.50029
 Alpha  occ. eigenvalues --   -0.49562  -0.48362  -0.47641  -0.47189  -0.46241
 Alpha  occ. eigenvalues --   -0.44952  -0.43520  -0.42335  -0.41836  -0.41428
 Alpha  occ. eigenvalues --   -0.40871  -0.39838  -0.38876  -0.38268  -0.37892
 Alpha  occ. eigenvalues --   -0.37721  -0.37028  -0.36381  -0.34163  -0.32991
 Alpha  occ. eigenvalues --   -0.32528  -0.27976  -0.27088  -0.26524  -0.24723
 Alpha virt. eigenvalues --   -0.02425  -0.01262   0.05116   0.05531   0.06525
 Alpha virt. eigenvalues --    0.07280   0.07577   0.09887   0.10154   0.10817
 Alpha virt. eigenvalues --    0.11221   0.11525   0.12147   0.13079   0.13215
 Alpha virt. eigenvalues --    0.14020   0.14582   0.14926   0.15857   0.16144
 Alpha virt. eigenvalues --    0.16342   0.17312   0.18553   0.18692   0.19728
 Alpha virt. eigenvalues --    0.20791   0.22618   0.23248   0.24723   0.25041
 Alpha virt. eigenvalues --    0.25634   0.26283   0.26550   0.28945   0.30667
 Alpha virt. eigenvalues --    0.30987   0.32510   0.33139   0.33692   0.34348
 Alpha virt. eigenvalues --    0.36201   0.37028   0.37695   0.38022   0.38995
 Alpha virt. eigenvalues --    0.39752   0.40463   0.40889   0.41633   0.42155
 Alpha virt. eigenvalues --    0.42904   0.44225   0.45179   0.45706   0.46716
 Alpha virt. eigenvalues --    0.47361   0.49148   0.50351   0.51151   0.51713
 Alpha virt. eigenvalues --    0.52485   0.52559   0.53926   0.54435   0.55627
 Alpha virt. eigenvalues --    0.56102   0.57098   0.57988   0.59178   0.59572
 Alpha virt. eigenvalues --    0.59747   0.60260   0.60674   0.61283   0.61875
 Alpha virt. eigenvalues --    0.62317   0.62982   0.63913   0.64290   0.64699
 Alpha virt. eigenvalues --    0.64736   0.65245   0.65889   0.66162   0.66446
 Alpha virt. eigenvalues --    0.68584   0.68739   0.69823   0.71020   0.71188
 Alpha virt. eigenvalues --    0.73404   0.74441   0.75238   0.77657   0.78287
 Alpha virt. eigenvalues --    0.78560   0.78944   0.80835   0.82920   0.83083
 Alpha virt. eigenvalues --    0.87653   0.88733   0.91239   0.92048   0.94297
 Alpha virt. eigenvalues --    0.94949   0.95566   0.98012   0.99076   1.00096
 Alpha virt. eigenvalues --    1.00915   1.02891   1.05064   1.06392   1.07251
 Alpha virt. eigenvalues --    1.08339   1.09614   1.11011   1.12028   1.14582
 Alpha virt. eigenvalues --    1.16091   1.18719   1.19729   1.20422   1.23415
 Alpha virt. eigenvalues --    1.25733   1.27856   1.28710   1.29328   1.32506
 Alpha virt. eigenvalues --    1.34175   1.36202   1.38405   1.39223   1.42272
 Alpha virt. eigenvalues --    1.44582   1.46860   1.47082   1.48753   1.50217
 Alpha virt. eigenvalues --    1.51292   1.53280   1.53580   1.54708   1.55297
 Alpha virt. eigenvalues --    1.56600   1.57026   1.58352   1.60328   1.61546
 Alpha virt. eigenvalues --    1.63255   1.63364   1.64490   1.65354   1.67627
 Alpha virt. eigenvalues --    1.67993   1.68546   1.71221   1.73000   1.73550
 Alpha virt. eigenvalues --    1.74385   1.77054   1.78033   1.79528   1.81632
 Alpha virt. eigenvalues --    1.83270   1.84997   1.85905   1.87929   1.89115
 Alpha virt. eigenvalues --    1.89672   1.90754   1.91556   1.93268   1.95174
 Alpha virt. eigenvalues --    1.97623   1.98904   1.99829   2.01916   2.02487
 Alpha virt. eigenvalues --    2.07939   2.13192   2.16108   2.17959   2.19354
 Alpha virt. eigenvalues --    2.21010   2.24687   2.26307   2.27628   2.28517
 Alpha virt. eigenvalues --    2.30416   2.32534   2.36116   2.38562   2.39631
 Alpha virt. eigenvalues --    2.42514   2.43759   2.44659   2.45902   2.48034
 Alpha virt. eigenvalues --    2.49036   2.50729   2.52504   2.53111   2.53912
 Alpha virt. eigenvalues --    2.57870   2.58581   2.60672   2.62918   2.64106
 Alpha virt. eigenvalues --    2.67380   2.68390   2.70625   2.72132   2.74367
 Alpha virt. eigenvalues --    2.77678   2.84431   2.84823   2.85635   2.86550
 Alpha virt. eigenvalues --    2.91539   2.94499   2.97907   3.00232   3.05994
 Alpha virt. eigenvalues --    3.06642   3.08064   3.09749   3.09955   3.12597
 Alpha virt. eigenvalues --    3.13988   3.15557   3.17899   3.21644   3.22516
 Alpha virt. eigenvalues --    3.24973   3.25818   3.27697   3.28543   3.28975
 Alpha virt. eigenvalues --    3.30009   3.31801   3.34656   3.38832   3.40308
 Alpha virt. eigenvalues --    3.45131   3.48513   3.50995   3.59321   3.64282
 Alpha virt. eigenvalues --    3.77081   3.79337   3.79509   3.79761   3.80711
 Alpha virt. eigenvalues --    3.86469   3.87876   3.95320   3.96786   3.99400
 Alpha virt. eigenvalues --    3.99958   4.06730   4.07625   4.09234   4.12354
 Alpha virt. eigenvalues --    4.17091   4.25589   4.46293   4.75249   4.76623
 Alpha virt. eigenvalues --    4.78321   4.80563   4.95701   5.08033   5.45864
 Alpha virt. eigenvalues --    6.13467   6.15711   6.31009   6.32279   6.56249
 Alpha virt. eigenvalues --    6.59337  23.30711  23.47003  23.58684  23.69485
 Alpha virt. eigenvalues --   23.74020  23.78289  23.82855  23.85293  23.86632
 Alpha virt. eigenvalues --   23.90009  24.08554  24.10796  24.19168  35.56868
 Alpha virt. eigenvalues --   50.00656  66.89019  66.89745
          Condensed to atoms (all electrons):
               1          2          3          4          5          6
     1  C    5.360124   0.293140  -0.076136   0.003754  -0.000165   0.000009
     2  C    0.293140   5.337643   0.334642  -0.078494   0.006859  -0.000007
     3  C   -0.076136   0.334642   5.379230   0.294193  -0.076064  -0.004326
     4  C    0.003754  -0.078494   0.294193   5.504947   0.339618  -0.053935
     5  C   -0.000165   0.006859  -0.076064   0.339618   5.070657   0.246476
     6  O    0.000009  -0.000007  -0.004326  -0.053935   0.246476   8.241986
     7  N    0.006928  -0.052874   0.221233  -0.076814   0.003680  -0.031610
     8  C   -0.000698   0.003256  -0.076949   0.003525   0.000752   0.003265
     9  C   -0.000008  -0.000009   0.000016   0.000000   0.000000   0.000000
    10  C    0.000002   0.000091  -0.000083   0.000001   0.000000   0.000000
    11  C    0.000027  -0.000024   0.000171   0.000006  -0.000002  -0.000001
    12  C    0.000197   0.000493  -0.012462  -0.001285   0.000112   0.000138
    13  C    0.000230  -0.002615   0.002771  -0.000038  -0.000007   0.000002
    14  C   -0.000007   0.000076  -0.000176   0.000002   0.000000   0.000000
    15  H    0.000000  -0.000002   0.000000   0.000000   0.000000   0.000000
    16  H    0.000000   0.000011  -0.000003   0.000000   0.000000   0.000000
    17  H    0.000004   0.000012  -0.000010   0.000000   0.000000   0.000000
    18  F   -0.000001  -0.000074  -0.000101   0.000001   0.000000   0.000000
    19  F   -0.000017  -0.000135  -0.001550   0.000045  -0.000004   0.000000
    20  H    0.388793  -0.045411  -0.002582  -0.001836  -0.000189   0.000001
    21  H    0.388663  -0.034609   0.008154  -0.000252   0.000013   0.000000
    22  H    0.387148  -0.035780  -0.009212   0.003389   0.000309  -0.000005
    23  H   -0.038752   0.390588  -0.034367  -0.012477  -0.000229  -0.000032
    24  H   -0.041128   0.405144  -0.046114   0.008431  -0.000219   0.000011
    25  H    0.001750  -0.006912  -0.045474   0.385720  -0.035498   0.005090
    26  H    0.000025  -0.000348   0.008716  -0.027581   0.387425  -0.033631
    27  H   -0.000026   0.000385  -0.009365  -0.057696   0.394025  -0.039968
    28  H   -0.000118   0.000898  -0.000965  -0.006496  -0.062993   0.263572
    29  H    0.000028   0.000395  -0.009821   0.000232   0.000148   0.002273
    30  H    0.000033  -0.000592   0.007475  -0.000278  -0.000027   0.000492
    31  H   -0.002353  -0.040577   0.403030  -0.053173  -0.004727  -0.000903
    32  C   -0.003087  -0.001259  -0.086827   0.257990  -0.087167   0.007140
    33  H   -0.000024   0.000704  -0.011614  -0.039067  -0.007111   0.012929
    34  H   -0.000009  -0.000088   0.007961  -0.033840  -0.004612  -0.000485
    35  H   -0.000447   0.002225  -0.007796  -0.036390   0.007019   0.000179
    36  H    0.000414  -0.001874  -0.056544   0.000679   0.000117   0.000510
               7          8          9         10         11         12
     1  C    0.006928  -0.000698  -0.000008   0.000002   0.000027   0.000197
     2  C   -0.052874   0.003256  -0.000009   0.000091  -0.000024   0.000493
     3  C    0.221233  -0.076949   0.000016  -0.000083   0.000171  -0.012462
     4  C   -0.076814   0.003525   0.000000   0.000001   0.000006  -0.001285
     5  C    0.003680   0.000752   0.000000   0.000000  -0.000002   0.000112
     6  O   -0.031610   0.003265   0.000000   0.000000  -0.000001   0.000138
     7  N    7.038507   0.270916  -0.000022   0.000380  -0.001614  -0.071868
     8  C    0.270916   5.342120  -0.001349   0.008500  -0.079750   0.233804
     9  C   -0.000022  -0.001349   5.059404   0.432166  -0.005397  -0.059828
    10  C    0.000380   0.008500   0.432166   5.190769   0.479211  -0.032231
    11  C   -0.001614  -0.079750  -0.005397   0.479211   4.756639   0.241779
    12  C   -0.071868   0.233804  -0.059828  -0.032231   0.241779   5.872058
    13  C    0.002488  -0.074030  -0.002770  -0.065439   0.051493   0.292364
    14  C   -0.000115   0.009496   0.434636  -0.035499  -0.059279  -0.031738
    15  H   -0.000001   0.000028   0.405523  -0.041681   0.006428  -0.002094
    16  H    0.000037  -0.000322  -0.040868   0.393246  -0.051060   0.012557
    17  H    0.000015  -0.000282  -0.041393   0.007336  -0.001480   0.012296
    18  F   -0.002626   0.006866   0.005559  -0.055121   0.318782  -0.087379
    19  F    0.000005  -0.005868   0.005569  -0.000511   0.005101  -0.075632
    20  H   -0.000029   0.000038   0.000002  -0.000004  -0.000014   0.000067
    21  H   -0.000273   0.000027   0.000003   0.000000   0.000008  -0.000003
    22  H   -0.000101  -0.000034   0.000000   0.000000  -0.000001   0.000002
    23  H   -0.003056   0.000496   0.000000  -0.000031   0.000160   0.000343
    24  H   -0.000015  -0.002237   0.000207   0.000215  -0.001581  -0.001202
    25  H    0.005348  -0.000235   0.000000   0.000000  -0.000003   0.000051
    26  H   -0.000493   0.000102   0.000000   0.000000   0.000000   0.000010
    27  H    0.000164  -0.000463   0.000000   0.000000   0.000003  -0.000224
    28  H    0.050774  -0.003014   0.000000  -0.000001  -0.000047   0.001779
    29  H   -0.029147   0.404686  -0.000272   0.000114   0.006029  -0.052833
    30  H   -0.036776   0.409707  -0.000086   0.000467  -0.009916  -0.057759
    31  H   -0.036354  -0.002187  -0.000062   0.000056   0.000063  -0.007445
    32  C   -0.001843  -0.000239   0.000000   0.000000  -0.000005  -0.000065
    33  H    0.009670  -0.000127   0.000000   0.000000  -0.000004   0.000013
    34  H   -0.000388   0.000015   0.000000   0.000000   0.000000   0.000001
    35  H    0.000033  -0.000044   0.000000   0.000000   0.000001  -0.000007
    36  H    0.338492  -0.040914  -0.000134   0.000536   0.002402  -0.011103
              13         14         15         16         17         18
     1  C    0.000230  -0.000007   0.000000   0.000000   0.000004  -0.000001
     2  C   -0.002615   0.000076  -0.000002   0.000011   0.000012  -0.000074
     3  C    0.002771  -0.000176   0.000000  -0.000003  -0.000010  -0.000101
     4  C   -0.000038   0.000002   0.000000   0.000000   0.000000   0.000001
     5  C   -0.000007   0.000000   0.000000   0.000000   0.000000   0.000000
     6  O    0.000002   0.000000   0.000000   0.000000   0.000000   0.000000
     7  N    0.002488  -0.000115  -0.000001   0.000037   0.000015  -0.002626
     8  C   -0.074030   0.009496   0.000028  -0.000322  -0.000282   0.006866
     9  C   -0.002770   0.434636   0.405523  -0.040868  -0.041393   0.005559
    10  C   -0.065439  -0.035499  -0.041681   0.393246   0.007336  -0.055121
    11  C    0.051493  -0.059279   0.006428  -0.051060  -0.001480   0.318782
    12  C    0.292364  -0.031738  -0.002094   0.012557   0.012296  -0.087379
    13  C    4.727782   0.472902   0.006194  -0.001300  -0.048553   0.004590
    14  C    0.472902   5.186882  -0.040805   0.007120   0.391880  -0.000603
    15  H    0.006194  -0.040805   0.444971  -0.006722  -0.006615  -0.000070
    16  H   -0.001300   0.007120  -0.006722   0.449604  -0.000166   0.001513
    17  H   -0.048553   0.391880  -0.006615  -0.000166   0.449929   0.000004
    18  F    0.004590  -0.000603  -0.000070   0.001513   0.000004   9.028373
    19  F    0.308314  -0.054242  -0.000072   0.000004   0.001324  -0.000001
    20  H    0.000230   0.000037   0.000000   0.000000   0.000007   0.000000
    21  H    0.000013   0.000008   0.000000   0.000000  -0.000002   0.000000
    22  H   -0.000009   0.000001   0.000000   0.000000   0.000000   0.000000
    23  H    0.000168  -0.000007   0.000000   0.000001   0.000000  -0.000074
    24  H   -0.003060   0.000137   0.000011   0.000046   0.000041   0.000052
    25  H    0.000009   0.000000   0.000000   0.000000   0.000000   0.000000
    26  H    0.000000   0.000000   0.000000   0.000000   0.000000   0.000000
    27  H   -0.000005  -0.000001   0.000000   0.000000   0.000000   0.000000
    28  H   -0.000079   0.000001   0.000000   0.000000   0.000000  -0.000015
    29  H   -0.010012   0.001385   0.000003   0.000010  -0.000029   0.000234
    30  H    0.004711  -0.000141   0.000001  -0.000014   0.000016   0.004246
    31  H   -0.000563   0.000138   0.000002  -0.000002  -0.000024  -0.000015
    32  C    0.000001   0.000000   0.000000   0.000000   0.000000   0.000000
    33  H    0.000000   0.000000   0.000000   0.000000   0.000000  -0.000016
    34  H    0.000000   0.000000   0.000000   0.000000   0.000000   0.000000
    35  H   -0.000001   0.000000   0.000000   0.000000   0.000000   0.000001
    36  H   -0.000491   0.000153   0.000002   0.000019   0.000000   0.010193
              19         20         21         22         23         24
     1  C   -0.000017   0.388793   0.388663   0.387148  -0.038752  -0.041128
     2  C   -0.000135  -0.045411  -0.034609  -0.035780   0.390588   0.405144
     3  C   -0.001550  -0.002582   0.008154  -0.009212  -0.034367  -0.046114
     4  C    0.000045  -0.001836  -0.000252   0.003389  -0.012477   0.008431
     5  C   -0.000004  -0.000189   0.000013   0.000309  -0.000229  -0.000219
     6  O    0.000000   0.000001   0.000000  -0.000005  -0.000032   0.000011
     7  N    0.000005  -0.000029  -0.000273  -0.000101  -0.003056  -0.000015
     8  C   -0.005868   0.000038   0.000027  -0.000034   0.000496  -0.002237
     9  C    0.005569   0.000002   0.000003   0.000000   0.000000   0.000207
    10  C   -0.000511  -0.000004   0.000000   0.000000  -0.000031   0.000215
    11  C    0.005101  -0.000014   0.000008  -0.000001   0.000160  -0.001581
    12  C   -0.075632   0.000067  -0.000003   0.000002   0.000343  -0.001202
    13  C    0.308314   0.000230   0.000013  -0.000009   0.000168  -0.003060
    14  C   -0.054242   0.000037   0.000008   0.000001  -0.000007   0.000137
    15  H   -0.000072   0.000000   0.000000   0.000000   0.000000   0.000011
    16  H    0.000004   0.000000   0.000000   0.000000   0.000001   0.000046
    17  H    0.001324   0.000007  -0.000002   0.000000   0.000000   0.000041
    18  F   -0.000001   0.000000   0.000000   0.000000  -0.000074   0.000052
    19  F    9.032963  -0.000012  -0.000002   0.000000  -0.000004   0.000145
    20  H   -0.000012   0.481563  -0.026676  -0.027891   0.007538  -0.004670
    21  H   -0.000002  -0.026676   0.475402  -0.027900  -0.003655  -0.006913
    22  H    0.000000  -0.027891  -0.027900   0.477073  -0.006823   0.007182
    23  H   -0.000004   0.007538  -0.003655  -0.006823   0.493380  -0.035364
    24  H    0.000145  -0.004670  -0.006913   0.007182  -0.035364   0.478626
    25  H   -0.000006   0.000084   0.000391  -0.001013  -0.000350  -0.000067
    26  H    0.000000   0.000013  -0.000002   0.000002   0.000007   0.000015
    27  H   -0.000093  -0.000028   0.000000   0.000013  -0.000022  -0.000017
    28  H   -0.000005  -0.000004   0.000004   0.000010  -0.000036  -0.000012
    29  H    0.010127  -0.000013  -0.000001   0.000001  -0.000018   0.000118
    30  H    0.000160   0.000001  -0.000001   0.000000   0.000060  -0.000083
    31  H    0.009349   0.004695  -0.000126  -0.000284   0.006372  -0.006084
    32  C    0.000000   0.000280  -0.000060   0.000348   0.004691  -0.000345
    33  H    0.000000  -0.000011   0.000032  -0.000085  -0.000122  -0.000125
    34  H    0.000000   0.000012  -0.000004  -0.000034   0.000101   0.000015
    35  H    0.000000  -0.000130  -0.000004   0.002592  -0.001189   0.000347
    36  H   -0.000054   0.000050  -0.000051   0.000004   0.003955   0.000012
              25         26         27         28         29         30
     1  C    0.001750   0.000025  -0.000026  -0.000118   0.000028   0.000033
     2  C   -0.006912  -0.000348   0.000385   0.000898   0.000395  -0.000592
     3  C   -0.045474   0.008716  -0.009365  -0.000965  -0.009821   0.007475
     4  C    0.385720  -0.027581  -0.057696  -0.006496   0.000232  -0.000278
     5  C   -0.035498   0.387425   0.394025  -0.062993   0.000148  -0.000027
     6  O    0.005090  -0.033631  -0.039968   0.263572   0.002273   0.000492
     7  N    0.005348  -0.000493   0.000164   0.050774  -0.029147  -0.036776
     8  C   -0.000235   0.000102  -0.000463  -0.003014   0.404686   0.409707
     9  C    0.000000   0.000000   0.000000   0.000000  -0.000272  -0.000086
    10  C    0.000000   0.000000   0.000000  -0.000001   0.000114   0.000467
    11  C   -0.000003   0.000000   0.000003  -0.000047   0.006029  -0.009916
    12  C    0.000051   0.000010  -0.000224   0.001779  -0.052833  -0.057759
    13  C    0.000009   0.000000  -0.000005  -0.000079  -0.010012   0.004711
    14  C    0.000000   0.000000  -0.000001   0.000001   0.001385  -0.000141
    15  H    0.000000   0.000000   0.000000   0.000000   0.000003   0.000001
    16  H    0.000000   0.000000   0.000000   0.000000   0.000010  -0.000014
    17  H    0.000000   0.000000   0.000000   0.000000  -0.000029   0.000016
    18  F    0.000000   0.000000   0.000000  -0.000015   0.000234   0.004246
    19  F   -0.000006   0.000000  -0.000093  -0.000005   0.010127   0.000160
    20  H    0.000084   0.000013  -0.000028  -0.000004  -0.000013   0.000001
    21  H    0.000391  -0.000002   0.000000   0.000004  -0.000001  -0.000001
    22  H   -0.001013   0.000002   0.000013   0.000010   0.000001   0.000000
    23  H   -0.000350   0.000007  -0.000022  -0.000036  -0.000018   0.000060
    24  H   -0.000067   0.000015  -0.000017  -0.000012   0.000118  -0.000083
    25  H    0.507974  -0.003502   0.000716  -0.000447  -0.000159   0.000019
    26  H   -0.003502   0.505531  -0.046131   0.004682   0.000127   0.000000
    27  H    0.000716  -0.046131   0.542082   0.001410  -0.001148  -0.000003
    28  H   -0.000447   0.004682   0.001410   0.337411  -0.001229  -0.001903
    29  H   -0.000159   0.000127  -0.001148  -0.001229   0.425731  -0.022892
    30  H    0.000019   0.000000  -0.000003  -0.001903  -0.022892   0.447605
    31  H   -0.003522  -0.000503   0.005557   0.000801  -0.000261   0.000510
    32  C   -0.040275  -0.013380   0.011680   0.000437  -0.000124   0.000053
    33  H    0.008295  -0.001669   0.000811   0.001149  -0.000123   0.000010
    34  H   -0.004281   0.004219  -0.000025  -0.000156   0.000007  -0.000003
    35  H   -0.005735  -0.000200  -0.000211   0.000053  -0.000006  -0.000004
    36  H   -0.000206   0.000067  -0.000148  -0.001249   0.005714  -0.004511
              31         32         33         34         35         36
     1  C   -0.002353  -0.003087  -0.000024  -0.000009  -0.000447   0.000414
     2  C   -0.040577  -0.001259   0.000704  -0.000088   0.002225  -0.001874
     3  C    0.403030  -0.086827  -0.011614   0.007961  -0.007796  -0.056544
     4  C   -0.053173   0.257990  -0.039067  -0.033840  -0.036390   0.000679
     5  C   -0.004727  -0.087167  -0.007111  -0.004612   0.007019   0.000117
     6  O   -0.000903   0.007140   0.012929  -0.000485   0.000179   0.000510
     7  N   -0.036354  -0.001843   0.009670  -0.000388   0.000033   0.338492
     8  C   -0.002187  -0.000239  -0.000127   0.000015  -0.000044  -0.040914
     9  C   -0.000062   0.000000   0.000000   0.000000   0.000000  -0.000134
    10  C    0.000056   0.000000   0.000000   0.000000   0.000000   0.000536
    11  C    0.000063  -0.000005  -0.000004   0.000000   0.000001   0.002402
    12  C   -0.007445  -0.000065   0.000013   0.000001  -0.000007  -0.011103
    13  C   -0.000563   0.000001   0.000000   0.000000  -0.000001  -0.000491
    14  C    0.000138   0.000000   0.000000   0.000000   0.000000   0.000153
    15  H    0.000002   0.000000   0.000000   0.000000   0.000000   0.000002
    16  H   -0.000002   0.000000   0.000000   0.000000   0.000000   0.000019
    17  H   -0.000024   0.000000   0.000000   0.000000   0.000000   0.000000
    18  F   -0.000015   0.000000  -0.000016   0.000000   0.000001   0.010193
    19  F    0.009349   0.000000   0.000000   0.000000   0.000000  -0.000054
    20  H    0.004695   0.000280  -0.000011   0.000012  -0.000130   0.000050
    21  H   -0.000126  -0.000060   0.000032  -0.000004  -0.000004  -0.000051
    22  H   -0.000284   0.000348  -0.000085  -0.000034   0.002592   0.000004
    23  H    0.006372   0.004691  -0.000122   0.000101  -0.001189   0.003955
    24  H   -0.006084  -0.000345  -0.000125   0.000015   0.000347   0.000012
    25  H   -0.003522  -0.040275   0.008295  -0.004281  -0.005735  -0.000206
    26  H   -0.000503  -0.013380  -0.001669   0.004219  -0.000200   0.000067
    27  H    0.005557   0.011680   0.000811  -0.000025  -0.000211  -0.000148
    28  H    0.000801   0.000437   0.001149  -0.000156   0.000053  -0.001249
    29  H   -0.000261  -0.000124  -0.000123   0.000007  -0.000006   0.005714
    30  H    0.000510   0.000053   0.000010  -0.000003  -0.000004  -0.004511
    31  H    0.472612   0.007877   0.000184  -0.000241  -0.000135   0.005031
    32  C    0.007877   5.441295   0.381740   0.387575   0.386762   0.000946
    33  H    0.000184   0.381740   0.473643  -0.026423  -0.027024  -0.001063
    34  H   -0.000241   0.387575  -0.026423   0.470713  -0.028477   0.000041
    35  H   -0.000135   0.386762  -0.027024  -0.028477   0.479619  -0.000228
    36  H    0.005031   0.000946  -0.001063   0.000041  -0.000228   0.398774
 Mulliken charges:
               1
     1  C   -0.668293
     2  C   -0.474877
     3  C   -0.099050
     4  C   -0.322882
     5  C   -0.178199
     6  O   -0.619169
     7  N   -0.602652
     8  C   -0.408857
     9  C   -0.190885
    10  C   -0.282490
    11  C    0.341874
    12  C   -0.162907
    13  C    0.334708
    14  C   -0.282242
    15  H    0.234900
    16  H    0.236288
    17  H    0.235693
    18  F   -0.234318
    19  F   -0.234900
    20  H    0.226087
    21  H    0.227817
    22  H    0.231098
    23  H    0.228750
    24  H    0.248482
    25  H    0.232239
    26  H    0.216500
    27  H    0.198729
    28  H    0.415785
    29  H    0.270725
    30  H    0.259426
    31  H    0.243264
    32  C   -0.654139
    33  H    0.225427
    34  H    0.228406
    35  H    0.229198
    36  H    0.350461
 Sum of Mulliken charges =   0.00000
 Mulliken charges with hydrogens summed into heavy atoms:
               1
     1  C    0.016708
     2  C    0.002354
     3  C    0.144214
     4  C   -0.090643
     5  C    0.237030
     6  O   -0.203384
     7  N   -0.252190
     8  C    0.121295
     9  C    0.044016
    10  C   -0.046202
    11  C    0.341874
    12  C   -0.162907
    13  C    0.334708
    14  C   -0.046549
    18  F   -0.234318
    19  F   -0.234900
    32  C    0.028893
 Electronic spatial extent (au):  <R**2>=           4575.9361
 Charge=              0.0000 electrons
 Dipole moment (field-independent basis, Debye):
    X=              4.4686    Y=              3.2698    Z=             -1.3863  Tot=              5.7081
 Quadrupole moment (field-independent basis, Debye-Ang):
   XX=           -101.2065   YY=           -107.2817   ZZ=           -102.4594
   XY=             -7.0513   XZ=              0.7984   YZ=              2.0276
 Traceless Quadrupole moment (field-independent basis, Debye-Ang):
   XX=              2.4427   YY=             -3.6325   ZZ=              1.1898
   XY=             -7.0513   XZ=              0.7984   YZ=              2.0276
 Octapole moment (field-independent basis, Debye-Ang**2):
  XXX=             98.4005  YYY=             -6.0197  ZZZ=             -0.7217  XYY=             26.3619
  XXY=             57.2444  XXZ=            -16.2079  XZZ=              6.7351  YZZ=             -1.4889
  YYZ=              0.6515  XYZ=             -6.3335
 Hexadecapole moment (field-independent basis, Debye-Ang**3):
 XXXX=          -3857.6254 YYYY=          -1124.0220 ZZZZ=           -830.9454 XXXY=            -41.1281
 XXXZ=            -54.3563 YYYX=            -26.6845 YYYZ=             40.9055 ZZZX=            -23.3585
 ZZZY=             30.8403 XXYY=           -939.0401 XXZZ=           -799.2539 YYZZ=           -323.7196
 XXYZ=             68.3091 YYXZ=             35.5674 ZZXY=             -3.0360
 N-N= 1.302916936894D+03 E-N=-4.563348488426D+03  KE= 8.333464104430D+02
 1\1\GINC-CPU-E-903\SP\RmPW1PW91\6-311G(d)\C13H19F2N1O1\AH809\04-Mar-20
 19\0\\# mPW1PW91/6-311g(d) nmr=giao scrf=(solvent=chloroform)\\AT3_2gi
 np010\\0,1\C,0,-2.72684,-2.862949,0.48529\C,0,-3.60663,-1.635589,0.683
 332\C,0,-3.625748,-1.113306,2.139553\C,0,-2.211613,-0.708906,2.667555\
 C,0,-2.261,-0.272434,4.145646\O,0,-2.908841,0.981738,4.315323\N,0,-4.5
 51649,0.032504,2.255512\C,0,-5.857954,-0.305383,2.839786\C,0,-8.480682
 ,-2.571709,0.264043\C,0,-8.210963,-1.232468,-0.012071\C,0,-7.36267,-0.
 509593,0.82563\C,0,-6.767426,-1.094146,1.945195\C,0,-7.051643,-2.43594
 8,2.203703\C,0,-7.897431,-3.174933,1.377128\H,0,-9.141195,-3.14195,-0.
 38428\H,0,-8.654627,-0.744203,-0.874803\H,0,-8.094557,-4.217555,1.6089
 05\F,0,-7.113132,0.775013,0.533358\F,0,-6.500639,-3.044555,3.263615\H,
 0,-2.993574,-3.655683,1.191204\H,0,-2.856312,-3.255822,-0.528503\H,0,-
 1.66684,-2.625208,0.61073\H,0,-3.287493,-0.848942,-0.010481\H,0,-4.621
 187,-1.912025,0.377271\H,0,-1.578547,-1.604909,2.642255\H,0,-1.24679,-
 0.176475,4.547261\H,0,-2.787229,-1.016574,4.752867\H,0,-3.658981,0.975
 833,3.682446\H,0,-5.717775,-0.807374,3.805264\H,0,-6.364242,0.636041,3
 .088841\H,0,-3.969945,-1.934402,2.783219\C,0,-1.522641,0.366837,1.8173
 98\H,0,-2.124251,1.277525,1.736246\H,0,-0.557775,0.642439,2.257275\H,0
 ,-1.320263,0.003535,0.805498\H,0,-4.697715,0.474171,1.345253\\Version=
 ES64L-G09RevD.01\State=1-A\HF=-836.4650671\RMSD=7.708e-09\Dipole=-1.02
 84048,-1.319009,-1.4986344\Quadrupole=4.750074,-2.7241469,-2.0259271,-
 1.9174348,-0.2515577,-3.8744914\PG=C01 [X(C13H19F2N1O1)]\\@


 I DON'T EXACTLY UNDERSTAND WHAT YOU ARE SAYING,
 BUT YOU ARE ABSOLUTELY RIGHT.
     M.S.GORDON, IN A NDSU FACULTY MEETING
 Job cpu time:       0 days  0 hours 17 minutes 45.6 seconds.
 File lengths (MBytes):  RWF=    176 Int=      0 D2E=      0 Chk=     10 Scr=      1
 Normal termination of Gaussian 09 at Mon Mar  4 11:29:45 2019.
