 Entering Gaussian System, Link 0=/usr/local/Cluster-Apps/gaussian/g09/g09
 Initial command:
 /usr/local/Cluster-Apps/gaussian/g09/l1.exe "/home/ke291/rds/hpc-work/26Jun1304IP1NMR/Gau-42340.inp" -scrdir="/home/ke291/rds/hpc-work/26Jun1304IP1NMR/"
 Entering Link 1 = /usr/local/Cluster-Apps/gaussian/g09/l1.exe PID=     42345.
  
 Copyright (c) 1988,1990,1992,1993,1995,1998,2003,2009,2013,
            Gaussian, Inc.  All Rights Reserved.
  
 This is part of the Gaussian(R) 09 program.  It is based on
 the Gaussian(R) 03 system (copyright 2003, Gaussian, Inc.),
 the Gaussian(R) 98 system (copyright 1998, Gaussian, Inc.),
 the Gaussian(R) 94 system (copyright 1995, Gaussian, Inc.),
 the Gaussian 92(TM) system (copyright 1992, Gaussian, Inc.),
 the Gaussian 90(TM) system (copyright 1990, Gaussian, Inc.),
 the Gaussian 88(TM) system (copyright 1988, Gaussian, Inc.),
 the Gaussian 86(TM) system (copyright 1986, Carnegie Mellon
 University), and the Gaussian 82(TM) system (copyright 1983,
 Carnegie Mellon University). Gaussian is a federally registered
 trademark of Gaussian, Inc.
  
 This software contains proprietary and confidential information,
 including trade secrets, belonging to Gaussian, Inc.
  
 This software is provided under written license and may be
 used, copied, transmitted, or stored only in accord with that
 written license.
  
 The following legend is applicable only to US Government
 contracts under FAR:
  
                    RESTRICTED RIGHTS LEGEND
  
 Use, reproduction and disclosure by the US Government is
 subject to restrictions as set forth in subparagraphs (a)
 and (c) of the Commercial Computer Software - Restricted
 Rights clause in FAR 52.227-19.
  
 Gaussian, Inc.
 340 Quinnipiac St., Bldg. 40, Wallingford CT 06492
  
  
 ---------------------------------------------------------------
 Warning -- This program may not be used in any manner that
 competes with the business of Gaussian, Inc. or will provide
 assistance to any competitor of Gaussian, Inc.  The licensee
 of this program is prohibited from giving any competitor of
 Gaussian, Inc. access to this program.  By using this program,
 the user acknowledges that Gaussian, Inc. is engaged in the
 business of creating and licensing software in the field of
 computational chemistry and represents and warrants to the
 licensee that it is not a competitor of Gaussian, Inc. and that
 it will not use this program in any manner prohibited above.
 ---------------------------------------------------------------
  

 Cite this work as:
 Gaussian 09, Revision D.01,
 M. J. Frisch, G. W. Trucks, H. B. Schlegel, G. E. Scuseria, 
 M. A. Robb, J. R. Cheeseman, G. Scalmani, V. Barone, B. Mennucci, 
 G. A. Petersson, H. Nakatsuji, M. Caricato, X. Li, H. P. Hratchian, 
 A. F. Izmaylov, J. Bloino, G. Zheng, J. L. Sonnenberg, M. Hada, 
 M. Ehara, K. Toyota, R. Fukuda, J. Hasegawa, M. Ishida, T. Nakajima, 
 Y. Honda, O. Kitao, H. Nakai, T. Vreven, J. A. Montgomery, Jr., 
 J. E. Peralta, F. Ogliaro, M. Bearpark, J. J. Heyd, E. Brothers, 
 K. N. Kudin, V. N. Staroverov, T. Keith, R. Kobayashi, J. Normand, 
 K. Raghavachari, A. Rendell, J. C. Burant, S. S. Iyengar, J. Tomasi, 
 M. Cossi, N. Rega, J. M. Millam, M. Klene, J. E. Knox, J. B. Cross, 
 V. Bakken, C. Adamo, J. Jaramillo, R. Gomperts, R. E. Stratmann, 
 O. Yazyev, A. J. Austin, R. Cammi, C. Pomelli, J. W. Ochterski, 
 R. L. Martin, K. Morokuma, V. G. Zakrzewski, G. A. Voth, 
 P. Salvador, J. J. Dannenberg, S. Dapprich, A. D. Daniels, 
 O. Farkas, J. B. Foresman, J. V. Ortiz, J. Cioslowski, 
 and D. J. Fox, Gaussian, Inc., Wallingford CT, 2013.
 
 ******************************************
 Gaussian 09:  ES64L-G09RevD.01 24-Apr-2013
                26-Jun-2019 
 ******************************************
 %nprocshared=4
 Will use up to    4 processors via shared memory.
 %mem=6000MB
 %chk=IP1_2ginp008.chk
 --------------------------------------------------------
 # m062x/def2tzvp int=ultrafine scrf=(solvent=chloroform)
 --------------------------------------------------------
 1/38=1/1;
 2/12=2,17=6,18=5,40=1/2;
 3/5=44,7=101,11=2,16=1,25=1,30=1,70=2201,72=7,74=-55,75=-5/1,2,3;
 4//1;
 5/5=2,38=5,53=7/2;
 6/7=2,8=2,9=2,10=2,28=1/1;
 99/5=1,9=1/99;
 ------------
 IP1_2ginp008
 ------------
 Symbolic Z-matrix:
 Charge =  0 Multiplicity = 1
 C                    -2.21948  -0.17157  -0.30781 
 C                    -0.8156   -0.2308   -0.93604 
 C                     0.13457   0.77686  -0.21279 
 C                    -0.29596   0.92166   1.27964 
 C                    -1.12936  -0.19969   1.85423 
 H                    -2.58133   0.86604  -0.26546 
 H                    -0.44504  -1.23294  -0.68452 
 H                     0.5792    1.06537   1.9125 
 H                    -0.90696   1.82747   1.38427 
 O                    -2.12161  -0.66687   1.06224 
 O                    -0.99778  -0.65388   2.97155 
 C                    -3.27968  -1.03636  -0.98534 
 C                    -4.63853  -0.99768  -0.27901 
 C                    -0.80972  -0.10482  -2.46508 
 O                     1.49135   0.34874  -0.29682 
 Si                    2.35915  -1.07944  -0.08456 
 C                     2.41321  -2.05248  -1.70076 
 C                     4.09253  -0.49417   0.35427 
 C                     1.66773  -2.16887   1.29104 
 H                     4.77701  -1.34366   0.45734 
 H                     4.49395   0.16586  -0.4219 
 H                     4.09866   0.05785   1.29994 
 H                     1.50835  -1.61422   2.22023 
 H                     0.71756  -2.64104   1.02093 
 H                     2.38188  -2.97429   1.50032 
 H                     3.06437  -2.92811  -1.59429 
 H                     1.42502  -2.41303  -2.00433 
 H                     2.8125   -1.44043  -2.51669 
 H                     0.21711  -0.05366  -2.83607 
 H                    -1.28309  -0.97405  -2.92779 
 H                    -1.33956   0.78792  -2.81146 
 H                    -2.90971  -2.06796  -1.03842 
 H                    -3.39467  -0.68572  -2.01594 
 H                    -4.56042  -1.36341   0.74751 
 H                    -5.03644   0.02279  -0.2444 
 H                    -5.36443  -1.62078  -0.80968 
 C                     0.10751   2.17965  -0.87763 
 C                     0.9267    3.21428  -0.15629 
 C                     0.4593    4.38418   0.28249 
 H                    -0.93012   2.52418  -0.96169 
 H                     0.49845   2.06474  -1.89453 
 H                     1.97543   2.96408  -0.00646 
 H                     1.1007    5.10267   0.78457 
 H                    -0.58157   4.67138   0.14869 
 
                          Input orientation:                          
 ---------------------------------------------------------------------
 Center     Atomic      Atomic             Coordinates (Angstroms)
 Number     Number       Type             X           Y           Z
 ---------------------------------------------------------------------
      1          6           0       -2.219480   -0.171568   -0.307807
      2          6           0       -0.815599   -0.230796   -0.936042
      3          6           0        0.134572    0.776862   -0.212786
      4          6           0       -0.295957    0.921660    1.279640
      5          6           0       -1.129364   -0.199689    1.854226
      6          1           0       -2.581330    0.866035   -0.265464
      7          1           0       -0.445035   -1.232936   -0.684516
      8          1           0        0.579197    1.065375    1.912497
      9          1           0       -0.906955    1.827472    1.384270
     10          8           0       -2.121607   -0.666866    1.062235
     11          8           0       -0.997782   -0.653882    2.971548
     12          6           0       -3.279675   -1.036358   -0.985342
     13          6           0       -4.638532   -0.997676   -0.279010
     14          6           0       -0.809721   -0.104817   -2.465080
     15          8           0        1.491347    0.348737   -0.296821
     16         14           0        2.359151   -1.079445   -0.084562
     17          6           0        2.413207   -2.052478   -1.700761
     18          6           0        4.092535   -0.494165    0.354268
     19          6           0        1.667726   -2.168871    1.291043
     20          1           0        4.777010   -1.343658    0.457337
     21          1           0        4.493951    0.165859   -0.421904
     22          1           0        4.098664    0.057848    1.299938
     23          1           0        1.508352   -1.614218    2.220225
     24          1           0        0.717563   -2.641041    1.020929
     25          1           0        2.381880   -2.974290    1.500321
     26          1           0        3.064371   -2.928107   -1.594292
     27          1           0        1.425017   -2.413033   -2.004332
     28          1           0        2.812501   -1.440433   -2.516689
     29          1           0        0.217112   -0.053662   -2.836074
     30          1           0       -1.283085   -0.974054   -2.927787
     31          1           0       -1.339559    0.787920   -2.811458
     32          1           0       -2.909708   -2.067957   -1.038419
     33          1           0       -3.394668   -0.685722   -2.015945
     34          1           0       -4.560420   -1.363411    0.747510
     35          1           0       -5.036440    0.022789   -0.244397
     36          1           0       -5.364432   -1.620777   -0.809678
     37          6           0        0.107514    2.179647   -0.877632
     38          6           0        0.926704    3.214284   -0.156290
     39          6           0        0.459295    4.384177    0.282494
     40          1           0       -0.930124    2.524180   -0.961689
     41          1           0        0.498451    2.064739   -1.894530
     42          1           0        1.975433    2.964084   -0.006459
     43          1           0        1.100696    5.102668    0.784566
     44          1           0       -0.581573    4.671377    0.148692
 ---------------------------------------------------------------------
                    Distance matrix (angstroms):
                    1          2          3          4          5
     1  C    0.000000
     2  C    1.539178   0.000000
     3  C    2.539707   1.562466   0.000000
     4  C    2.723064   2.550966   1.560018   0.000000
     5  C    2.421473   2.808026   2.612226   1.510675   0.000000
     6  H    1.099704   2.184152   2.717876   2.759234   2.781557
     7  H    2.101682   1.097665   2.144239   2.919318   2.825087
     8  H    3.780525   3.426323   2.190379   1.089521   2.126726
     9  H    2.929506   3.103008   2.176958   1.097616   2.092775
    10  O    1.460108   2.426711   2.966542   2.429748   1.352794
    11  O    3.532611   3.934648   3.670046   2.416080   1.213266
    12  C    1.526738   2.592881   3.942295   4.226884   3.658825
    13  C    2.556383   3.954063   5.092729   4.997119   4.183508
    14  C    2.577926   1.534230   2.596512   3.916700   4.332156
    15  O    3.747142   2.463019   1.425199   2.451107   3.434516
    16  Si   4.673108   3.394740   2.900184   3.593754   4.086882
    17  C    5.190369   3.785302   3.925737   5.006781   5.349820
    18  C    6.354836   5.081736   4.195537   4.703162   5.441031
    19  C    4.653591   3.857842   3.645464   3.661634   3.466780
    20  H    7.135132   5.870029   5.147611   5.616301   6.176181
    21  H    6.722874   5.349112   4.406954   5.139037   6.077505
    22  H    6.523528   5.406746   4.303410   4.478758   5.263633
    23  H    4.729579   4.156516   3.677510   3.251293   3.015360
    24  H    4.060795   3.462600   3.680216   3.713084   3.172652
    25  H    5.683053   4.866877   4.696410   4.732646   4.489153
    26  H    6.096936   4.771053   4.921288   5.862763   6.076508
    27  H    4.602686   3.305111   3.879474   4.986622   5.129544
    28  H    5.640036   4.138209   4.170812   5.445559   6.015201
    29  H    3.513263   2.169790   2.752857   4.260704   4.881929
    30  H    2.895706   2.176700   3.527986   4.719173   4.846743
    31  H    2.821905   2.197613   2.987688   4.224225   4.773695
    32  H    2.146276   2.787640   4.247624   4.598141   3.876525
    33  H    2.136155   2.832798   4.224461   4.800684   4.510660
    34  H    2.830933   4.259207   5.248418   4.867274   3.788300
    35  H    2.824369   4.284644   5.225800   5.059925   4.440603
    36  H    3.498972   4.758140   6.028598   6.043068   5.201123
    37  C    3.356756   2.581818   1.552597   2.529653   3.828075
    38  C    4.624438   3.938554   2.563531   2.968656   4.463721
    39  C    5.317810   4.940462   3.655608   3.681539   5.099608
    40  H    3.058931   2.757475   2.178888   2.827330   3.922822
    41  H    3.860817   2.813345   2.149255   3.465987   4.672321
    42  H    5.245991   4.342953   2.866231   3.314326   4.807429
    43  H    6.327275   5.922712   4.543204   4.435828   5.850840
    44  H    5.132762   5.026203   3.976277   3.926958   5.190010
                    6          7          8          9         10
     6  H    0.000000
     7  H    3.024077   0.000000
     8  H    3.843460   3.616042   0.000000
     9  H    2.539590   3.722814   1.751703   0.000000
    10  O    2.079403   2.486457   3.319329   2.792993   0.000000
    11  O    3.911012   3.742678   2.562088   2.947002   2.215542
    12  C    2.150583   2.857328   5.263615   4.409805   2.381222
    13  C    2.775911   4.219621   6.023585   4.967155   2.871112
    14  C    2.986547   2.139172   4.739369   4.308212   3.805114
    15  O    4.105518   2.530133   2.495330   3.280941   3.991481
    16  Si   5.312812   2.871753   3.428809   4.612492   4.643550
    17  C    5.960134   3.142284   5.112752   5.966146   5.488042
    18  C    6.839202   4.713215   4.147745   5.607656   6.256725
    19  C    5.448655   3.040159   3.468638   4.754832   4.082575
    20  H    7.716887   5.346573   5.053965   6.574399   6.958079
    21  H    7.111562   5.139959   4.645843   5.932370   6.830938
    22  H    6.908398   5.123415   3.711736   5.309887   6.266856
    23  H    5.390344   3.521167   2.852761   4.286929   3.926197
    24  H    4.983682   2.498587   3.814650   4.768510   3.458317
    25  H    6.519168   3.974579   4.442797   5.821239   5.079126
    26  H    6.930746   4.002153   5.866989   6.874503   6.250177
    27  H    5.461389   2.575197   5.306249   5.907842   5.003146
    28  H    6.283408   3.743188   5.557374   6.303256   6.144308
    29  H    3.909624   2.541324   4.892063   4.755365   4.587204
    30  H    3.487023   2.408654   5.572765   5.155954   4.088736
    31  H    2.833758   3.067232   5.106306   4.344186   4.211116
    32  H    3.051819   2.626237   5.540590   5.005478   2.645167
    33  H    2.476621   3.282146   5.855818   4.905744   3.331101
    34  H    3.148546   4.359371   5.802746   4.892341   2.555785
    35  H    2.595972   4.780329   6.105289   4.791877   3.267899
    36  H    3.771745   4.936249   7.067699   6.047556   3.863925
    37  C    3.054539   3.462416   3.041202   2.503872   4.103011
    38  C    4.222854   4.683851   3.003074   2.767468   5.083338
    39  C    4.682198   5.771038   3.699423   3.101176   5.725564
    40  H    2.441445   3.798428   3.559088   2.447338   3.962155
    41  H    3.684535   3.637164   3.936839   3.575191   4.803002
    42  H    5.023244   4.892178   3.039237   3.396200   5.577781
    43  H    5.710424   6.684861   4.224207   3.888086   6.614216
    44  H    4.318701   5.964377   4.178713   3.117743   5.630551
                   11         12         13         14         15
    11  O    0.000000
    12  C    4.583700   0.000000
    13  C    4.892789   1.531957   0.000000
    14  C    5.467519   3.026230   4.498432   0.000000
    15  O    4.228858   5.015496   6.276031   3.194053   0.000000
    16  Si   4.559596   5.710483   7.000862   4.081484   1.684589
    17  C    5.951587   5.826940   7.270557   3.842503   2.930308
    18  C    5.725993   7.512523   8.768472   5.668547   2.810797
    19  C    3.496315   5.562490   6.603458   4.950406   2.981740
    20  H    6.336030   8.190600   9.450627   6.425481   3.772073
    21  H    6.507428   7.886194   9.207414   5.690059   3.010767
    22  H    5.410601   7.801261   8.941242   6.188220   3.071214
    23  H    2.787013   5.790923   6.664119   5.440941   3.192022
    24  H    3.270493   4.751636   5.751369   4.573542   3.357675
    25  H    4.355562   6.479761   7.507277   5.843338   3.881401
    26  H    6.520742   6.648041   8.049301   4.872148   3.859474
    27  H    5.807232   5.006766   6.461161   3.245644   3.247671
    28  H    6.727382   6.294673   7.792377   3.860962   3.142354
    29  H    5.963615   4.076570   5.568395   1.092996   2.869391
    30  H    5.914902   2.786278   4.274997   1.092586   4.045891
    31  H    5.969821   3.229046   4.526021   1.094388   3.811864
    32  H    4.662071   1.097219   2.170492   3.209241   5.075398
    33  H    5.533639   1.094674   2.159041   2.687215   5.281916
    34  H    4.259362   2.179460   1.092523   5.096326   6.375419
    35  H    5.206817   2.181058   1.095846   4.776282   6.536130
    36  H    5.856636   2.172237   1.093981   5.077783   7.151483
    37  C    4.905788   4.671974   5.742707   2.929179   2.367397
    38  C    5.333828   6.037293   6.980510   4.400240   2.924026
    39  C    5.893736   6.705931   7.434209   5.413929   4.205415
    40  H    5.057174   4.265956   5.159633   3.030892   3.322367
    41  H    5.771337   4.971686   6.194908   2.596886   2.546209
    42  H    5.549614   6.676669   7.714555   4.818719   2.675573
    43  H    6.505718   7.746474   8.442993   6.428670   4.890998
    44  H    6.041534   6.414361   6.984269   5.449393   4.814633
                   16         17         18         19         20
    16  Si   0.000000
    17  C    1.887277   0.000000
    18  C    1.881421   3.077601   0.000000
    19  C    1.886056   3.085479   3.092230   0.000000
    20  H    2.491888   3.278319   1.095795   3.323205   0.000000
    21  H    2.494384   3.299392   1.095084   4.046319   1.769697
    22  H    2.497235   4.037132   1.095010   3.296637   1.770409
    23  H    2.514336   4.047835   3.378508   1.093809   3.723587
    24  H    2.521012   3.260247   4.055114   1.094859   4.298831
    25  H    2.470386   3.331313   3.223476   1.096592   3.079517
    26  H    2.488809   1.096392   3.282999   3.294270   3.106894
    27  H    2.517256   1.094840   4.044836   3.313309   4.294093
    28  H    2.500216   1.095342   3.282728   4.042271   3.565598
    29  H    3.634746   3.179156   5.038971   4.859165   5.770902
    30  H    4.621787   4.041184   6.316603   5.285206   6.951289
    31  H    4.960188   4.835779   6.416635   5.883612   7.255416
    32  H    5.444986   5.363987   7.310801   5.137069   7.864320
    33  H    6.082080   5.974845   7.855750   6.226053   8.563079
    34  H    6.975202   7.422959   8.705392   6.303491   9.341959
    35  H    7.478986   7.869242   9.163178   7.218503   9.932946
    36  H    7.776411   7.840412   9.594699   7.359666  10.224039
    37  C    4.039865   4.889238   4.954517   5.103628   6.000001
    38  C    4.526937   5.686287   4.902627   5.623366   5.998019
    39  C    5.796149   7.012959   6.083075   6.739430   7.175049
    40  H    4.957297   5.715758   6.005768   5.817934   7.038834
    41  H    4.077264   4.544812   4.952022   5.425729   5.954369
    42  H    4.062446   5.313022   4.070839   5.303341   5.159514
    43  H    6.368486   7.687369   6.360880   7.311178   7.428155
    44  H    6.463298   7.589427   6.969388   7.290631   8.061657
                   21         22         23         24         25
    21  H    0.000000
    22  H    1.769932   0.000000
    23  H    4.366156   3.217522   0.000000
    24  H    4.921541   4.335169   1.765793   0.000000
    25  H    4.244565   3.490181   1.769494   1.763752   0.000000
    26  H    3.604278   4.285120   4.324123   3.525521   3.169315
    27  H    4.309654   4.916487   4.300225   3.115234   3.676029
    28  H    3.129788   4.297174   4.916234   4.283102   4.321403
    29  H    4.916071   5.673224   5.446907   4.671344   5.658676
    30  H    6.399453   6.921106   5.891007   4.730095   6.086136
    31  H    6.334569   6.856446   6.260886   5.538656   6.826036
    32  H    7.757847   7.687928   5.508529   4.210277   5.938648
    33  H    8.092989   8.227879   6.545750   5.473237   7.139340
    34  H    9.256772   8.792320   6.249943   5.437297   7.166393
    35  H    9.533118   9.264790   7.182510   6.465724   8.188895
    36  H   10.026473   9.839637   7.511026   6.432941   8.195941
    37  C    4.848078   5.017282   5.094357   5.216869   6.114775
    38  C    4.699861   4.705849   5.413000   5.976154   6.569653
    39  C    5.879527   5.744330   6.390310   7.068640   7.702368
    40  H    5.939161   6.040402   5.761691   5.772794   6.874884
    41  H    4.662445   5.214765   5.611224   5.540061   6.361142
    42  H    3.787557   3.828967   5.112449   5.835682   6.140022
    43  H    6.110796   5.890979   6.880687   7.756783   8.209201
    44  H    6.810743   6.671929   6.940298   7.477968   8.310546
                   26         27         28         29         30
    26  H    0.000000
    27  H    1.766611   0.000000
    28  H    1.768454   1.770190   0.000000
    29  H    4.232179   2.778032   2.959930   0.000000
    30  H    4.949435   3.202694   4.142504   1.762420   0.000000
    31  H    5.889393   4.305860   4.721446   1.769771   1.766713
    32  H    6.061227   4.454425   5.943294   4.131096   2.722542
    33  H    6.850202   5.119873   6.272900   3.757268   2.318054
    34  H    8.128330   6.670817   8.063553   6.114109   4.939669
    35  H    8.726577   7.126081   8.301217   5.858536   4.720376
    36  H    8.565597   6.939127   8.355157   6.141316   4.643493
    37  C    5.945230   4.908969   4.807124   2.972402   4.010328
    38  C    6.660814   5.943927   5.549244   4.285351   5.486943
    39  C    7.986128   7.236315   6.877433   5.429414   6.484785
    40  H    6.788491   5.568650   5.669517   3.387438   4.028370
    41  H    5.621619   4.573950   4.245956   2.335226   3.670934
    42  H    6.198783   5.762625   5.138259   4.495020   5.887362
    43  H    8.602810   8.023023   7.526004   6.362193   7.509363
    44  H    8.607152   7.671426   7.481859   5.645593   6.467436
                   31         32         33         34         35
    31  H    0.000000
    32  H    3.710131   0.000000
    33  H    2.651025   1.761056   0.000000
    34  H    5.260078   2.531951   3.074886   0.000000
    35  H    4.565321   3.086208   2.517099   1.769753   0.000000
    36  H    5.099858   2.505586   2.491862   1.771301   1.768737
    37  C    2.787581   5.212640   4.665981   6.081443   5.613670
    38  C    4.251248   6.587737   6.110861   7.202824   6.764059
    39  C    5.073606   7.397636   6.770504   7.645165   7.035796
    40  H    2.569802   5.001236   4.181974   5.586929   4.861409
    41  H    2.418534   5.424726   4.768244   6.657685   6.125971
    42  H    4.857250   7.088793   6.796845   7.874837   7.607509
    43  H    6.123992   8.415728   7.845803   8.594172   8.032955
    44  H    4.941485   7.228282   6.426326   7.253170   6.450560
                   36         37         38         39         40
    36  H    0.000000
    37  C    6.662585   0.000000
    38  C    7.961352   1.503955   0.000000
    39  C    8.436119   2.515869   1.334036   0.000000
    40  H    6.071809   1.096568   2.138392   2.634021   0.000000
    41  H    7.009517   1.095499   2.127518   3.181314   1.766948
    42  H    8.691359   2.205313   1.088523   2.097339   3.090023
    43  H    9.462780   3.506189   2.116950   1.086140   3.717827
    44  H    7.961496   2.781528   2.119206   1.088023   2.442312
                   41         42         43         44
    41  H    0.000000
    42  H    2.560295   0.000000
    43  H    4.095030   2.442218   0.000000
    44  H    3.483643   3.078506   1.849426   0.000000
 Stoichiometry    C14H26O3Si
 Framework group  C1[X(C14H26O3Si)]
 Deg. of freedom   126
 Full point group                 C1      NOp   1
 Largest Abelian subgroup         C1      NOp   1
 Largest concise Abelian subgroup C1      NOp   1
                         Standard orientation:                         
 ---------------------------------------------------------------------
 Center     Atomic      Atomic             Coordinates (Angstroms)
 Number     Number       Type             X           Y           Z
 ---------------------------------------------------------------------
      1          6           0       -2.219480   -0.171568   -0.307807
      2          6           0       -0.815599   -0.230796   -0.936042
      3          6           0        0.134572    0.776862   -0.212786
      4          6           0       -0.295957    0.921660    1.279640
      5          6           0       -1.129364   -0.199689    1.854226
      6          1           0       -2.581330    0.866035   -0.265464
      7          1           0       -0.445035   -1.232936   -0.684516
      8          1           0        0.579197    1.065375    1.912497
      9          1           0       -0.906955    1.827472    1.384270
     10          8           0       -2.121607   -0.666866    1.062235
     11          8           0       -0.997782   -0.653882    2.971548
     12          6           0       -3.279675   -1.036358   -0.985342
     13          6           0       -4.638532   -0.997676   -0.279010
     14          6           0       -0.809721   -0.104817   -2.465080
     15          8           0        1.491347    0.348737   -0.296821
     16         14           0        2.359151   -1.079445   -0.084562
     17          6           0        2.413207   -2.052478   -1.700761
     18          6           0        4.092535   -0.494165    0.354268
     19          6           0        1.667726   -2.168871    1.291043
     20          1           0        4.777010   -1.343658    0.457337
     21          1           0        4.493951    0.165859   -0.421904
     22          1           0        4.098664    0.057848    1.299938
     23          1           0        1.508352   -1.614218    2.220225
     24          1           0        0.717563   -2.641041    1.020929
     25          1           0        2.381880   -2.974290    1.500321
     26          1           0        3.064371   -2.928107   -1.594292
     27          1           0        1.425017   -2.413033   -2.004332
     28          1           0        2.812501   -1.440433   -2.516689
     29          1           0        0.217112   -0.053662   -2.836074
     30          1           0       -1.283085   -0.974054   -2.927787
     31          1           0       -1.339559    0.787920   -2.811458
     32          1           0       -2.909708   -2.067957   -1.038419
     33          1           0       -3.394668   -0.685722   -2.015945
     34          1           0       -4.560420   -1.363411    0.747510
     35          1           0       -5.036440    0.022789   -0.244397
     36          1           0       -5.364432   -1.620777   -0.809678
     37          6           0        0.107514    2.179647   -0.877632
     38          6           0        0.926704    3.214284   -0.156290
     39          6           0        0.459295    4.384177    0.282494
     40          1           0       -0.930124    2.524180   -0.961689
     41          1           0        0.498451    2.064739   -1.894530
     42          1           0        1.975433    2.964084   -0.006459
     43          1           0        1.100696    5.102668    0.784566
     44          1           0       -0.581573    4.671377    0.148692
 ---------------------------------------------------------------------
 Rotational constants (GHZ):      0.4255466      0.2923353      0.2508561
 Standard basis: def2TZVP (5D, 7F)
 There are   810 symmetry adapted cartesian basis functions of A   symmetry.
 There are   720 symmetry adapted basis functions of A   symmetry.
   720 basis functions,  1144 primitive gaussians,   810 cartesian basis functions
    74 alpha electrons       74 beta electrons
       nuclear repulsion energy      1633.1664608619 Hartrees.
 NAtoms=   44 NActive=   44 NUniq=   44 SFac= 1.00D+00 NAtFMM=   60 NAOKFM=F Big=F
 Integral buffers will be    131072 words long.
 Raffenetti 2 integral format.
 Two-electron integral symmetry is turned on.
 ------------------------------------------------------------------------------
 Polarizable Continuum Model (PCM)
 =================================
 Model                : PCM (using non-symmetric T matrix).
 Atomic radii         : UFF (Universal Force Field).
 Polarization charges : Total charges.
 Charge compensation  : None.
 Solution method      : On-the-fly selection.
 Cavity type          : Scaled VdW (van der Waals Surface) (Alpha=1.100).
 Cavity algorithm     : GePol (No added spheres)
                        Default sphere list used, NSphG=   44.
                        Lebedev-Laikov grids with approx.  5.0 points / Ang**2.
                        Smoothing algorithm: Karplus/York (Gamma=1.0000).
                        Polarization charges: spherical gaussians, with
                                              point-specific exponents (IZeta= 3).
                        Self-potential: point-specific (ISelfS= 7).
                        Self-field    : sphere-specific E.n sum rule (ISelfD= 2).
 Solvent              : Chloroform, Eps=   4.711300 Eps(inf)=   2.090627
 ------------------------------------------------------------------------------
 One-electron integrals computed using PRISM.
   1 Symmetry operations used in ECPInt.
 ECPInt:  NShTT=   46360 NPrTT=  137514 LenC2=   42222 LenP2D=   90464.
 LDataN:  DoStor=T MaxTD1= 6 Len=  172
 NBasis=   720 RedAO= T EigKep=  2.72D-05  NBF=   720
 NBsUse=   720 1.00D-06 EigRej= -1.00D+00 NBFU=   720
 ExpMin= 7.01D-02 ExpMax= 4.48D+04 ExpMxC= 1.53D+03 IAcc=3 IRadAn=         5 AccDes= 0.00D+00
 Harris functional with IExCor= 1009 and IRadAn=       5 diagonalized for initial guess.
 HarFok:  IExCor= 1009 AccDes= 0.00D+00 IRadAn=         5 IDoV= 1 UseB2=F ITyADJ=14
 ICtDFT=  3500011 ScaDFX=  1.000000  1.000000  1.000000  1.000000
 FoFCou: FMM=F IPFlag=           0 FMFlag=      100000 FMFlg1=           0
         NFxFlg=           0 DoJE=T BraDBF=F KetDBF=T FulRan=T
         wScrn=  0.000000 ICntrl=     500 IOpCl=  0 I1Cent=   200000004 NGrid=           0
         NMat0=    1 NMatS0=      1 NMatT0=    0 NMatD0=    1 NMtDS0=    0 NMtDT0=    0
 Petite list used in FoFCou.
 Requested convergence on RMS density matrix=1.00D-08 within 128 cycles.
 Requested convergence on MAX density matrix=1.00D-06.
 Requested convergence on             energy=1.00D-06.
 No special actions if energy rises.
 Inv3:  Mode=1 IEnd=    24969675.
 Iteration    1 A*A^-1 deviation from unit magnitude is 5.44D-15 for   2885.
 Iteration    1 A*A^-1 deviation from orthogonality  is 3.83D-15 for   2242   1778.
 Iteration    1 A^-1*A deviation from unit magnitude is 5.33D-15 for   2885.
 Iteration    1 A^-1*A deviation from orthogonality  is 4.20D-12 for   2516   2242.
 Error on total polarization charges =  0.01474
 SCF Done:  E(RM062X) =  -1064.34048580     A.U. after   14 cycles
            NFock= 14  Conv=0.10D-08     -V/T= 2.0047

 **********************************************************************

            Population analysis using the SCF density.

 **********************************************************************

 Orbital symmetries:
       Occupied  (A) (A) (A) (A) (A) (A) (A) (A) (A) (A) (A) (A)
                 (A) (A) (A) (A) (A) (A) (A) (A) (A) (A) (A) (A)
                 (A) (A) (A) (A) (A) (A) (A) (A) (A) (A) (A) (A)
                 (A) (A) (A) (A) (A) (A) (A) (A) (A) (A) (A) (A)
                 (A) (A) (A) (A) (A) (A) (A) (A) (A) (A) (A) (A)
                 (A) (A) (A) (A) (A) (A) (A) (A) (A) (A) (A) (A)
                 (A) (A)
       Virtual   (A) (A) (A) (A) (A) (A) (A) (A) (A) (A) (A) (A)
                 (A) (A) (A) (A) (A) (A) (A) (A) (A) (A) (A) (A)
                 (A) (A) (A) (A) (A) (A) (A) (A) (A) (A) (A) (A)
                 (A) (A) (A) (A) (A) (A) (A) (A) (A) (A) (A) (A)
                 (A) (A) (A) (A) (A) (A) (A) (A) (A) (A) (A) (A)
                 (A) (A) (A) (A) (A) (A) (A) (A) (A) (A) (A) (A)
                 (A) (A) (A) (A) (A) (A) (A) (A) (A) (A) (A) (A)
                 (A) (A) (A) (A) (A) (A) (A) (A) (A) (A) (A) (A)
                 (A) (A) (A) (A) (A) (A) (A) (A) (A) (A) (A) (A)
                 (A) (A) (A) (A) (A) (A) (A) (A) (A) (A) (A) (A)
                 (A) (A) (A) (A) (A) (A) (A) (A) (A) (A) (A) (A)
                 (A) (A) (A) (A) (A) (A) (A) (A) (A) (A) (A) (A)
                 (A) (A) (A) (A) (A) (A) (A) (A) (A) (A) (A) (A)
                 (A) (A) (A) (A) (A) (A) (A) (A) (A) (A) (A) (A)
                 (A) (A) (A) (A) (A) (A) (A) (A) (A) (A) (A) (A)
                 (A) (A) (A) (A) (A) (A) (A) (A) (A) (A) (A) (A)
                 (A) (A) (A) (A) (A) (A) (A) (A) (A) (A) (A) (A)
                 (A) (A) (A) (A) (A) (A) (A) (A) (A) (A) (A) (A)
                 (A) (A) (A) (A) (A) (A) (A) (A) (A) (A) (A) (A)
                 (A) (A) (A) (A) (A) (A) (A) (A) (A) (A) (A) (A)
                 (A) (A) (A) (A) (A) (A) (A) (A) (A) (A) (A) (A)
                 (A) (A) (A) (A) (A) (A) (A) (A) (A) (A) (A) (A)
                 (A) (A) (A) (A) (A) (A) (A) (A) (A) (A) (A) (A)
                 (A) (A) (A) (A) (A) (A) (A) (A) (A) (A) (A) (A)
                 (A) (A) (A) (A) (A) (A) (A) (A) (A) (A) (A) (A)
                 (A) (A) (A) (A) (A) (A) (A) (A) (A) (A) (A) (A)
                 (A) (A) (A) (A) (A) (A) (A) (A) (A) (A) (A) (A)
                 (A) (A) (A) (A) (A) (A) (A) (A) (A) (A) (A) (A)
                 (A) (A) (A) (A) (A) (A) (A) (A) (A) (A) (A) (A)
                 (A) (A) (A) (A) (A) (A) (A) (A) (A) (A) (A) (A)
                 (A) (A) (A) (A) (A) (A) (A) (A) (A) (A) (A) (A)
                 (A) (A) (A) (A) (A) (A) (A) (A) (A) (A) (A) (A)
                 (A) (A) (A) (A) (A) (A) (A) (A) (A) (A) (A) (A)
                 (A) (A) (A) (A) (A) (A) (A) (A) (A) (A) (A) (A)
                 (A) (A) (A) (A) (A) (A) (A) (A) (A) (A) (A) (A)
                 (A) (A) (A) (A) (A) (A) (A) (A) (A) (A) (A) (A)
                 (A) (A) (A) (A) (A) (A) (A) (A) (A) (A) (A) (A)
                 (A) (A) (A) (A) (A) (A) (A) (A) (A) (A) (A) (A)
                 (A) (A) (A) (A) (A) (A) (A) (A) (A) (A) (A) (A)
                 (A) (A) (A) (A) (A) (A) (A) (A) (A) (A) (A) (A)
                 (A) (A) (A) (A) (A) (A) (A) (A) (A) (A) (A) (A)
                 (A) (A) (A) (A) (A) (A) (A) (A) (A) (A) (A) (A)
                 (A) (A) (A) (A) (A) (A) (A) (A) (A) (A) (A) (A)
                 (A) (A) (A) (A) (A) (A) (A) (A) (A) (A) (A) (A)
                 (A) (A) (A) (A) (A) (A) (A) (A) (A) (A) (A) (A)
                 (A) (A) (A) (A) (A) (A) (A) (A) (A) (A) (A) (A)
                 (A) (A) (A) (A) (A) (A) (A) (A) (A) (A) (A) (A)
                 (A) (A) (A) (A) (A) (A) (A) (A) (A) (A) (A) (A)
                 (A) (A) (A) (A) (A) (A) (A) (A) (A) (A) (A) (A)
                 (A) (A) (A) (A) (A) (A) (A) (A) (A) (A) (A) (A)
                 (A) (A) (A) (A) (A) (A) (A) (A) (A) (A) (A) (A)
                 (A) (A) (A) (A) (A) (A) (A) (A) (A) (A) (A) (A)
                 (A) (A) (A) (A) (A) (A) (A) (A) (A) (A) (A) (A)
                 (A) (A) (A) (A) (A) (A) (A) (A) (A) (A)
 The electronic state is 1-A.
 Alpha  occ. eigenvalues --  -67.01533 -19.67268 -19.61793 -19.61707 -10.67950
 Alpha  occ. eigenvalues --  -10.62425 -10.61192 -10.55984 -10.55547 -10.54582
 Alpha  occ. eigenvalues --  -10.54461 -10.54376 -10.53679 -10.53432 -10.52689
 Alpha  occ. eigenvalues --  -10.50918 -10.50857 -10.50677  -5.54984  -3.86173
 Alpha  occ. eigenvalues --   -3.86025  -3.86012  -1.23040  -1.14353  -1.13190
 Alpha  occ. eigenvalues --   -0.93557  -0.90736  -0.87812  -0.85072  -0.80859
 Alpha  occ. eigenvalues --   -0.79394  -0.79014  -0.76777  -0.76676  -0.73512
 Alpha  occ. eigenvalues --   -0.69630  -0.68569  -0.64938  -0.63130  -0.60336
 Alpha  occ. eigenvalues --   -0.57509  -0.57012  -0.55167  -0.54784  -0.52805
 Alpha  occ. eigenvalues --   -0.51415  -0.50408  -0.50246  -0.49402  -0.48873
 Alpha  occ. eigenvalues --   -0.48467  -0.47591  -0.47175  -0.47009  -0.46308
 Alpha  occ. eigenvalues --   -0.45807  -0.45450  -0.44959  -0.44367  -0.44190
 Alpha  occ. eigenvalues --   -0.43826  -0.43058  -0.42052  -0.41548  -0.41189
 Alpha  occ. eigenvalues --   -0.40726  -0.40518  -0.38702  -0.37130  -0.36453
 Alpha  occ. eigenvalues --   -0.35500  -0.34152  -0.33303  -0.31981
 Alpha virt. eigenvalues --    0.03609   0.03744   0.04874   0.06223   0.06807
 Alpha virt. eigenvalues --    0.07627   0.08990   0.09616   0.10249   0.10522
 Alpha virt. eigenvalues --    0.10771   0.11350   0.11699   0.11881   0.13017
 Alpha virt. eigenvalues --    0.13269   0.13852   0.14150   0.14686   0.14757
 Alpha virt. eigenvalues --    0.15162   0.15621   0.15760   0.15984   0.16426
 Alpha virt. eigenvalues --    0.16711   0.17063   0.17289   0.17889   0.17944
 Alpha virt. eigenvalues --    0.18491   0.19227   0.19675   0.20027   0.20492
 Alpha virt. eigenvalues --    0.21035   0.21571   0.22188   0.22289   0.23179
 Alpha virt. eigenvalues --    0.23637   0.23930   0.24248   0.24498   0.25342
 Alpha virt. eigenvalues --    0.25983   0.26400   0.26531   0.27559   0.28440
 Alpha virt. eigenvalues --    0.28620   0.29555   0.29891   0.30282   0.30651
 Alpha virt. eigenvalues --    0.31697   0.32659   0.32904   0.33728   0.34438
 Alpha virt. eigenvalues --    0.34704   0.35488   0.36117   0.36317   0.36509
 Alpha virt. eigenvalues --    0.37158   0.37571   0.38223   0.38519   0.39071
 Alpha virt. eigenvalues --    0.39316   0.40310   0.40793   0.40919   0.41381
 Alpha virt. eigenvalues --    0.42104   0.42643   0.42890   0.43209   0.44203
 Alpha virt. eigenvalues --    0.44471   0.44872   0.45656   0.45760   0.46448
 Alpha virt. eigenvalues --    0.46632   0.46964   0.47465   0.47848   0.48133
 Alpha virt. eigenvalues --    0.48289   0.48741   0.49230   0.49278   0.49421
 Alpha virt. eigenvalues --    0.50165   0.50493   0.50780   0.50943   0.51334
 Alpha virt. eigenvalues --    0.51467   0.51835   0.52077   0.52465   0.53081
 Alpha virt. eigenvalues --    0.53595   0.54341   0.54854   0.55390   0.56058
 Alpha virt. eigenvalues --    0.56248   0.56585   0.57604   0.57913   0.58976
 Alpha virt. eigenvalues --    0.59794   0.60794   0.61272   0.61545   0.62034
 Alpha virt. eigenvalues --    0.62770   0.63287   0.63677   0.64808   0.65625
 Alpha virt. eigenvalues --    0.66244   0.66710   0.67856   0.68495   0.68902
 Alpha virt. eigenvalues --    0.69946   0.70370   0.70787   0.72069   0.72456
 Alpha virt. eigenvalues --    0.73309   0.74763   0.75934   0.76237   0.76972
 Alpha virt. eigenvalues --    0.77477   0.78280   0.78474   0.80435   0.81555
 Alpha virt. eigenvalues --    0.81963   0.83707   0.84745   0.85461   0.86587
 Alpha virt. eigenvalues --    0.88341   0.88684   0.89174   0.90372   0.90690
 Alpha virt. eigenvalues --    0.91077   0.91490   0.92216   0.93393   0.94059
 Alpha virt. eigenvalues --    0.94819   0.95152   0.95682   0.96450   0.96569
 Alpha virt. eigenvalues --    0.97505   0.98128   0.98688   0.99549   0.99807
 Alpha virt. eigenvalues --    1.01903   1.02340   1.02827   1.04451   1.04677
 Alpha virt. eigenvalues --    1.05009   1.05634   1.05979   1.06751   1.07511
 Alpha virt. eigenvalues --    1.07961   1.08978   1.09456   1.10661   1.11492
 Alpha virt. eigenvalues --    1.12155   1.12453   1.13360   1.14082   1.15348
 Alpha virt. eigenvalues --    1.15819   1.16275   1.17702   1.18960   1.19665
 Alpha virt. eigenvalues --    1.20411   1.22069   1.22714   1.23642   1.24672
 Alpha virt. eigenvalues --    1.25694   1.26977   1.27496   1.28822   1.29612
 Alpha virt. eigenvalues --    1.30715   1.31364   1.31704   1.31848   1.33011
 Alpha virt. eigenvalues --    1.34450   1.35152   1.36116   1.37169   1.38106
 Alpha virt. eigenvalues --    1.38391   1.40397   1.41267   1.41711   1.42589
 Alpha virt. eigenvalues --    1.42796   1.44378   1.45003   1.46689   1.47285
 Alpha virt. eigenvalues --    1.48107   1.48489   1.49393   1.50390   1.51918
 Alpha virt. eigenvalues --    1.53820   1.54948   1.55878   1.56767   1.57221
 Alpha virt. eigenvalues --    1.57517   1.58470   1.58506   1.58900   1.59318
 Alpha virt. eigenvalues --    1.60010   1.60377   1.61095   1.61568   1.62149
 Alpha virt. eigenvalues --    1.62302   1.63392   1.63728   1.64821   1.65091
 Alpha virt. eigenvalues --    1.65656   1.65782   1.66085   1.66474   1.67311
 Alpha virt. eigenvalues --    1.67418   1.67566   1.68448   1.68616   1.68883
 Alpha virt. eigenvalues --    1.69762   1.70102   1.70913   1.71413   1.72133
 Alpha virt. eigenvalues --    1.72936   1.75116   1.75838   1.76665   1.78104
 Alpha virt. eigenvalues --    1.78729   1.80019   1.80893   1.81677   1.82733
 Alpha virt. eigenvalues --    1.83091   1.84160   1.84887   1.85349   1.86394
 Alpha virt. eigenvalues --    1.87437   1.89180   1.90320   1.91101   1.92382
 Alpha virt. eigenvalues --    1.93311   1.94175   1.96256   1.97304   1.97700
 Alpha virt. eigenvalues --    1.98863   1.99824   1.99943   2.00637   2.01843
 Alpha virt. eigenvalues --    2.02326   2.03402   2.04452   2.04586   2.05805
 Alpha virt. eigenvalues --    2.06335   2.06810   2.08042   2.08730   2.09577
 Alpha virt. eigenvalues --    2.10169   2.11129   2.11977   2.13710   2.14278
 Alpha virt. eigenvalues --    2.15336   2.15862   2.17114   2.17965   2.18428
 Alpha virt. eigenvalues --    2.18692   2.20033   2.21806   2.22557   2.23538
 Alpha virt. eigenvalues --    2.24128   2.24786   2.25218   2.26019   2.28197
 Alpha virt. eigenvalues --    2.29060   2.29752   2.31055   2.32091   2.32401
 Alpha virt. eigenvalues --    2.33386   2.34215   2.35737   2.35951   2.36230
 Alpha virt. eigenvalues --    2.37211   2.37636   2.38282   2.38812   2.40053
 Alpha virt. eigenvalues --    2.40253   2.41033   2.41644   2.42263   2.43175
 Alpha virt. eigenvalues --    2.43261   2.43545   2.44689   2.44963   2.45297
 Alpha virt. eigenvalues --    2.45735   2.46650   2.48283   2.49058   2.49233
 Alpha virt. eigenvalues --    2.50345   2.51121   2.52270   2.53431   2.54581
 Alpha virt. eigenvalues --    2.54770   2.56295   2.57528   2.58299   2.58502
 Alpha virt. eigenvalues --    2.58903   2.59173   2.60093   2.60481   2.61557
 Alpha virt. eigenvalues --    2.62086   2.62248   2.63510   2.63738   2.64664
 Alpha virt. eigenvalues --    2.65068   2.65429   2.66286   2.67100   2.67528
 Alpha virt. eigenvalues --    2.67646   2.68309   2.69197   2.69601   2.70164
 Alpha virt. eigenvalues --    2.70718   2.71579   2.71835   2.72387   2.73287
 Alpha virt. eigenvalues --    2.74004   2.74310   2.77120   2.77417   2.78411
 Alpha virt. eigenvalues --    2.79487   2.80829   2.81500   2.83358   2.83528
 Alpha virt. eigenvalues --    2.86336   2.86778   2.87204   2.88452   2.89884
 Alpha virt. eigenvalues --    2.90124   2.90755   2.92401   2.93966   2.94171
 Alpha virt. eigenvalues --    2.94855   2.95498   2.97799   2.98240   2.98988
 Alpha virt. eigenvalues --    2.99978   3.00729   3.03112   3.04997   3.05326
 Alpha virt. eigenvalues --    3.06254   3.07964   3.08639   3.08853   3.10064
 Alpha virt. eigenvalues --    3.11185   3.11739   3.12271   3.12485   3.13333
 Alpha virt. eigenvalues --    3.14168   3.15019   3.15827   3.15947   3.16979
 Alpha virt. eigenvalues --    3.17302   3.18212   3.18533   3.18680   3.19321
 Alpha virt. eigenvalues --    3.21087   3.21877   3.22505   3.23696   3.24447
 Alpha virt. eigenvalues --    3.24984   3.25048   3.25582   3.26198   3.26586
 Alpha virt. eigenvalues --    3.27553   3.27909   3.29631   3.29897   3.30119
 Alpha virt. eigenvalues --    3.30933   3.31325   3.31647   3.31762   3.32661
 Alpha virt. eigenvalues --    3.33302   3.33879   3.34273   3.35327   3.35889
 Alpha virt. eigenvalues --    3.36680   3.37015   3.37740   3.38697   3.39031
 Alpha virt. eigenvalues --    3.39945   3.40240   3.40587   3.42058   3.43202
 Alpha virt. eigenvalues --    3.43338   3.43714   3.44065   3.45162   3.45960
 Alpha virt. eigenvalues --    3.46896   3.47501   3.47938   3.49205   3.49763
 Alpha virt. eigenvalues --    3.52039   3.53198   3.53476   3.55248   3.55881
 Alpha virt. eigenvalues --    3.56178   3.56527   3.58081   3.58396   3.59452
 Alpha virt. eigenvalues --    3.60290   3.60995   3.61326   3.61819   3.62678
 Alpha virt. eigenvalues --    3.64039   3.64424   3.65623   3.66048   3.66775
 Alpha virt. eigenvalues --    3.67378   3.68047   3.68696   3.69786   3.70809
 Alpha virt. eigenvalues --    3.71404   3.72593   3.73828   3.75064   3.75633
 Alpha virt. eigenvalues --    3.78065   3.80249   3.82117   3.83204   3.83872
 Alpha virt. eigenvalues --    3.85045   3.87249   3.89236   3.90283   3.92717
 Alpha virt. eigenvalues --    3.94279   3.95410   3.97290   3.97383   4.00732
 Alpha virt. eigenvalues --    4.02544   4.03957   4.05415   4.07012   4.08501
 Alpha virt. eigenvalues --    4.12045   4.13259   4.13984   4.15420   4.17749
 Alpha virt. eigenvalues --    4.19509   4.20110   4.21652   4.25244   4.26326
 Alpha virt. eigenvalues --    4.26862   4.27440   4.28180   4.29243   4.30584
 Alpha virt. eigenvalues --    4.30972   4.32353   4.33220   4.34919   4.37253
 Alpha virt. eigenvalues --    4.37540   4.37963   4.38895   4.38972   4.40799
 Alpha virt. eigenvalues --    4.41422   4.43806   4.45058   4.46455   4.49398
 Alpha virt. eigenvalues --    4.52023   4.53637   4.54660   4.56313   4.59029
 Alpha virt. eigenvalues --    4.62468   4.64194   4.66248   4.68015   4.69337
 Alpha virt. eigenvalues --    4.70346   4.71964   4.79167   4.81827   4.83563
 Alpha virt. eigenvalues --    4.86479   4.88231   4.92806   4.97364   5.00675
 Alpha virt. eigenvalues --    5.03543   5.09547   5.11376   5.20519   5.23494
 Alpha virt. eigenvalues --    5.24328   5.26043   5.26559   5.30154   5.44947
 Alpha virt. eigenvalues --    5.48348   5.49597   5.51781   5.61257   5.81162
 Alpha virt. eigenvalues --    5.85183   5.86651   5.88870   5.91058   5.99033
 Alpha virt. eigenvalues --    6.12863   6.17364   6.21981   6.36875   6.39208
 Alpha virt. eigenvalues --    6.51610   6.60908   6.61486   6.67469   6.68718
 Alpha virt. eigenvalues --    6.72911   6.78917   6.82828   6.84649   6.88913
 Alpha virt. eigenvalues --    6.90333   6.97350   7.05359   7.06502   7.14507
 Alpha virt. eigenvalues --    7.22801   7.34112   7.41696  12.18251  22.29966
 Alpha virt. eigenvalues --   22.38256  22.42469  22.42587  22.46175  22.52588
 Alpha virt. eigenvalues --   22.58928  22.65424  22.69767  22.73252  22.80837
 Alpha virt. eigenvalues --   22.83341  22.91093  23.43938  44.11784  44.48528
 Alpha virt. eigenvalues --   44.52055
          Condensed to atoms (all electrons):
               1          2          3          4          5          6
     1  C    5.471713   0.003960   0.074870  -0.066617  -0.035972   0.426424
     2  C    0.003960   5.934981  -0.031592  -0.004474  -0.021752  -0.049086
     3  C    0.074870  -0.031592   5.785817  -0.089638   0.074581  -0.005363
     4  C   -0.066617  -0.004474  -0.089638   6.092514   0.102906   0.002704
     5  C   -0.035972  -0.021752   0.074581   0.102906   4.498235  -0.011745
     6  H    0.426424  -0.049086  -0.005363   0.002704  -0.011745   0.517784
     7  H   -0.032509   0.452623  -0.076952  -0.007786  -0.001243   0.006131
     8  H   -0.000546   0.010983  -0.030896   0.388735  -0.019240  -0.000184
     9  H   -0.001738   0.003439  -0.054472   0.393231  -0.017846  -0.001663
    10  O    0.174504  -0.032643   0.004251  -0.146933   0.374731  -0.033538
    11  O    0.002745  -0.002977   0.014467  -0.141165   0.720941  -0.000011
    12  C    0.192235  -0.030935   0.007810  -0.004764   0.000853  -0.033344
    13  C   -0.041495   0.009684  -0.000654  -0.000454  -0.000086  -0.008874
    14  C   -0.040773   0.100639  -0.018607   0.003602   0.000578   0.001297
    15  O    0.003604  -0.028569   0.169807  -0.049545   0.001339   0.000290
    16  Si  -0.000909   0.025371  -0.085149   0.005624  -0.003151   0.000227
    17  C    0.001373   0.007277  -0.004539  -0.001496   0.000121  -0.000011
    18  C    0.000039  -0.001666   0.001617   0.000074   0.000524   0.000001
    19  C   -0.001331  -0.012464   0.010991   0.007680   0.003495  -0.000068
    20  H   -0.000003   0.000042  -0.000010  -0.000012  -0.000017   0.000000
    21  H    0.000003   0.000147  -0.000319   0.000128  -0.000014   0.000000
    22  H   -0.000004   0.000119   0.000853  -0.000672  -0.000006   0.000000
    23  H    0.000741  -0.000955   0.001515  -0.005891   0.003082  -0.000010
    24  H   -0.002096  -0.000685   0.000035  -0.003536   0.003775   0.000046
    25  H    0.000004   0.000424  -0.000559  -0.000003   0.000214   0.000001
    26  H   -0.000012  -0.000383   0.000158   0.000047  -0.000009   0.000000
    27  H    0.000790   0.003975  -0.003108   0.000073  -0.000024  -0.000004
    28  H   -0.000096  -0.001590   0.002021   0.000072  -0.000012   0.000000
    29  H    0.014302  -0.077002   0.023795   0.000833  -0.000068  -0.000518
    30  H   -0.016699  -0.039208   0.009460  -0.000572  -0.000043   0.000222
    31  H   -0.003776  -0.015688  -0.031466   0.000180  -0.000098   0.002325
    32  H   -0.046049   0.010389  -0.000198   0.000402  -0.001182   0.006611
    33  H   -0.045795  -0.021532  -0.001247   0.000370   0.000175  -0.001375
    34  H   -0.019082  -0.000303  -0.000235   0.000656   0.000914   0.001167
    35  H    0.001100   0.001904  -0.000097   0.000331  -0.000529   0.002892
    36  H    0.014174  -0.001013   0.000064  -0.000002   0.000057  -0.000125
    37  C   -0.010015  -0.020502   0.150886  -0.020965   0.003355   0.000159
    38  C   -0.002235   0.016495  -0.035335  -0.026714  -0.001196  -0.000147
    39  C   -0.000022  -0.000139  -0.005393  -0.001589   0.000111   0.000062
    40  H   -0.000416   0.006323  -0.042914  -0.010093  -0.000201   0.001803
    41  H    0.002417  -0.021918  -0.045786   0.005706  -0.000036  -0.000148
    42  H   -0.000036   0.000852   0.004019  -0.004564   0.000025   0.000002
    43  H   -0.000001   0.000018  -0.000191  -0.000016  -0.000001  -0.000002
    44  H   -0.000014   0.000070  -0.001497  -0.000197  -0.000024   0.000071
               7          8          9         10         11         12
     1  C   -0.032509  -0.000546  -0.001738   0.174504   0.002745   0.192235
     2  C    0.452623   0.010983   0.003439  -0.032643  -0.002977  -0.030935
     3  C   -0.076952  -0.030896  -0.054472   0.004251   0.014467   0.007810
     4  C   -0.007786   0.388735   0.393231  -0.146933  -0.141165  -0.004764
     5  C   -0.001243  -0.019240  -0.017846   0.374731   0.720941   0.000853
     6  H    0.006131  -0.000184  -0.001663  -0.033538  -0.000011  -0.033344
     7  H    0.502003  -0.000043  -0.000281   0.000676  -0.001274  -0.006498
     8  H   -0.000043   0.444367  -0.004954   0.005283   0.006085   0.000223
     9  H   -0.000281  -0.004954   0.458513   0.003688   0.004076  -0.000004
    10  O    0.000676   0.005283   0.003688   8.008170  -0.098181  -0.036654
    11  O   -0.001274   0.006085   0.004076  -0.098181   7.861792  -0.000439
    12  C   -0.006498   0.000223  -0.000004  -0.036654  -0.000439   5.223382
    13  C   -0.000560  -0.000003   0.000090  -0.002879  -0.000146   0.248765
    14  C   -0.030003  -0.000447  -0.000066   0.007062  -0.000080   0.014103
    15  O   -0.010983   0.001213   0.004436  -0.000093  -0.000007  -0.000517
    16  Si   0.007490  -0.000916   0.000066  -0.000363  -0.000108   0.000127
    17  C   -0.002402   0.000234   0.000032   0.000045  -0.000015  -0.000041
    18  C   -0.000022  -0.000460  -0.000006  -0.000003   0.000017  -0.000003
    19  C   -0.001458  -0.002001  -0.000068  -0.001869  -0.004137   0.000178
    20  H    0.000003   0.000033   0.000000   0.000000   0.000000   0.000000
    21  H   -0.000011   0.000000  -0.000001   0.000000   0.000000   0.000000
    22  H    0.000009   0.000555   0.000000   0.000000  -0.000010   0.000000
    23  H   -0.000567   0.000513   0.000332   0.000302   0.005412  -0.000029
    24  H    0.003518   0.000016  -0.000031   0.001153  -0.001809   0.000305
    25  H    0.000036   0.000022   0.000001   0.000012   0.000249   0.000000
    26  H    0.000011  -0.000006  -0.000001   0.000000   0.000000  -0.000002
    27  H    0.002706  -0.000014   0.000002  -0.000027   0.000003   0.000005
    28  H   -0.000017  -0.000004  -0.000001   0.000000   0.000000   0.000002
    29  H   -0.004207  -0.000059  -0.000007  -0.000224   0.000002  -0.000304
    30  H   -0.008358   0.000011   0.000019  -0.000003   0.000000   0.005905
    31  H    0.006432   0.000010  -0.000089  -0.000061   0.000000  -0.006515
    32  H    0.000434   0.000001  -0.000021  -0.000742  -0.000051   0.418622
    33  H    0.002107  -0.000009  -0.000005   0.004409   0.000013   0.433868
    34  H    0.000217  -0.000008  -0.000035   0.008410   0.000285  -0.037514
    35  H   -0.000052   0.000000  -0.000015  -0.000982   0.000004  -0.044411
    36  H    0.000026   0.000000   0.000000   0.000322   0.000000  -0.053160
    37  C    0.010520  -0.006604  -0.003560   0.000249  -0.000054   0.000541
    38  C   -0.000408   0.000966   0.002113  -0.000256  -0.000216   0.000004
    39  C   -0.000014   0.000383   0.000446  -0.000005  -0.000002   0.000013
    40  H    0.000370   0.000245  -0.002566  -0.000106   0.000011   0.000767
    41  H   -0.000852  -0.000025   0.000781  -0.000018   0.000008   0.000035
    42  H    0.000027   0.000682   0.000604   0.000007   0.000016   0.000007
    43  H    0.000000   0.000014   0.000011   0.000000   0.000000   0.000000
    44  H    0.000001   0.000053   0.000056   0.000001   0.000000   0.000004
              13         14         15         16         17         18
     1  C   -0.041495  -0.040773   0.003604  -0.000909   0.001373   0.000039
     2  C    0.009684   0.100639  -0.028569   0.025371   0.007277  -0.001666
     3  C   -0.000654  -0.018607   0.169807  -0.085149  -0.004539   0.001617
     4  C   -0.000454   0.003602  -0.049545   0.005624  -0.001496   0.000074
     5  C   -0.000086   0.000578   0.001339  -0.003151   0.000121   0.000524
     6  H   -0.008874   0.001297   0.000290   0.000227  -0.000011   0.000001
     7  H   -0.000560  -0.030003  -0.010983   0.007490  -0.002402  -0.000022
     8  H   -0.000003  -0.000447   0.001213  -0.000916   0.000234  -0.000460
     9  H    0.000090  -0.000066   0.004436   0.000066   0.000032  -0.000006
    10  O   -0.002879   0.007062  -0.000093  -0.000363   0.000045  -0.000003
    11  O   -0.000146  -0.000080  -0.000007  -0.000108  -0.000015   0.000017
    12  C    0.248765   0.014103  -0.000517   0.000127  -0.000041  -0.000003
    13  C    5.047692  -0.000931   0.000011   0.000006   0.000005   0.000000
    14  C   -0.000931   5.253233  -0.004112  -0.005706  -0.001440   0.000227
    15  O    0.000011  -0.004112   8.036274   0.398050  -0.023875  -0.021728
    16  Si   0.000006  -0.005706   0.398050  12.417042   0.347287   0.395158
    17  C    0.000005  -0.001440  -0.023875   0.347287   5.175414  -0.047456
    18  C    0.000000   0.000227  -0.021728   0.395158  -0.047456   5.118545
    19  C   -0.000011   0.000924  -0.032225   0.319568  -0.055234  -0.046492
    20  H    0.000000  -0.000004   0.001196  -0.042087   0.003127   0.393218
    21  H    0.000000  -0.000036   0.000582  -0.030917   0.000072   0.388290
    22  H    0.000000  -0.000005   0.001066  -0.032258   0.003392   0.389213
    23  H    0.000003  -0.000109  -0.000333  -0.036091   0.002970   0.001445
    24  H   -0.000023   0.000901   0.001134  -0.037329   0.001819   0.003180
    25  H    0.000000  -0.000023   0.001145  -0.018323   0.001659  -0.000462
    26  H    0.000000   0.000184   0.001244  -0.029112   0.385162   0.001797
    27  H    0.000002  -0.004222   0.001151  -0.032622   0.388806   0.002752
    28  H    0.000000  -0.000153  -0.000422  -0.038620   0.393968   0.001163
    29  H    0.000052   0.432549   0.004447  -0.000475  -0.000988   0.000080
    30  H    0.000397   0.427874  -0.000096  -0.000034  -0.000140   0.000001
    31  H   -0.000262   0.410636   0.000731   0.000173  -0.000123   0.000000
    32  H   -0.033649  -0.007643   0.000011   0.000086  -0.000011   0.000001
    33  H   -0.028563   0.005698  -0.000011  -0.000017   0.000001   0.000000
    34  H    0.424601   0.000015   0.000000   0.000002   0.000000   0.000000
    35  H    0.407557  -0.000107   0.000000   0.000001   0.000000   0.000000
    36  H    0.422251   0.000013   0.000000  -0.000001   0.000000   0.000000
    37  C   -0.000052  -0.001600  -0.088669   0.007381  -0.000551   0.000484
    38  C   -0.000007  -0.001948   0.004496  -0.001311   0.000154   0.000007
    39  C    0.000000  -0.000273   0.002070  -0.000100   0.000001  -0.000035
    40  H    0.000014  -0.007860   0.004866  -0.000152   0.000012   0.000002
    41  H    0.000004   0.003723  -0.000503  -0.000783  -0.000118  -0.000008
    42  H    0.000000  -0.000154   0.007987  -0.000959   0.000076  -0.000817
    43  H    0.000000   0.000001   0.000003   0.000005   0.000000   0.000003
    44  H    0.000000  -0.000001  -0.000013  -0.000006   0.000000  -0.000001
              19         20         21         22         23         24
     1  C   -0.001331  -0.000003   0.000003  -0.000004   0.000741  -0.002096
     2  C   -0.012464   0.000042   0.000147   0.000119  -0.000955  -0.000685
     3  C    0.010991  -0.000010  -0.000319   0.000853   0.001515   0.000035
     4  C    0.007680  -0.000012   0.000128  -0.000672  -0.005891  -0.003536
     5  C    0.003495  -0.000017  -0.000014  -0.000006   0.003082   0.003775
     6  H   -0.000068   0.000000   0.000000   0.000000  -0.000010   0.000046
     7  H   -0.001458   0.000003  -0.000011   0.000009  -0.000567   0.003518
     8  H   -0.002001   0.000033   0.000000   0.000555   0.000513   0.000016
     9  H   -0.000068   0.000000  -0.000001   0.000000   0.000332  -0.000031
    10  O   -0.001869   0.000000   0.000000   0.000000   0.000302   0.001153
    11  O   -0.004137   0.000000   0.000000  -0.000010   0.005412  -0.001809
    12  C    0.000178   0.000000   0.000000   0.000000  -0.000029   0.000305
    13  C   -0.000011   0.000000   0.000000   0.000000   0.000003  -0.000023
    14  C    0.000924  -0.000004  -0.000036  -0.000005  -0.000109   0.000901
    15  O   -0.032225   0.001196   0.000582   0.001066  -0.000333   0.001134
    16  Si   0.319568  -0.042087  -0.030917  -0.032258  -0.036091  -0.037329
    17  C   -0.055234   0.003127   0.000072   0.003392   0.002970   0.001819
    18  C   -0.046492   0.393218   0.388290   0.389213   0.001445   0.003180
    19  C    5.228928   0.002067   0.003452   0.000987   0.389127   0.391273
    20  H    0.002067   0.524005  -0.018706  -0.018416   0.000217  -0.000180
    21  H    0.003452  -0.018706   0.517459  -0.018673  -0.000193  -0.000093
    22  H    0.000987  -0.018416  -0.018673   0.515445   0.000684  -0.000128
    23  H    0.389127   0.000217  -0.000193   0.000684   0.496221  -0.018454
    24  H    0.391273  -0.000180  -0.000093  -0.000128  -0.018454   0.502116
    25  H    0.377319   0.000470  -0.000114   0.000228  -0.014768  -0.016155
    26  H    0.002173  -0.000024   0.000266  -0.000162  -0.000144   0.000313
    27  H    0.001466  -0.000133  -0.000146  -0.000103  -0.000141   0.000385
    28  H    0.003475   0.000319   0.000922  -0.000180  -0.000082  -0.000183
    29  H    0.000265  -0.000006   0.000027  -0.000002  -0.000001  -0.000035
    30  H   -0.000031   0.000000   0.000000   0.000000   0.000002   0.000017
    31  H   -0.000001   0.000000   0.000000   0.000000   0.000000  -0.000006
    32  H   -0.000072   0.000000   0.000000   0.000000  -0.000001   0.000084
    33  H   -0.000007   0.000000   0.000000   0.000000   0.000000   0.000000
    34  H   -0.000003   0.000000   0.000000   0.000000  -0.000001   0.000005
    35  H    0.000000   0.000000   0.000000   0.000000   0.000000   0.000001
    36  H    0.000000   0.000000   0.000000   0.000000   0.000000   0.000000
    37  C   -0.000580  -0.000031   0.000172   0.000011  -0.000062  -0.000141
    38  C    0.000156   0.000002  -0.000038   0.000050   0.000000  -0.000021
    39  C    0.000033   0.000001   0.000010  -0.000005  -0.000001   0.000000
    40  H    0.000050   0.000000   0.000002   0.000000  -0.000001   0.000000
    41  H    0.000111   0.000002   0.000006  -0.000004  -0.000001   0.000001
    42  H    0.000148   0.000046   0.000192   0.000113   0.000007  -0.000006
    43  H    0.000000   0.000000   0.000000   0.000000   0.000000   0.000000
    44  H    0.000000   0.000000   0.000000   0.000000   0.000000   0.000000
              25         26         27         28         29         30
     1  C    0.000004  -0.000012   0.000790  -0.000096   0.014302  -0.016699
     2  C    0.000424  -0.000383   0.003975  -0.001590  -0.077002  -0.039208
     3  C   -0.000559   0.000158  -0.003108   0.002021   0.023795   0.009460
     4  C   -0.000003   0.000047   0.000073   0.000072   0.000833  -0.000572
     5  C    0.000214  -0.000009  -0.000024  -0.000012  -0.000068  -0.000043
     6  H    0.000001   0.000000  -0.000004   0.000000  -0.000518   0.000222
     7  H    0.000036   0.000011   0.002706  -0.000017  -0.004207  -0.008358
     8  H    0.000022  -0.000006  -0.000014  -0.000004  -0.000059   0.000011
     9  H    0.000001  -0.000001   0.000002  -0.000001  -0.000007   0.000019
    10  O    0.000012   0.000000  -0.000027   0.000000  -0.000224  -0.000003
    11  O    0.000249   0.000000   0.000003   0.000000   0.000002   0.000000
    12  C    0.000000  -0.000002   0.000005   0.000002  -0.000304   0.005905
    13  C    0.000000   0.000000   0.000002   0.000000   0.000052   0.000397
    14  C   -0.000023   0.000184  -0.004222  -0.000153   0.432549   0.427874
    15  O    0.001145   0.001244   0.001151  -0.000422   0.004447  -0.000096
    16  Si  -0.018323  -0.029112  -0.032622  -0.038620  -0.000475  -0.000034
    17  C    0.001659   0.385162   0.388806   0.393968  -0.000988  -0.000140
    18  C   -0.000462   0.001797   0.002752   0.001163   0.000080   0.000001
    19  C    0.377319   0.002173   0.001466   0.003475   0.000265  -0.000031
    20  H    0.000470  -0.000024  -0.000133   0.000319  -0.000006   0.000000
    21  H   -0.000114   0.000266  -0.000146   0.000922   0.000027   0.000000
    22  H    0.000228  -0.000162  -0.000103  -0.000180  -0.000002   0.000000
    23  H   -0.014768  -0.000144  -0.000141  -0.000082  -0.000001   0.000002
    24  H   -0.016155   0.000313   0.000385  -0.000183  -0.000035   0.000017
    25  H    0.496643   0.000255   0.000177  -0.000129  -0.000005   0.000000
    26  H    0.000255   0.506044  -0.017577  -0.016018   0.000199  -0.000018
    27  H    0.000177  -0.017577   0.515661  -0.019993  -0.001763   0.000192
    28  H   -0.000129  -0.016018  -0.019993   0.510412   0.000027   0.000027
    29  H   -0.000005   0.000199  -0.001763   0.000027   0.480509  -0.019108
    30  H    0.000000  -0.000018   0.000192   0.000027  -0.019108   0.487449
    31  H    0.000000   0.000002   0.000115   0.000021  -0.021522  -0.021709
    32  H    0.000003   0.000001   0.000052   0.000000  -0.000192  -0.000552
    33  H    0.000000   0.000000  -0.000009   0.000000   0.000614  -0.008020
    34  H    0.000000   0.000000   0.000000   0.000000   0.000001  -0.000038
    35  H    0.000000   0.000000   0.000000   0.000000  -0.000003  -0.000002
    36  H    0.000000   0.000000   0.000000   0.000000   0.000000   0.000003
    37  C    0.000014  -0.000010   0.000449  -0.000057  -0.016560   0.000138
    38  C   -0.000004  -0.000002  -0.000040   0.000020  -0.000126   0.000052
    39  C    0.000000   0.000000   0.000000   0.000001   0.000021   0.000002
    40  H    0.000000   0.000000   0.000003  -0.000003   0.000726  -0.000084
    41  H   -0.000001   0.000003  -0.000060   0.000104  -0.000471   0.000692
    42  H   -0.000002  -0.000003  -0.000002  -0.000002  -0.000003   0.000002
    43  H    0.000000   0.000000   0.000000   0.000000   0.000000   0.000000
    44  H    0.000000   0.000000   0.000000   0.000000  -0.000002   0.000000
              31         32         33         34         35         36
     1  C   -0.003776  -0.046049  -0.045795  -0.019082   0.001100   0.014174
     2  C   -0.015688   0.010389  -0.021532  -0.000303   0.001904  -0.001013
     3  C   -0.031466  -0.000198  -0.001247  -0.000235  -0.000097   0.000064
     4  C    0.000180   0.000402   0.000370   0.000656   0.000331  -0.000002
     5  C   -0.000098  -0.001182   0.000175   0.000914  -0.000529   0.000057
     6  H    0.002325   0.006611  -0.001375   0.001167   0.002892  -0.000125
     7  H    0.006432   0.000434   0.002107   0.000217  -0.000052   0.000026
     8  H    0.000010   0.000001  -0.000009  -0.000008   0.000000   0.000000
     9  H   -0.000089  -0.000021  -0.000005  -0.000035  -0.000015   0.000000
    10  O   -0.000061  -0.000742   0.004409   0.008410  -0.000982   0.000322
    11  O    0.000000  -0.000051   0.000013   0.000285   0.000004   0.000000
    12  C   -0.006515   0.418622   0.433868  -0.037514  -0.044411  -0.053160
    13  C   -0.000262  -0.033649  -0.028563   0.424601   0.407557   0.422251
    14  C    0.410636  -0.007643   0.005698   0.000015  -0.000107   0.000013
    15  O    0.000731   0.000011  -0.000011   0.000000   0.000000   0.000000
    16  Si   0.000173   0.000086  -0.000017   0.000002   0.000001  -0.000001
    17  C   -0.000123  -0.000011   0.000001   0.000000   0.000000   0.000000
    18  C    0.000000   0.000001   0.000000   0.000000   0.000000   0.000000
    19  C   -0.000001  -0.000072  -0.000007  -0.000003   0.000000   0.000000
    20  H    0.000000   0.000000   0.000000   0.000000   0.000000   0.000000
    21  H    0.000000   0.000000   0.000000   0.000000   0.000000   0.000000
    22  H    0.000000   0.000000   0.000000   0.000000   0.000000   0.000000
    23  H    0.000000  -0.000001   0.000000  -0.000001   0.000000   0.000000
    24  H   -0.000006   0.000084   0.000000   0.000005   0.000001   0.000000
    25  H    0.000000   0.000003   0.000000   0.000000   0.000000   0.000000
    26  H    0.000002   0.000001   0.000000   0.000000   0.000000   0.000000
    27  H    0.000115   0.000052  -0.000009   0.000000   0.000000   0.000000
    28  H    0.000021   0.000000   0.000000   0.000000   0.000000   0.000000
    29  H   -0.021522  -0.000192   0.000614   0.000001  -0.000003   0.000000
    30  H   -0.021709  -0.000552  -0.008020  -0.000038  -0.000002   0.000003
    31  H    0.493161   0.000739  -0.001227  -0.000001   0.000048   0.000003
    32  H    0.000739   0.518495  -0.025063  -0.003442   0.006175  -0.003947
    33  H   -0.001227  -0.025063   0.527679   0.006306  -0.004225  -0.004228
    34  H   -0.000001  -0.003442   0.006306   0.507666  -0.026223  -0.023171
    35  H    0.000048   0.006175  -0.004225  -0.026223   0.540936  -0.024556
    36  H    0.000003  -0.003947  -0.004228  -0.023171  -0.024556   0.522601
    37  C    0.010345   0.000007  -0.000109   0.000003  -0.000034   0.000004
    38  C    0.000175   0.000003   0.000001   0.000001   0.000003   0.000000
    39  C    0.000010   0.000000  -0.000001   0.000000   0.000000   0.000000
    40  H    0.000232   0.000003   0.000045  -0.000002   0.000021   0.000000
    41  H   -0.007855  -0.000004  -0.000017   0.000000   0.000000   0.000000
    42  H    0.000001   0.000000   0.000000   0.000000   0.000000   0.000000
    43  H    0.000001   0.000000   0.000000   0.000000   0.000000   0.000000
    44  H    0.000004   0.000000   0.000000   0.000000   0.000000   0.000000
              37         38         39         40         41         42
     1  C   -0.010015  -0.002235  -0.000022  -0.000416   0.002417  -0.000036
     2  C   -0.020502   0.016495  -0.000139   0.006323  -0.021918   0.000852
     3  C    0.150886  -0.035335  -0.005393  -0.042914  -0.045786   0.004019
     4  C   -0.020965  -0.026714  -0.001589  -0.010093   0.005706  -0.004564
     5  C    0.003355  -0.001196   0.000111  -0.000201  -0.000036   0.000025
     6  H    0.000159  -0.000147   0.000062   0.001803  -0.000148   0.000002
     7  H    0.010520  -0.000408  -0.000014   0.000370  -0.000852   0.000027
     8  H   -0.006604   0.000966   0.000383   0.000245  -0.000025   0.000682
     9  H   -0.003560   0.002113   0.000446  -0.002566   0.000781   0.000604
    10  O    0.000249  -0.000256  -0.000005  -0.000106  -0.000018   0.000007
    11  O   -0.000054  -0.000216  -0.000002   0.000011   0.000008   0.000016
    12  C    0.000541   0.000004   0.000013   0.000767   0.000035   0.000007
    13  C   -0.000052  -0.000007   0.000000   0.000014   0.000004   0.000000
    14  C   -0.001600  -0.001948  -0.000273  -0.007860   0.003723  -0.000154
    15  O   -0.088669   0.004496   0.002070   0.004866  -0.000503   0.007987
    16  Si   0.007381  -0.001311  -0.000100  -0.000152  -0.000783  -0.000959
    17  C   -0.000551   0.000154   0.000001   0.000012  -0.000118   0.000076
    18  C    0.000484   0.000007  -0.000035   0.000002  -0.000008  -0.000817
    19  C   -0.000580   0.000156   0.000033   0.000050   0.000111   0.000148
    20  H   -0.000031   0.000002   0.000001   0.000000   0.000002   0.000046
    21  H    0.000172  -0.000038   0.000010   0.000002   0.000006   0.000192
    22  H    0.000011   0.000050  -0.000005   0.000000  -0.000004   0.000113
    23  H   -0.000062   0.000000  -0.000001  -0.000001  -0.000001   0.000007
    24  H   -0.000141  -0.000021   0.000000   0.000000   0.000001  -0.000006
    25  H    0.000014  -0.000004   0.000000   0.000000  -0.000001  -0.000002
    26  H   -0.000010  -0.000002   0.000000   0.000000   0.000003  -0.000003
    27  H    0.000449  -0.000040   0.000000   0.000003  -0.000060  -0.000002
    28  H   -0.000057   0.000020   0.000001  -0.000003   0.000104  -0.000002
    29  H   -0.016560  -0.000126   0.000021   0.000726  -0.000471  -0.000003
    30  H    0.000138   0.000052   0.000002  -0.000084   0.000692   0.000002
    31  H    0.010345   0.000175   0.000010   0.000232  -0.007855   0.000001
    32  H    0.000007   0.000003   0.000000   0.000003  -0.000004   0.000000
    33  H   -0.000109   0.000001  -0.000001   0.000045  -0.000017   0.000000
    34  H    0.000003   0.000001   0.000000  -0.000002   0.000000   0.000000
    35  H   -0.000034   0.000003   0.000000   0.000021   0.000000   0.000000
    36  H    0.000004   0.000000   0.000000   0.000000   0.000000   0.000000
    37  C    5.322409   0.247039  -0.047131   0.429313   0.441205  -0.043616
    38  C    0.247039   5.175056   0.535926  -0.043708  -0.034413   0.410543
    39  C   -0.047131   0.535926   5.008406   0.003137  -0.003983  -0.026507
    40  H    0.429313  -0.043708   0.003137   0.490704  -0.016479   0.003645
    41  H    0.441205  -0.034413  -0.003983  -0.016479   0.496954   0.000498
    42  H   -0.043616   0.410543  -0.026507   0.003645   0.000498   0.487000
    43  H    0.006786  -0.053639   0.427794   0.000246  -0.000313  -0.005853
    44  H    0.005203  -0.064042   0.429406  -0.000267   0.000670   0.004061
              43         44
     1  C   -0.000001  -0.000014
     2  C    0.000018   0.000070
     3  C   -0.000191  -0.001497
     4  C   -0.000016  -0.000197
     5  C   -0.000001  -0.000024
     6  H   -0.000002   0.000071
     7  H    0.000000   0.000001
     8  H    0.000014   0.000053
     9  H    0.000011   0.000056
    10  O    0.000000   0.000001
    11  O    0.000000   0.000000
    12  C    0.000000   0.000004
    13  C    0.000000   0.000000
    14  C    0.000001  -0.000001
    15  O    0.000003  -0.000013
    16  Si   0.000005  -0.000006
    17  C    0.000000   0.000000
    18  C    0.000003  -0.000001
    19  C    0.000000   0.000000
    20  H    0.000000   0.000000
    21  H    0.000000   0.000000
    22  H    0.000000   0.000000
    23  H    0.000000   0.000000
    24  H    0.000000   0.000000
    25  H    0.000000   0.000000
    26  H    0.000000   0.000000
    27  H    0.000000   0.000000
    28  H    0.000000   0.000000
    29  H    0.000000  -0.000002
    30  H    0.000000   0.000000
    31  H    0.000001   0.000004
    32  H    0.000000   0.000000
    33  H    0.000000   0.000000
    34  H    0.000000   0.000000
    35  H    0.000000   0.000000
    36  H    0.000000   0.000000
    37  C    0.006786   0.005203
    38  C   -0.053639  -0.064042
    39  C    0.427794   0.429406
    40  H    0.000246  -0.000267
    41  H   -0.000313   0.000670
    42  H   -0.005853   0.004061
    43  H    0.501144  -0.023298
    44  H   -0.023298   0.509093
 Mulliken charges:
               1
     1  C   -0.016759
     2  C   -0.172643
     3  C    0.229201
     4  C   -0.418173
     5  C    0.324485
     6  H    0.175994
     7  H    0.191157
     8  H    0.205788
     9  H    0.215497
    10  O   -0.237693
    11  O   -0.365444
    12  C   -0.292622
    13  C   -0.442482
    14  C   -0.536957
    15  O   -0.385451
    16  Si   0.473835
    17  C   -0.574567
    18  C   -0.578678
    19  C   -0.585815
    20  H    0.154883
    21  H    0.157532
    22  H    0.157905
    23  H    0.175263
    24  H    0.170833
    25  H    0.171673
    26  H    0.165622
    27  H    0.161224
    28  H    0.165008
    29  H    0.185201
    30  H    0.182248
    31  H    0.185055
    32  H    0.160701
    33  H    0.160174
    34  H    0.159808
    35  H    0.140262
    36  H    0.150687
    37  C   -0.375777
    38  C   -0.127454
    39  C   -0.322629
    40  H    0.182312
    41  H    0.180877
    42  H    0.161961
    43  H    0.147290
    44  H    0.140667
 Sum of Mulliken charges =   0.00000
 Mulliken charges with hydrogens summed into heavy atoms:
               1
     1  C    0.159235
     2  C    0.018514
     3  C    0.229201
     4  C    0.003112
     5  C    0.324485
    10  O   -0.237693
    11  O   -0.365444
    12  C    0.028253
    13  C    0.008276
    14  C    0.015547
    15  O   -0.385451
    16  Si   0.473835
    17  C   -0.082713
    18  C   -0.108358
    19  C   -0.068047
    37  C   -0.012587
    38  C    0.034508
    39  C   -0.034672
 Electronic spatial extent (au):  <R**2>=           5362.4797
 Charge=              0.0000 electrons
 Dipole moment (field-independent basis, Debye):
    X=             -0.2844    Y=              1.3307    Z=             -5.1494  Tot=              5.3262
 Quadrupole moment (field-independent basis, Debye-Ang):
   XX=           -115.2316   YY=           -117.4000   ZZ=           -133.6705
   XY=             -6.2251   XZ=              9.6614   YZ=              7.2842
 Traceless Quadrupole moment (field-independent basis, Debye-Ang):
   XX=              6.8691   YY=              4.7007   ZZ=            -11.5698
   XY=             -6.2251   XZ=              9.6614   YZ=              7.2842
 Octapole moment (field-independent basis, Debye-Ang**2):
  XXX=            -15.7663  YYY=             -1.8103  ZZZ=            -44.0355  XYY=             -2.9124
  XXY=             -5.1325  XXZ=            -11.9575  XZZ=             12.0364  YZZ=             13.5902
  YYZ=              8.6012  XYZ=             -8.1859
 Hexadecapole moment (field-independent basis, Debye-Ang**3):
 XXXX=          -3725.1857 YYYY=          -2232.4006 ZZZZ=          -1524.8895 XXXY=            -14.5778
 XXXZ=             21.2523 YYYX=            -18.9325 YYYZ=             52.6386 ZZZX=             45.9929
 ZZZY=             29.8052 XXYY=           -954.5678 XXZZ=           -859.4111 YYZZ=           -638.4743
 XXYZ=             14.7146 YYXZ=             27.5058 ZZXY=             -3.8912
 N-N= 1.633166460862D+03 E-N=-5.759627242620D+03  KE= 1.059311878906D+03
 1\1\GINC-CPU-E-98\SP\RM062X\def2TZVP\C14H26O3Si1\KE291\26-Jun-2019\0\\
 # m062x/def2tzvp int=ultrafine scrf=(solvent=chloroform)\\IP1_2ginp008
 \\0,1\C,0,-2.21948,-0.171568,-0.307807\C,0,-0.815599,-0.230796,-0.9360
 42\C,0,0.134572,0.776862,-0.212786\C,0,-0.295957,0.92166,1.27964\C,0,-
 1.129364,-0.199689,1.854226\H,0,-2.58133,0.866035,-0.265464\H,0,-0.445
 035,-1.232936,-0.684516\H,0,0.579197,1.065375,1.912497\H,0,-0.906955,1
 .827472,1.38427\O,0,-2.121607,-0.666866,1.062235\O,0,-0.997782,-0.6538
 82,2.971548\C,0,-3.279675,-1.036358,-0.985342\C,0,-4.638532,-0.997676,
 -0.27901\C,0,-0.809721,-0.104817,-2.46508\O,0,1.491347,0.348737,-0.296
 821\Si,0,2.359151,-1.079445,-0.084562\C,0,2.413207,-2.052478,-1.700761
 \C,0,4.092535,-0.494165,0.354268\C,0,1.667726,-2.168871,1.291043\H,0,4
 .77701,-1.343658,0.457337\H,0,4.493951,0.165859,-0.421904\H,0,4.098664
 ,0.057848,1.299938\H,0,1.508352,-1.614218,2.220225\H,0,0.717563,-2.641
 041,1.020929\H,0,2.38188,-2.97429,1.500321\H,0,3.064371,-2.928107,-1.5
 94292\H,0,1.425017,-2.413033,-2.004332\H,0,2.812501,-1.440433,-2.51668
 9\H,0,0.217112,-0.053662,-2.836074\H,0,-1.283085,-0.974054,-2.927787\H
 ,0,-1.339559,0.78792,-2.811458\H,0,-2.909708,-2.067957,-1.038419\H,0,-
 3.394668,-0.685722,-2.015945\H,0,-4.56042,-1.363411,0.74751\H,0,-5.036
 44,0.022789,-0.244397\H,0,-5.364432,-1.620777,-0.809678\C,0,0.107514,2
 .179647,-0.877632\C,0,0.926704,3.214284,-0.15629\C,0,0.459295,4.384177
 ,0.282494\H,0,-0.930124,2.52418,-0.961689\H,0,0.498451,2.064739,-1.894
 53\H,0,1.975433,2.964084,-0.006459\H,0,1.100696,5.102668,0.784566\H,0,
 -0.581573,4.671377,0.148692\\Version=ES64L-G09RevD.01\State=1-A\HF=-10
 64.3404858\RMSD=1.036e-09\Dipole=-0.1119093,0.5235435,-2.0259482\Quadr
 upole=5.1069789,3.4948481,-8.601827,-4.62821,7.1830418,5.4156156\PG=C0
 1 [X(C14H26O3Si1)]\\@


 I DON'T EXACTLY UNDERSTAND WHAT YOU ARE SAYING,
 BUT YOU ARE ABSOLUTELY RIGHT.
     M.S.GORDON, IN A NDSU FACULTY MEETING
 Job cpu time:       0 days  2 hours 20 minutes 30.0 seconds.
 File lengths (MBytes):  RWF=    409 Int=      0 D2E=      0 Chk=     21 Scr=      1
 Normal termination of Gaussian 09 at Wed Jun 26 13:54:17 2019.
