 Entering Gaussian System, Link 0=/usr/local/Cluster-Apps/gaussian/g09/g09
 Initial command:
 /usr/local/Cluster-Apps/gaussian/g09/l1.exe "/home/ke291/rds/hpc-work/26Jun1304IP1NMR/Gau-144635.inp" -scrdir="/home/ke291/rds/hpc-work/26Jun1304IP1NMR/"
 Entering Link 1 = /usr/local/Cluster-Apps/gaussian/g09/l1.exe PID=    144655.
  
 Copyright (c) 1988,1990,1992,1993,1995,1998,2003,2009,2013,
            Gaussian, Inc.  All Rights Reserved.
  
 This is part of the Gaussian(R) 09 program.  It is based on
 the Gaussian(R) 03 system (copyright 2003, Gaussian, Inc.),
 the Gaussian(R) 98 system (copyright 1998, Gaussian, Inc.),
 the Gaussian(R) 94 system (copyright 1995, Gaussian, Inc.),
 the Gaussian 92(TM) system (copyright 1992, Gaussian, Inc.),
 the Gaussian 90(TM) system (copyright 1990, Gaussian, Inc.),
 the Gaussian 88(TM) system (copyright 1988, Gaussian, Inc.),
 the Gaussian 86(TM) system (copyright 1986, Carnegie Mellon
 University), and the Gaussian 82(TM) system (copyright 1983,
 Carnegie Mellon University). Gaussian is a federally registered
 trademark of Gaussian, Inc.
  
 This software contains proprietary and confidential information,
 including trade secrets, belonging to Gaussian, Inc.
  
 This software is provided under written license and may be
 used, copied, transmitted, or stored only in accord with that
 written license.
  
 The following legend is applicable only to US Government
 contracts under FAR:
  
                    RESTRICTED RIGHTS LEGEND
  
 Use, reproduction and disclosure by the US Government is
 subject to restrictions as set forth in subparagraphs (a)
 and (c) of the Commercial Computer Software - Restricted
 Rights clause in FAR 52.227-19.
  
 Gaussian, Inc.
 340 Quinnipiac St., Bldg. 40, Wallingford CT 06492
  
  
 ---------------------------------------------------------------
 Warning -- This program may not be used in any manner that
 competes with the business of Gaussian, Inc. or will provide
 assistance to any competitor of Gaussian, Inc.  The licensee
 of this program is prohibited from giving any competitor of
 Gaussian, Inc. access to this program.  By using this program,
 the user acknowledges that Gaussian, Inc. is engaged in the
 business of creating and licensing software in the field of
 computational chemistry and represents and warrants to the
 licensee that it is not a competitor of Gaussian, Inc. and that
 it will not use this program in any manner prohibited above.
 ---------------------------------------------------------------
  

 Cite this work as:
 Gaussian 09, Revision D.01,
 M. J. Frisch, G. W. Trucks, H. B. Schlegel, G. E. Scuseria, 
 M. A. Robb, J. R. Cheeseman, G. Scalmani, V. Barone, B. Mennucci, 
 G. A. Petersson, H. Nakatsuji, M. Caricato, X. Li, H. P. Hratchian, 
 A. F. Izmaylov, J. Bloino, G. Zheng, J. L. Sonnenberg, M. Hada, 
 M. Ehara, K. Toyota, R. Fukuda, J. Hasegawa, M. Ishida, T. Nakajima, 
 Y. Honda, O. Kitao, H. Nakai, T. Vreven, J. A. Montgomery, Jr., 
 J. E. Peralta, F. Ogliaro, M. Bearpark, J. J. Heyd, E. Brothers, 
 K. N. Kudin, V. N. Staroverov, T. Keith, R. Kobayashi, J. Normand, 
 K. Raghavachari, A. Rendell, J. C. Burant, S. S. Iyengar, J. Tomasi, 
 M. Cossi, N. Rega, J. M. Millam, M. Klene, J. E. Knox, J. B. Cross, 
 V. Bakken, C. Adamo, J. Jaramillo, R. Gomperts, R. E. Stratmann, 
 O. Yazyev, A. J. Austin, R. Cammi, C. Pomelli, J. W. Ochterski, 
 R. L. Martin, K. Morokuma, V. G. Zakrzewski, G. A. Voth, 
 P. Salvador, J. J. Dannenberg, S. Dapprich, A. D. Daniels, 
 O. Farkas, J. B. Foresman, J. V. Ortiz, J. Cioslowski, 
 and D. J. Fox, Gaussian, Inc., Wallingford CT, 2013.
 
 ******************************************
 Gaussian 09:  ES64L-G09RevD.01 24-Apr-2013
                26-Jun-2019 
 ******************************************
 %nprocshared=4
 Will use up to    4 processors via shared memory.
 %mem=6000MB
 %chk=IP1_1ginp014.chk
 --------------------------------------------------------
 # m062x/def2tzvp int=ultrafine scrf=(solvent=chloroform)
 --------------------------------------------------------
 1/38=1/1;
 2/12=2,17=6,18=5,40=1/2;
 3/5=44,7=101,11=2,16=1,25=1,30=1,70=2201,72=7,74=-55,75=-5/1,2,3;
 4//1;
 5/5=2,38=5,53=7/2;
 6/7=2,8=2,9=2,10=2,28=1/1;
 99/5=1,9=1/99;
 ------------
 IP1_1ginp014
 ------------
 Symbolic Z-matrix:
 Charge =  0 Multiplicity = 1
 C                    -2.30728   0.31797  -0.17033 
 C                    -0.97282  -0.05122  -0.84183 
 C                     0.18026   0.82313  -0.25166 
 C                    -0.1245    1.1573    1.24185 
 C                    -1.12696   0.27377   1.94627 
 H                    -2.46815   1.40339  -0.2292 
 H                    -0.76484  -1.0797   -0.5221 
 H                     0.79837   1.1651    1.82079 
 H                    -0.53586   2.17315   1.30064 
 O                    -2.23552  -0.04724   1.24108 
 O                    -1.02513  -0.10171   3.09548 
 C                    -3.56114  -0.37859  -0.70548 
 C                    -3.54169  -1.90889  -0.62869 
 C                    -1.03798  -0.04078  -2.37462 
 O                     1.4331    0.15329  -0.36232 
 Si                    2.0563   -1.37737  -0.04085 
 C                     3.89488  -1.06996   0.21273 
 C                     1.30597  -2.17408   1.49562 
 C                     1.80752  -2.51161  -1.5289 
 H                     1.86831  -3.08461   1.73514 
 H                     1.34749  -1.51728   2.36955 
 H                     0.26101  -2.46794   1.35356 
 H                     2.33118  -3.46166  -1.36996 
 H                     0.75292  -2.74498  -1.70872 
 H                     2.21175  -2.05936  -2.44088 
 H                     4.33378  -0.57124  -0.6578 
 H                     4.07469  -0.43686   1.08787 
 H                     4.43203  -2.01288   0.36416 
 H                    -1.41308   0.90912  -2.76737 
 H                    -0.0455   -0.21371  -2.79874 
 H                    -1.69481  -0.83291  -2.7417 
 H                    -3.72043  -0.04716  -1.73721 
 H                    -4.41052   0.00241  -0.12724 
 H                    -2.75397  -2.34537  -1.25101 
 H                    -3.38451  -2.24527   0.3995 
 H                    -4.49612  -2.31632  -0.97493 
 C                     0.3613    2.15238  -1.03403 
 C                     1.38798   3.07654  -0.43934 
 C                     1.15768   4.34197  -0.0853 
 H                    -0.6027    2.67011  -1.10578 
 H                     0.66949   1.88964  -2.05184 
 H                     2.38321   2.65482  -0.31096 
 H                     1.94172   4.97113   0.32599 
 H                     0.17732   4.79923  -0.20141 
 
                          Input orientation:                          
 ---------------------------------------------------------------------
 Center     Atomic      Atomic             Coordinates (Angstroms)
 Number     Number       Type             X           Y           Z
 ---------------------------------------------------------------------
      1          6           0       -2.307280    0.317972   -0.170330
      2          6           0       -0.972818   -0.051215   -0.841834
      3          6           0        0.180261    0.823128   -0.251662
      4          6           0       -0.124499    1.157304    1.241845
      5          6           0       -1.126960    0.273770    1.946268
      6          1           0       -2.468149    1.403391   -0.229202
      7          1           0       -0.764842   -1.079699   -0.522100
      8          1           0        0.798370    1.165096    1.820792
      9          1           0       -0.535861    2.173155    1.300635
     10          8           0       -2.235519   -0.047242    1.241085
     11          8           0       -1.025131   -0.101711    3.095476
     12          6           0       -3.561139   -0.378594   -0.705480
     13          6           0       -3.541690   -1.908892   -0.628687
     14          6           0       -1.037977   -0.040781   -2.374620
     15          8           0        1.433099    0.153285   -0.362321
     16         14           0        2.056303   -1.377372   -0.040854
     17          6           0        3.894877   -1.069957    0.212727
     18          6           0        1.305973   -2.174083    1.495617
     19          6           0        1.807524   -2.511608   -1.528899
     20          1           0        1.868306   -3.084608    1.735137
     21          1           0        1.347486   -1.517278    2.369548
     22          1           0        0.261012   -2.467935    1.353560
     23          1           0        2.331184   -3.461658   -1.369956
     24          1           0        0.752920   -2.744975   -1.708723
     25          1           0        2.211748   -2.059358   -2.440884
     26          1           0        4.333782   -0.571236   -0.657799
     27          1           0        4.074690   -0.436861    1.087868
     28          1           0        4.432034   -2.012880    0.364159
     29          1           0       -1.413077    0.909115   -2.767372
     30          1           0       -0.045495   -0.213708   -2.798738
     31          1           0       -1.694806   -0.832912   -2.741702
     32          1           0       -3.720425   -0.047159   -1.737210
     33          1           0       -4.410519    0.002413   -0.127235
     34          1           0       -2.753967   -2.345370   -1.251005
     35          1           0       -3.384507   -2.245265    0.399498
     36          1           0       -4.496121   -2.316321   -0.974925
     37          6           0        0.361302    2.152383   -1.034030
     38          6           0        1.387975    3.076544   -0.439337
     39          6           0        1.157682    4.341974   -0.085297
     40          1           0       -0.602700    2.670105   -1.105778
     41          1           0        0.669487    1.889642   -2.051843
     42          1           0        2.383212    2.654823   -0.310958
     43          1           0        1.941715    4.971132    0.325993
     44          1           0        0.177317    4.799232   -0.201413
 ---------------------------------------------------------------------
                    Distance matrix (angstroms):
                    1          2          3          4          5
     1  C    0.000000
     2  C    1.538833   0.000000
     3  C    2.539618   1.562808   0.000000
     4  C    2.731895   2.553797   1.560486   0.000000
     5  C    2.423860   2.811208   2.615629   1.510554   0.000000
     6  H    1.098854   2.174215   2.711325   2.777991   2.794191
     7  H    2.111005   1.096934   2.141753   2.919884   2.838283
     8  H    3.785135   3.421417   2.189536   1.089462   2.125347
     9  H    2.956919   3.119123   2.178309   1.097556   2.091388
    10  O    1.459665   2.435771   2.970157   2.430501   1.352492
    11  O    3.533487   3.937981   3.675817   2.414996   1.213274
    12  C    1.530932   2.612504   3.955776   4.238107   3.658220
    13  C    2.587041   3.177341   4.632386   4.957584   4.150341
    14  C    2.568799   1.534206   2.595649   3.917738   4.333236
    15  O    3.748922   2.461745   1.424970   2.451023   3.449348
    16  Si   4.683141   3.402328   2.899340   3.581312   4.099767
    17  C    6.367090   5.083738   4.194973   4.709051   5.479928
    18  C    4.694818   3.893987   3.647394   3.634390   3.480551
    19  C    5.175311   3.775698   3.924256   4.987048   5.333508
    20  H    5.713482   4.890219   4.697581   4.712582   4.504986
    21  H    4.814191   4.224468   3.702790   3.254511   3.083813
    22  H    4.084072   3.490362   3.662561   3.647390   3.129651
    23  H    6.102463   4.777705   4.923052   5.846939   6.075321
    24  H    4.594902   3.314515   3.896450   4.970261   5.099581
    25  H    5.588267   4.090362   4.150706   5.419175   5.986448
    26  H    6.718037   5.335194   4.400106   5.145169   6.108593
    27  H    6.548464   5.417546   4.306796   4.494247   5.319681
    28  H    7.151007   5.874945   5.147791   5.619821   6.215646
    29  H    2.809569   2.196306   2.979080   4.218513   4.764864
    30  H    3.508117   2.171590   2.759274   4.267579   4.891041
    31  H    2.882987   2.177571   3.529680   4.721808   4.850181
    32  H    2.141358   2.889820   4.263755   4.822467   4.516311
    33  H    2.127216   3.511597   4.665224   4.645226   3.892918
    34  H    2.908742   2.933097   4.432579   5.039556   4.441802
    35  H    2.838187   3.488697   4.748328   4.786928   3.719483
    36  H    3.518224   4.190714   5.678714   6.007597   5.156858
    37  C    3.351473   2.583149   1.552995   2.530967   3.824433
    38  C    4.619198   3.939318   2.563529   2.966047   4.457752
    39  C    5.310912   4.940798   3.655859   3.680682   5.088922
    40  H    3.051751   2.759028   2.180336   2.833474   3.915642
    41  H    3.856343   2.815708   2.148824   3.466282   4.671526
    42  H    5.242267   4.343663   2.865592   3.307926   4.804767
    43  H    6.320775   5.923031   4.543384   4.433205   5.840143
    44  H    5.124049   5.025911   3.976423   3.929087   5.176242
                    6          7          8          9         10
     6  H    0.000000
     7  H    3.025356   0.000000
     8  H    3.863859   3.601650   0.000000
     9  H    2.581990   3.735754   1.751262   0.000000
    10  O    2.078508   2.517475   3.318178   2.796882   0.000000
    11  O    3.924426   3.756470   2.560230   2.938682   2.215123
    12  C    2.144047   2.888677   5.269758   4.437142   2.378272
    13  C    3.504754   2.899967   5.855380   5.424057   2.944125
    14  C    2.955308   2.141444   4.735799   4.319853   3.808867
    15  O    4.098807   2.525218   2.488498   3.274462   4.008725
    16  Si   5.314018   2.877337   3.392973   4.596210   4.672510
    17  C    6.841115   4.717314   4.143633   5.597567   6.299621
    18  C    5.478806   3.091461   3.393157   4.725341   4.138889
    19  C    5.941196   3.111443   5.075133   5.953547   5.485627
    20  H    6.542599   4.006026   4.383159   5.797662   5.129431
    21  H    5.462864   3.607635   2.792453   4.278886   4.033901
    22  H    4.994059   2.549054   3.702158   4.709302   3.479234
    23  H    6.928464   3.997245   5.825568   6.863171   6.271407
    24  H    5.456483   2.546531   5.267656   5.908062   4.990982
    25  H    6.227648   3.674446   5.527805   6.281917   6.114220
    26  H    7.095711   5.125711   4.653751   5.922885   6.858283
    27  H    6.923145   5.140652   3.719908   5.302323   6.324082
    28  H    7.722403   5.353859   5.042304   6.563525   7.006354
    29  H    2.792811   3.068686   5.099733   4.349251   4.202232
    30  H    3.884170   2.539780   4.894207   4.768903   4.598270
    31  H    3.451343   2.419167   5.569947   5.169147   4.095393
    32  H    2.438520   3.358289   5.877793   4.929477   3.327940
    33  H    2.397069   3.823329   5.681476   4.665180   2.570095
    34  H    3.896021   2.467761   5.863310   5.643397   3.429387
    35  H    3.814140   3.011732   5.580959   5.333785   2.619112
    36  H    4.301747   3.956858   6.925889   6.404469   3.894835
    37  C    3.035544   3.460726   3.052175   2.501198   4.093651
    38  C    4.208716   4.681434   3.018187   2.746773   5.070657
    39  C    4.669329   5.769006   3.722208   3.081018   5.704237
    40  H    2.419266   3.798421   3.576711   2.458099   3.944343
    41  H    3.661041   3.635162   3.941939   3.573843   4.799370
    42  H    5.010835   4.888914   3.045549   3.369009   5.571595
    43  H    5.699466   6.682609   4.245889   3.862251   6.593236
    44  H    4.304765   5.962578   4.204993   3.108223   5.602757
                   11         12         13         14         15
    11  O    0.000000
    12  C    4.577692   0.000000
    13  C    4.844416   1.532347   0.000000
    14  C    5.470450   3.044091   3.578645   0.000000
    15  O    4.250209   5.034190   5.391850   3.192683   0.000000
    16  Si   4.578112   5.744122   5.653812   4.099696   1.683637
    17  C    5.783962   7.544088   7.530891   5.664505   2.808443
    18  C    3.505470   5.635369   5.299324   5.002381   2.980728
    19  C    5.934339   5.835264   5.457814   3.862267   2.933045
    20  H    4.372662   6.538960   6.019803   5.882301   3.882356
    21  H    2.856591   5.903135   5.748636   5.511588   3.203314
    22  H    3.207406   4.818073   4.324624   4.634412   3.344971
    23  H    6.518756   6.683284   6.119739   4.905405   3.858717
    24  H    5.764429   5.021689   4.506572   3.311102   3.267316
    25  H    6.705300   6.258020   6.033966   3.826193   3.134088
    26  H    6.559381   7.897415   7.988318   5.664332   3.004363
    27  H    5.490992   7.843811   7.944978   6.187493   3.070720
    28  H    6.394788   8.228355   8.035971   6.427372   3.770100
    29  H    5.961984   3.244035   4.128696   1.094192   3.802140
    30  H    5.976118   4.094957   4.450410   1.093069   2.873509
    31  H    5.920791   2.799251   3.005586   1.092541   4.051892
    32  H    5.533755   1.095303   2.174125   2.757147   5.337538
    33  H    4.675207   1.095892   2.158565   4.052980   5.850291
    34  H    5.187945   2.194842   1.094669   3.085168   4.956264
    35  H    4.174898   2.176381   1.093169   4.249904   5.435323
    36  H    5.789683   2.168312   1.093992   4.369896   6.452123
    37  C    4.904687   4.679672   5.647265   2.926625   2.365657
    38  C    5.330974   6.041733   7.013702   4.398668   2.924621
    39  C    5.884584   6.703407   7.839177   5.410218   4.206865
    40  H    5.050935   4.266986   5.461913   3.024620   3.321384
    41  H    5.773397   4.985558   5.847072   2.597335   2.540182
    42  H    5.551493   6.685251   7.485513   4.819701   2.676387
    43  H    6.496610   7.743701   8.849513   6.425819   4.893273
    44  H    6.027819   6.406248   7.681960   5.442931   4.815361
                   16         17         18         19         20
    16  Si   0.000000
    17  C    1.881266   0.000000
    18  C    1.886395   3.093109   0.000000
    19  C    1.887501   3.077119   3.084343   0.000000
    20  H    2.470656   3.237830   1.096651   3.314507   0.000000
    21  H    2.516353   3.367666   1.094016   4.049471   1.769252
    22  H    2.521267   4.057193   1.094748   3.271418   1.763315
    23  H    2.487231   3.266536   3.304605   1.096393   3.161965
    24  H    2.520106   4.045930   3.301451   1.094982   3.635878
    25  H    2.499882   3.294463   4.040994   1.095282   4.313727
    26  H    2.493469   1.095069   4.046473   3.302399   4.256965
    27  H    2.496490   1.094995   3.293933   4.036346   3.506801
    28  H    2.492389   1.095707   3.328429   3.274210   3.098529
    29  H    4.969761   6.400945   5.922197   4.858748   6.854917
    30  H    3.657539   5.032754   4.910297   3.213490   5.697431
    31  H    4.654228   6.326879   5.362675   4.068811   6.148820
    32  H    6.165848   7.927244   6.343473   6.055999   7.246875
    33  H    6.612946   8.381238   6.328433   6.851936   7.240288
    34  H    5.053730   6.926494   4.904731   4.572971   5.552380
    35  H    5.527166   7.376020   4.817380   5.544983   5.484567
    36  H    6.684936   8.565792   6.307781   6.330953   6.959930
    37  C    4.039628   4.942067   5.099983   4.908082   6.112726
    38  C    4.521374   4.889091   5.596414   5.708819   6.551248
    39  C    5.789682   6.072071   6.706734   7.034051   7.679394
    40  H    4.958471   5.996225   5.820348   5.730476   6.877019
    41  H    4.079303   4.928554   5.431708   4.575981   6.365654
    42  H    4.054432   4.053808   5.267114   5.339177   6.114957
    43  H    6.360127   6.349994   7.268169   7.710385   8.178388
    44  H    6.458081   6.959824   7.265046   7.607113   8.292443
                   21         22         23         24         25
    21  H    0.000000
    22  H    1.765335   0.000000
    23  H    4.328067   3.562392   0.000000
    24  H    4.300354   3.113889   1.766158   0.000000
    25  H    4.917424   4.286037   1.768501   1.770398   0.000000
    26  H    4.356350   4.922447   3.587772   4.318814   3.145938
    27  H    3.201194   4.328971   4.269673   4.917567   4.307568
    28  H    3.712363   4.310848   3.085398   4.285870   3.577722
    29  H    6.316331   5.584722   5.922493   4.377745   4.696571
    30  H    5.509162   4.734666   4.270738   2.869305   2.937623
    31  H    5.987385   4.823867   5.000059   3.273285   4.105585
    32  H    6.686586   5.591499   6.958136   5.223968   6.303553
    33  H    6.457399   5.488039   7.680801   6.058906   7.311518
    34  H    5.533178   3.986086   5.207591   3.559136   5.114288
    35  H    5.177144   3.774868   6.105711   4.670397   6.278567
    36  H    6.780244   5.298598   6.933970   5.317390   6.870995
    37  C    5.101305   5.201729   5.959089   4.959102   4.810629
    38  C    5.384670   5.935130   6.671115   5.992055   5.573355
    39  C    6.355558   7.017777   7.995257   7.281771   6.901949
    40  H    5.780596   5.761406   6.802645   5.614654   5.663166
    41  H    5.622765   5.545457   5.644698   4.648050   4.257291
    42  H    5.065991   5.789387   6.207699   5.811146   5.175856
    43  H    6.828520   7.695478   8.610452   8.067937   7.560180
    44  H    6.919352   7.432137   8.616666   7.714814   7.496292
                   26         27         28         29         30
    26  H    0.000000
    27  H    1.769898   0.000000
    28  H    1.769856   1.770674   0.000000
    29  H    6.298264   6.840330   7.246369   0.000000
    30  H    4.887690   5.668459   5.769680   1.769745   0.000000
    31  H    6.383964   6.936105   6.969711   1.764848   1.762638
    32  H    8.143097   8.300407   8.645369   2.701768   3.828798
    33  H    8.779144   8.583019   9.082600   4.095985   5.122213
    34  H    7.330459   7.466143   7.372782   3.832627   3.778264
    35  H    7.968201   7.706088   7.820074   4.885255   5.050241
    36  H    9.006280   9.013672   9.033115   4.808478   5.249319
    37  C    4.831175   4.999589   5.989592   2.774637   2.979608
    38  C    4.693805   4.679189   5.984491   4.238324   4.295040
    39  C    5.878350   5.720360   7.162930   5.058344   5.437337
    40  H    5.922485   6.028540   7.031331   2.553173   3.390128
    41  H    4.628859   5.183224   5.934939   2.410495   2.343743
    42  H    3.785826   3.791612   5.142072   4.846986   4.507343
    43  H    6.116181   5.863141   7.414821   6.109298   6.371461
    44  H    6.806351   6.653453   8.051544   4.924074   5.650249
                   31         32         33         34         35
    31  H    0.000000
    32  H    2.393647   0.000000
    33  H    3.861127   1.752343   0.000000
    34  H    2.373084   2.540120   3.085305   0.000000
    35  H    3.836270   3.083834   2.526303   1.769678   0.000000
    36  H    3.628963   2.516322   2.470310   1.764133   1.769117
    37  C    4.006958   4.689663   5.311772   5.475560   5.951924
    38  C    5.485278   6.126805   6.570405   6.871073   7.197352
    39  C    6.478628   6.766774   7.059632   7.834567   8.016123
    40  H    4.017471   4.183592   4.751170   5.459307   5.845098
    41  H    3.671251   4.808484   5.750844   5.504244   6.288195
    42  H    5.890929   6.825634   7.295465   7.230230   7.601460
    43  H    7.504796   7.842186   8.077404   8.835585   8.969416
    44  H    6.455924   6.406135   6.638013   7.793549   7.916604
                   36         37         38         39         40
    36  H    0.000000
    37  C    6.600558   0.000000
    38  C    7.999527   1.503925   0.000000
    39  C    8.780081   2.515676   1.334051   0.000000
    40  H    6.327740   1.096578   2.138252   2.633528   0.000000
    41  H    6.747843   1.095424   2.127237   3.181127   1.767094
    42  H    8.513422   2.205312   1.088497   2.097457   3.089926
    43  H    9.810458   3.506097   2.117031   1.086143   3.717357
    44  H    8.548125   2.780811   2.118951   1.087972   2.441206
                   41         42         43         44
    41  H    0.000000
    42  H    2.559890   0.000000
    43  H    4.094905   2.442522   0.000000
    44  H    3.483107   3.078386   1.849542   0.000000
 Stoichiometry    C14H26O3Si
 Framework group  C1[X(C14H26O3Si)]
 Deg. of freedom   126
 Full point group                 C1      NOp   1
 Largest Abelian subgroup         C1      NOp   1
 Largest concise Abelian subgroup C1      NOp   1
                         Standard orientation:                         
 ---------------------------------------------------------------------
 Center     Atomic      Atomic             Coordinates (Angstroms)
 Number     Number       Type             X           Y           Z
 ---------------------------------------------------------------------
      1          6           0       -2.307280    0.317971   -0.170330
      2          6           0       -0.972818   -0.051215   -0.841834
      3          6           0        0.180261    0.823128   -0.251662
      4          6           0       -0.124499    1.157304    1.241845
      5          6           0       -1.126960    0.273770    1.946268
      6          1           0       -2.468150    1.403390   -0.229202
      7          1           0       -0.764842   -1.079699   -0.522100
      8          1           0        0.798370    1.165096    1.820792
      9          1           0       -0.535862    2.173155    1.300635
     10          8           0       -2.235519   -0.047243    1.241085
     11          8           0       -1.025131   -0.101711    3.095476
     12          6           0       -3.561139   -0.378595   -0.705480
     13          6           0       -3.541689   -1.908893   -0.628687
     14          6           0       -1.037977   -0.040781   -2.374620
     15          8           0        1.433099    0.153285   -0.362321
     16         14           0        2.056303   -1.377371   -0.040854
     17          6           0        3.894877   -1.069956    0.212727
     18          6           0        1.305974   -2.174083    1.495617
     19          6           0        1.807525   -2.511607   -1.528899
     20          1           0        1.868307   -3.084607    1.735137
     21          1           0        1.347486   -1.517278    2.369548
     22          1           0        0.261013   -2.467935    1.353560
     23          1           0        2.331185   -3.461657   -1.369956
     24          1           0        0.752921   -2.744975   -1.708723
     25          1           0        2.211749   -2.059357   -2.440884
     26          1           0        4.333782   -0.571235   -0.657799
     27          1           0        4.074690   -0.436860    1.087868
     28          1           0        4.432035   -2.012879    0.364159
     29          1           0       -1.413077    0.909115   -2.767372
     30          1           0       -0.045495   -0.213708   -2.798738
     31          1           0       -1.694806   -0.832913   -2.741702
     32          1           0       -3.720425   -0.047160   -1.737210
     33          1           0       -4.410519    0.002412   -0.127235
     34          1           0       -2.753966   -2.345371   -1.251005
     35          1           0       -3.384506   -2.245266    0.399498
     36          1           0       -4.496120   -2.316322   -0.974925
     37          6           0        0.361301    2.152383   -1.034030
     38          6           0        1.387974    3.076544   -0.439337
     39          6           0        1.157681    4.341974   -0.085297
     40          1           0       -0.602701    2.670105   -1.105778
     41          1           0        0.669486    1.889642   -2.051843
     42          1           0        2.383211    2.654824   -0.310958
     43          1           0        1.941713    4.971133    0.325993
     44          1           0        0.177315    4.799232   -0.201413
 ---------------------------------------------------------------------
 Rotational constants (GHZ):      0.3976474      0.3218522      0.2642795
 Standard basis: def2TZVP (5D, 7F)
 There are   810 symmetry adapted cartesian basis functions of A   symmetry.
 There are   720 symmetry adapted basis functions of A   symmetry.
   720 basis functions,  1144 primitive gaussians,   810 cartesian basis functions
    74 alpha electrons       74 beta electrons
       nuclear repulsion energy      1643.3246355986 Hartrees.
 NAtoms=   44 NActive=   44 NUniq=   44 SFac= 1.00D+00 NAtFMM=   60 NAOKFM=F Big=F
 Integral buffers will be    131072 words long.
 Raffenetti 2 integral format.
 Two-electron integral symmetry is turned on.
 ------------------------------------------------------------------------------
 Polarizable Continuum Model (PCM)
 =================================
 Model                : PCM (using non-symmetric T matrix).
 Atomic radii         : UFF (Universal Force Field).
 Polarization charges : Total charges.
 Charge compensation  : None.
 Solution method      : On-the-fly selection.
 Cavity type          : Scaled VdW (van der Waals Surface) (Alpha=1.100).
 Cavity algorithm     : GePol (No added spheres)
                        Default sphere list used, NSphG=   44.
                        Lebedev-Laikov grids with approx.  5.0 points / Ang**2.
                        Smoothing algorithm: Karplus/York (Gamma=1.0000).
                        Polarization charges: spherical gaussians, with
                                              point-specific exponents (IZeta= 3).
                        Self-potential: point-specific (ISelfS= 7).
                        Self-field    : sphere-specific E.n sum rule (ISelfD= 2).
 Solvent              : Chloroform, Eps=   4.711300 Eps(inf)=   2.090627
 ------------------------------------------------------------------------------
 One-electron integrals computed using PRISM.
   1 Symmetry operations used in ECPInt.
 ECPInt:  NShTT=   46360 NPrTT=  137514 LenC2=   42498 LenP2D=   91260.
 LDataN:  DoStor=T MaxTD1= 6 Len=  172
 NBasis=   720 RedAO= T EigKep=  2.42D-05  NBF=   720
 NBsUse=   720 1.00D-06 EigRej= -1.00D+00 NBFU=   720
 ExpMin= 7.01D-02 ExpMax= 4.48D+04 ExpMxC= 1.53D+03 IAcc=3 IRadAn=         5 AccDes= 0.00D+00
 Harris functional with IExCor= 1009 and IRadAn=       5 diagonalized for initial guess.
 HarFok:  IExCor= 1009 AccDes= 0.00D+00 IRadAn=         5 IDoV= 1 UseB2=F ITyADJ=14
 ICtDFT=  3500011 ScaDFX=  1.000000  1.000000  1.000000  1.000000
 FoFCou: FMM=F IPFlag=           0 FMFlag=      100000 FMFlg1=           0
         NFxFlg=           0 DoJE=T BraDBF=F KetDBF=T FulRan=T
         wScrn=  0.000000 ICntrl=     500 IOpCl=  0 I1Cent=   200000004 NGrid=           0
         NMat0=    1 NMatS0=      1 NMatT0=    0 NMatD0=    1 NMtDS0=    0 NMtDT0=    0
 Petite list used in FoFCou.
 Requested convergence on RMS density matrix=1.00D-08 within 128 cycles.
 Requested convergence on MAX density matrix=1.00D-06.
 Requested convergence on             energy=1.00D-06.
 No special actions if energy rises.
 Inv3:  Mode=1 IEnd=    24043683.
 Iteration    1 A*A^-1 deviation from unit magnitude is 5.11D-15 for   2808.
 Iteration    1 A*A^-1 deviation from orthogonality  is 3.28D-15 for   2795   1555.
 Iteration    1 A^-1*A deviation from unit magnitude is 4.00D-15 for   2808.
 Iteration    1 A^-1*A deviation from orthogonality  is 8.05D-13 for   2183   2179.
 Error on total polarization charges =  0.01453
 SCF Done:  E(RM062X) =  -1064.34063821     A.U. after   14 cycles
            NFock= 14  Conv=0.12D-08     -V/T= 2.0048

 **********************************************************************

            Population analysis using the SCF density.

 **********************************************************************

 Orbital symmetries:
       Occupied  (A) (A) (A) (A) (A) (A) (A) (A) (A) (A) (A) (A)
                 (A) (A) (A) (A) (A) (A) (A) (A) (A) (A) (A) (A)
                 (A) (A) (A) (A) (A) (A) (A) (A) (A) (A) (A) (A)
                 (A) (A) (A) (A) (A) (A) (A) (A) (A) (A) (A) (A)
                 (A) (A) (A) (A) (A) (A) (A) (A) (A) (A) (A) (A)
                 (A) (A) (A) (A) (A) (A) (A) (A) (A) (A) (A) (A)
                 (A) (A)
       Virtual   (A) (A) (A) (A) (A) (A) (A) (A) (A) (A) (A) (A)
                 (A) (A) (A) (A) (A) (A) (A) (A) (A) (A) (A) (A)
                 (A) (A) (A) (A) (A) (A) (A) (A) (A) (A) (A) (A)
                 (A) (A) (A) (A) (A) (A) (A) (A) (A) (A) (A) (A)
                 (A) (A) (A) (A) (A) (A) (A) (A) (A) (A) (A) (A)
                 (A) (A) (A) (A) (A) (A) (A) (A) (A) (A) (A) (A)
                 (A) (A) (A) (A) (A) (A) (A) (A) (A) (A) (A) (A)
                 (A) (A) (A) (A) (A) (A) (A) (A) (A) (A) (A) (A)
                 (A) (A) (A) (A) (A) (A) (A) (A) (A) (A) (A) (A)
                 (A) (A) (A) (A) (A) (A) (A) (A) (A) (A) (A) (A)
                 (A) (A) (A) (A) (A) (A) (A) (A) (A) (A) (A) (A)
                 (A) (A) (A) (A) (A) (A) (A) (A) (A) (A) (A) (A)
                 (A) (A) (A) (A) (A) (A) (A) (A) (A) (A) (A) (A)
                 (A) (A) (A) (A) (A) (A) (A) (A) (A) (A) (A) (A)
                 (A) (A) (A) (A) (A) (A) (A) (A) (A) (A) (A) (A)
                 (A) (A) (A) (A) (A) (A) (A) (A) (A) (A) (A) (A)
                 (A) (A) (A) (A) (A) (A) (A) (A) (A) (A) (A) (A)
                 (A) (A) (A) (A) (A) (A) (A) (A) (A) (A) (A) (A)
                 (A) (A) (A) (A) (A) (A) (A) (A) (A) (A) (A) (A)
                 (A) (A) (A) (A) (A) (A) (A) (A) (A) (A) (A) (A)
                 (A) (A) (A) (A) (A) (A) (A) (A) (A) (A) (A) (A)
                 (A) (A) (A) (A) (A) (A) (A) (A) (A) (A) (A) (A)
                 (A) (A) (A) (A) (A) (A) (A) (A) (A) (A) (A) (A)
                 (A) (A) (A) (A) (A) (A) (A) (A) (A) (A) (A) (A)
                 (A) (A) (A) (A) (A) (A) (A) (A) (A) (A) (A) (A)
                 (A) (A) (A) (A) (A) (A) (A) (A) (A) (A) (A) (A)
                 (A) (A) (A) (A) (A) (A) (A) (A) (A) (A) (A) (A)
                 (A) (A) (A) (A) (A) (A) (A) (A) (A) (A) (A) (A)
                 (A) (A) (A) (A) (A) (A) (A) (A) (A) (A) (A) (A)
                 (A) (A) (A) (A) (A) (A) (A) (A) (A) (A) (A) (A)
                 (A) (A) (A) (A) (A) (A) (A) (A) (A) (A) (A) (A)
                 (A) (A) (A) (A) (A) (A) (A) (A) (A) (A) (A) (A)
                 (A) (A) (A) (A) (A) (A) (A) (A) (A) (A) (A) (A)
                 (A) (A) (A) (A) (A) (A) (A) (A) (A) (A) (A) (A)
                 (A) (A) (A) (A) (A) (A) (A) (A) (A) (A) (A) (A)
                 (A) (A) (A) (A) (A) (A) (A) (A) (A) (A) (A) (A)
                 (A) (A) (A) (A) (A) (A) (A) (A) (A) (A) (A) (A)
                 (A) (A) (A) (A) (A) (A) (A) (A) (A) (A) (A) (A)
                 (A) (A) (A) (A) (A) (A) (A) (A) (A) (A) (A) (A)
                 (A) (A) (A) (A) (A) (A) (A) (A) (A) (A) (A) (A)
                 (A) (A) (A) (A) (A) (A) (A) (A) (A) (A) (A) (A)
                 (A) (A) (A) (A) (A) (A) (A) (A) (A) (A) (A) (A)
                 (A) (A) (A) (A) (A) (A) (A) (A) (A) (A) (A) (A)
                 (A) (A) (A) (A) (A) (A) (A) (A) (A) (A) (A) (A)
                 (A) (A) (A) (A) (A) (A) (A) (A) (A) (A) (A) (A)
                 (A) (A) (A) (A) (A) (A) (A) (A) (A) (A) (A) (A)
                 (A) (A) (A) (A) (A) (A) (A) (A) (A) (A) (A) (A)
                 (A) (A) (A) (A) (A) (A) (A) (A) (A) (A) (A) (A)
                 (A) (A) (A) (A) (A) (A) (A) (A) (A) (A) (A) (A)
                 (A) (A) (A) (A) (A) (A) (A) (A) (A) (A) (A) (A)
                 (A) (A) (A) (A) (A) (A) (A) (A) (A) (A) (A) (A)
                 (A) (A) (A) (A) (A) (A) (A) (A) (A) (A) (A) (A)
                 (A) (A) (A) (A) (A) (A) (A) (A) (A) (A) (A) (A)
                 (A) (A) (A) (A) (A) (A) (A) (A) (A) (A)
 The electronic state is 1-A.
 Alpha  occ. eigenvalues --  -67.01539 -19.67236 -19.61798 -19.61684 -10.67933
 Alpha  occ. eigenvalues --  -10.62438 -10.61185 -10.55953 -10.55536 -10.54579
 Alpha  occ. eigenvalues --  -10.54448 -10.54394 -10.53696 -10.53430 -10.52808
 Alpha  occ. eigenvalues --  -10.50941 -10.50884 -10.50688  -5.54991  -3.86180
 Alpha  occ. eigenvalues --   -3.86032  -3.86020  -1.23013  -1.14323  -1.13219
 Alpha  occ. eigenvalues --   -0.93568  -0.90726  -0.87714  -0.84847  -0.80857
 Alpha  occ. eigenvalues --   -0.79476  -0.79305  -0.76788  -0.76691  -0.73961
 Alpha  occ. eigenvalues --   -0.69169  -0.68888  -0.64675  -0.62347  -0.60335
 Alpha  occ. eigenvalues --   -0.58600  -0.56858  -0.55120  -0.54635  -0.52202
 Alpha  occ. eigenvalues --   -0.51432  -0.50976  -0.50344  -0.49694  -0.48988
 Alpha  occ. eigenvalues --   -0.48143  -0.47783  -0.47234  -0.47133  -0.45996
 Alpha  occ. eigenvalues --   -0.45856  -0.45418  -0.45028  -0.44340  -0.43981
 Alpha  occ. eigenvalues --   -0.43414  -0.43170  -0.42727  -0.41444  -0.41290
 Alpha  occ. eigenvalues --   -0.40999  -0.40074  -0.38632  -0.37148  -0.36380
 Alpha  occ. eigenvalues --   -0.35498  -0.34143  -0.33326  -0.31991
 Alpha virt. eigenvalues --    0.03609   0.03755   0.04677   0.06093   0.06738
 Alpha virt. eigenvalues --    0.07459   0.09196   0.09888   0.10052   0.10483
 Alpha virt. eigenvalues --    0.10540   0.11156   0.11723   0.12034   0.12992
 Alpha virt. eigenvalues --    0.13299   0.13598   0.14207   0.14529   0.14851
 Alpha virt. eigenvalues --    0.15203   0.15379   0.15880   0.16023   0.16681
 Alpha virt. eigenvalues --    0.16829   0.17151   0.17573   0.17721   0.18475
 Alpha virt. eigenvalues --    0.18806   0.19430   0.19813   0.20596   0.20652
 Alpha virt. eigenvalues --    0.21362   0.21546   0.21953   0.22786   0.23080
 Alpha virt. eigenvalues --    0.23419   0.23974   0.24202   0.24951   0.25465
 Alpha virt. eigenvalues --    0.26218   0.26681   0.26892   0.27599   0.28571
 Alpha virt. eigenvalues --    0.28889   0.29157   0.29807   0.30560   0.30873
 Alpha virt. eigenvalues --    0.31589   0.32059   0.32828   0.33295   0.33752
 Alpha virt. eigenvalues --    0.34623   0.35064   0.35793   0.36221   0.36646
 Alpha virt. eigenvalues --    0.37241   0.37532   0.38571   0.38736   0.39141
 Alpha virt. eigenvalues --    0.39675   0.40554   0.40657   0.40729   0.41897
 Alpha virt. eigenvalues --    0.42196   0.42761   0.43263   0.43814   0.44328
 Alpha virt. eigenvalues --    0.44397   0.45224   0.45685   0.46111   0.46431
 Alpha virt. eigenvalues --    0.46831   0.46958   0.47241   0.47655   0.48033
 Alpha virt. eigenvalues --    0.48226   0.48610   0.48931   0.49661   0.49796
 Alpha virt. eigenvalues --    0.50050   0.50267   0.50687   0.50794   0.51257
 Alpha virt. eigenvalues --    0.51493   0.51990   0.52487   0.53038   0.53620
 Alpha virt. eigenvalues --    0.54246   0.54523   0.55270   0.55520   0.55998
 Alpha virt. eigenvalues --    0.56534   0.56628   0.57078   0.58512   0.59304
 Alpha virt. eigenvalues --    0.59799   0.60673   0.60929   0.62092   0.62465
 Alpha virt. eigenvalues --    0.63163   0.63525   0.64856   0.65356   0.65685
 Alpha virt. eigenvalues --    0.66624   0.67309   0.67488   0.67916   0.69281
 Alpha virt. eigenvalues --    0.70080   0.71044   0.71256   0.72067   0.73668
 Alpha virt. eigenvalues --    0.74193   0.75419   0.75873   0.76881   0.77089
 Alpha virt. eigenvalues --    0.77376   0.78838   0.80231   0.80849   0.81588
 Alpha virt. eigenvalues --    0.82939   0.84177   0.84738   0.85475   0.87136
 Alpha virt. eigenvalues --    0.88048   0.88693   0.89468   0.89765   0.90240
 Alpha virt. eigenvalues --    0.91002   0.91726   0.92330   0.92971   0.94475
 Alpha virt. eigenvalues --    0.94693   0.95352   0.96192   0.96641   0.97245
 Alpha virt. eigenvalues --    0.97647   0.98161   0.98875   0.99686   1.00602
 Alpha virt. eigenvalues --    1.01765   1.01982   1.02643   1.04609   1.05412
 Alpha virt. eigenvalues --    1.05800   1.06116   1.06894   1.07448   1.08108
 Alpha virt. eigenvalues --    1.08313   1.09579   1.09880   1.10663   1.11772
 Alpha virt. eigenvalues --    1.12120   1.13063   1.13741   1.14157   1.15998
 Alpha virt. eigenvalues --    1.16823   1.17115   1.18570   1.19681   1.20387
 Alpha virt. eigenvalues --    1.21590   1.21689   1.22886   1.23769   1.23858
 Alpha virt. eigenvalues --    1.26122   1.27097   1.28024   1.28423   1.29610
 Alpha virt. eigenvalues --    1.30238   1.30959   1.31339   1.32999   1.33471
 Alpha virt. eigenvalues --    1.35099   1.35856   1.36598   1.36979   1.38038
 Alpha virt. eigenvalues --    1.39484   1.41016   1.41369   1.41791   1.42868
 Alpha virt. eigenvalues --    1.43804   1.44866   1.45697   1.46741   1.47341
 Alpha virt. eigenvalues --    1.48368   1.49141   1.50036   1.51243   1.52576
 Alpha virt. eigenvalues --    1.54453   1.55087   1.55844   1.56584   1.56921
 Alpha virt. eigenvalues --    1.58079   1.58785   1.58869   1.59469   1.59546
 Alpha virt. eigenvalues --    1.60246   1.60875   1.61256   1.62080   1.62158
 Alpha virt. eigenvalues --    1.62635   1.63109   1.63861   1.64582   1.65061
 Alpha virt. eigenvalues --    1.65302   1.65815   1.66109   1.66530   1.67236
 Alpha virt. eigenvalues --    1.67365   1.68313   1.68449   1.69029   1.69664
 Alpha virt. eigenvalues --    1.70030   1.71356   1.71859   1.72098   1.72301
 Alpha virt. eigenvalues --    1.73865   1.74853   1.76259   1.76763   1.77194
 Alpha virt. eigenvalues --    1.78291   1.80026   1.80807   1.82400   1.82806
 Alpha virt. eigenvalues --    1.83435   1.84158   1.84842   1.85788   1.86778
 Alpha virt. eigenvalues --    1.87800   1.90166   1.90880   1.91571   1.93251
 Alpha virt. eigenvalues --    1.94493   1.95473   1.96047   1.97079   1.97619
 Alpha virt. eigenvalues --    1.98661   2.00005   2.00342   2.01214   2.01868
 Alpha virt. eigenvalues --    2.02931   2.03458   2.04655   2.05511   2.05951
 Alpha virt. eigenvalues --    2.06288   2.07949   2.08317   2.08944   2.09186
 Alpha virt. eigenvalues --    2.10216   2.11481   2.12293   2.12716   2.13980
 Alpha virt. eigenvalues --    2.15513   2.16050   2.16988   2.17484   2.18368
 Alpha virt. eigenvalues --    2.19377   2.20618   2.22283   2.22791   2.23128
 Alpha virt. eigenvalues --    2.23561   2.24736   2.25541   2.26319   2.27660
 Alpha virt. eigenvalues --    2.28305   2.30267   2.31873   2.32006   2.32749
 Alpha virt. eigenvalues --    2.33433   2.34123   2.35926   2.36444   2.37252
 Alpha virt. eigenvalues --    2.37831   2.39412   2.39552   2.39863   2.40111
 Alpha virt. eigenvalues --    2.40737   2.41899   2.42261   2.42328   2.42864
 Alpha virt. eigenvalues --    2.43810   2.44123   2.44601   2.44913   2.46146
 Alpha virt. eigenvalues --    2.47959   2.48275   2.48644   2.49105   2.49598
 Alpha virt. eigenvalues --    2.50901   2.51606   2.51975   2.53562   2.54141
 Alpha virt. eigenvalues --    2.55787   2.56692   2.57269   2.58460   2.58754
 Alpha virt. eigenvalues --    2.58966   2.60089   2.60624   2.61299   2.62191
 Alpha virt. eigenvalues --    2.62604   2.63333   2.64086   2.64685   2.65026
 Alpha virt. eigenvalues --    2.65575   2.66665   2.66928   2.67053   2.67782
 Alpha virt. eigenvalues --    2.68786   2.68911   2.69337   2.69677   2.70642
 Alpha virt. eigenvalues --    2.71182   2.71540   2.72729   2.73202   2.73335
 Alpha virt. eigenvalues --    2.74486   2.75043   2.77430   2.78074   2.79340
 Alpha virt. eigenvalues --    2.80106   2.80490   2.82420   2.82859   2.84218
 Alpha virt. eigenvalues --    2.85703   2.86671   2.87155   2.87783   2.89467
 Alpha virt. eigenvalues --    2.90691   2.91260   2.92405   2.94570   2.95035
 Alpha virt. eigenvalues --    2.95583   2.96531   2.96856   2.98789   3.00021
 Alpha virt. eigenvalues --    3.00736   3.00908   3.02695   3.03237   3.05566
 Alpha virt. eigenvalues --    3.06235   3.06969   3.07814   3.08664   3.09755
 Alpha virt. eigenvalues --    3.11258   3.11876   3.12688   3.13283   3.14013
 Alpha virt. eigenvalues --    3.14611   3.15232   3.15597   3.15769   3.16431
 Alpha virt. eigenvalues --    3.16887   3.17840   3.18755   3.19330   3.19521
 Alpha virt. eigenvalues --    3.20896   3.22124   3.22335   3.23877   3.24427
 Alpha virt. eigenvalues --    3.24986   3.25541   3.25818   3.26094   3.26785
 Alpha virt. eigenvalues --    3.27596   3.28264   3.29165   3.30061   3.30405
 Alpha virt. eigenvalues --    3.30772   3.31407   3.31859   3.32154   3.32786
 Alpha virt. eigenvalues --    3.33325   3.34025   3.34228   3.34789   3.36070
 Alpha virt. eigenvalues --    3.36170   3.37112   3.37748   3.38020   3.38938
 Alpha virt. eigenvalues --    3.39785   3.40388   3.40770   3.41720   3.42647
 Alpha virt. eigenvalues --    3.43142   3.43783   3.43877   3.44692   3.45622
 Alpha virt. eigenvalues --    3.47034   3.47153   3.48519   3.49158   3.50769
 Alpha virt. eigenvalues --    3.51615   3.51863   3.53329   3.54158   3.55250
 Alpha virt. eigenvalues --    3.56433   3.56534   3.57448   3.58490   3.58848
 Alpha virt. eigenvalues --    3.59197   3.60716   3.61089   3.62449   3.62534
 Alpha virt. eigenvalues --    3.63933   3.64443   3.65285   3.65969   3.66549
 Alpha virt. eigenvalues --    3.67366   3.68289   3.69201   3.70776   3.72318
 Alpha virt. eigenvalues --    3.72740   3.73260   3.73819   3.75507   3.76373
 Alpha virt. eigenvalues --    3.78280   3.81899   3.82720   3.82959   3.85187
 Alpha virt. eigenvalues --    3.85564   3.88782   3.90566   3.91270   3.93112
 Alpha virt. eigenvalues --    3.94298   3.95003   3.97489   3.99258   4.02099
 Alpha virt. eigenvalues --    4.03079   4.04570   4.06164   4.07165   4.08645
 Alpha virt. eigenvalues --    4.12002   4.12935   4.14111   4.15929   4.16912
 Alpha virt. eigenvalues --    4.18005   4.20912   4.23345   4.24242   4.25402
 Alpha virt. eigenvalues --    4.26392   4.27054   4.27477   4.28882   4.29964
 Alpha virt. eigenvalues --    4.30901   4.31235   4.33073   4.35077   4.36427
 Alpha virt. eigenvalues --    4.37660   4.38722   4.39067   4.39386   4.40606
 Alpha virt. eigenvalues --    4.41672   4.43048   4.44026   4.46632   4.50324
 Alpha virt. eigenvalues --    4.51305   4.52603   4.54225   4.56444   4.60081
 Alpha virt. eigenvalues --    4.62379   4.65443   4.66875   4.67957   4.70768
 Alpha virt. eigenvalues --    4.71813   4.74546   4.78034   4.82338   4.84358
 Alpha virt. eigenvalues --    4.85176   4.87215   4.92648   4.97098   5.00541
 Alpha virt. eigenvalues --    5.02286   5.05918   5.09924   5.20325   5.22695
 Alpha virt. eigenvalues --    5.24363   5.26012   5.26550   5.30265   5.44919
 Alpha virt. eigenvalues --    5.48391   5.49328   5.52202   5.61317   5.81394
 Alpha virt. eigenvalues --    5.85350   5.86601   5.88805   5.91401   5.99403
 Alpha virt. eigenvalues --    6.12911   6.17422   6.22160   6.36924   6.39343
 Alpha virt. eigenvalues --    6.51507   6.61000   6.61609   6.67407   6.68969
 Alpha virt. eigenvalues --    6.72666   6.77970   6.82702   6.84222   6.89100
 Alpha virt. eigenvalues --    6.90385   6.97461   7.05058   7.06698   7.14670
 Alpha virt. eigenvalues --    7.21892   7.34061   7.41578  12.18186  22.30073
 Alpha virt. eigenvalues --   22.38635  22.41996  22.44436  22.47091  22.54962
 Alpha virt. eigenvalues --   22.61939  22.65665  22.70010  22.73104  22.80781
 Alpha virt. eigenvalues --   22.83349  22.91308  23.43814  44.11942  44.49361
 Alpha virt. eigenvalues --   44.54113
          Condensed to atoms (all electrons):
               1          2          3          4          5          6
     1  C    5.467221  -0.079257   0.049814  -0.077906  -0.045764   0.453880
     2  C   -0.079257   6.140555  -0.047760   0.031257  -0.022427  -0.077543
     3  C    0.049814  -0.047760   5.816556  -0.124358   0.081909   0.000177
     4  C   -0.077906   0.031257  -0.124358   6.145452   0.084959  -0.003175
     5  C   -0.045764  -0.022427   0.081909   0.084959   4.504934  -0.007343
     6  H    0.453880  -0.077543   0.000177  -0.003175  -0.007343   0.512930
     7  H   -0.007389   0.408805  -0.068372  -0.013179  -0.000340   0.006256
     8  H   -0.000154   0.010267  -0.031028   0.386979  -0.018054  -0.000275
     9  H   -0.001338   0.003499  -0.052332   0.390679  -0.017011  -0.000863
    10  O    0.188069  -0.046987   0.011337  -0.150226   0.381181  -0.030779
    11  O    0.001957  -0.003038   0.016198  -0.144436   0.724907   0.000020
    12  C    0.179860  -0.026400   0.012908  -0.003761   0.002576  -0.037210
    13  C   -0.043623   0.033807  -0.000392  -0.000529  -0.001273   0.007493
    14  C   -0.021195   0.083755  -0.017940   0.001673   0.001162   0.004649
    15  O    0.002879  -0.019880   0.162309  -0.048262   0.001030   0.000248
    16  Si  -0.001139   0.021330  -0.082396   0.005161  -0.002978   0.000149
    17  C    0.000019  -0.001372   0.001004   0.000212   0.000477   0.000000
    18  C   -0.000739  -0.013030   0.010815   0.010093   0.002812  -0.000040
    19  C    0.001237   0.005789  -0.003499  -0.001351   0.000070  -0.000007
    20  H   -0.000004   0.000378  -0.000529   0.000006   0.000214   0.000000
    21  H    0.000456  -0.000170   0.000336  -0.004243   0.001518  -0.000007
    22  H   -0.001108  -0.002825   0.001623  -0.005181   0.005195   0.000024
    23  H   -0.000012  -0.000292   0.000093   0.000052  -0.000010   0.000000
    24  H    0.000797   0.002128  -0.002482   0.000122  -0.000035  -0.000004
    25  H   -0.000094  -0.001345   0.001868   0.000071  -0.000011   0.000000
    26  H    0.000003   0.000139  -0.000277   0.000123  -0.000014   0.000000
    27  H   -0.000004   0.000076   0.000931  -0.000670  -0.000006   0.000000
    28  H   -0.000002   0.000029   0.000022  -0.000018  -0.000014   0.000000
    29  H   -0.000445  -0.019521  -0.033238   0.000147  -0.000088   0.001948
    30  H    0.013304  -0.071616   0.020494   0.000969  -0.000133  -0.000450
    31  H   -0.025907  -0.032202   0.011526  -0.000703   0.000031   0.000035
    32  H   -0.021470  -0.026140  -0.001278   0.000390  -0.000077  -0.001386
    33  H   -0.062801   0.018892  -0.000572   0.000776  -0.000216  -0.007727
    34  H   -0.032089   0.032476   0.000993   0.000275   0.000096  -0.000599
    35  H    0.011672  -0.011223  -0.000552   0.000742  -0.000490   0.000287
    36  H    0.012501  -0.001731  -0.000003   0.000014   0.000040  -0.000165
    37  C   -0.013040  -0.017565   0.145100  -0.018626   0.002505   0.000453
    38  C   -0.001728   0.015882  -0.033721  -0.028380  -0.001195  -0.000120
    39  C   -0.000071  -0.000081  -0.005377  -0.001658   0.000133   0.000065
    40  H   -0.000750   0.007269  -0.042644  -0.009508   0.000003   0.001133
    41  H    0.002239  -0.022936  -0.044283   0.005507  -0.000012  -0.000122
    42  H   -0.000042   0.000808   0.004321  -0.004586   0.000054   0.000001
    43  H    0.000000   0.000022  -0.000194  -0.000026  -0.000002  -0.000002
    44  H   -0.000019   0.000074  -0.001453  -0.000145  -0.000024   0.000068
               7          8          9         10         11         12
     1  C   -0.007389  -0.000154  -0.001338   0.188069   0.001957   0.179860
     2  C    0.408805   0.010267   0.003499  -0.046987  -0.003038  -0.026400
     3  C   -0.068372  -0.031028  -0.052332   0.011337   0.016198   0.012908
     4  C   -0.013179   0.386979   0.390679  -0.150226  -0.144436  -0.003761
     5  C   -0.000340  -0.018054  -0.017011   0.381181   0.724907   0.002576
     6  H    0.006256  -0.000275  -0.000863  -0.030779   0.000020  -0.037210
     7  H    0.521834  -0.000076  -0.000176  -0.000169  -0.001108  -0.010798
     8  H   -0.000076   0.445241  -0.004919   0.005477   0.006575   0.000225
     9  H   -0.000176  -0.004919   0.458538   0.003288   0.003932  -0.000002
    10  O   -0.000169   0.005477   0.003288   8.000254  -0.098371  -0.036645
    11  O   -0.001108   0.006575   0.003932  -0.098371   7.859458  -0.000445
    12  C   -0.010798   0.000225  -0.000002  -0.036645  -0.000445   5.232604
    13  C   -0.005684   0.000004  -0.000025  -0.007363  -0.000028   0.229206
    14  C   -0.028109  -0.000402  -0.000103   0.006585  -0.000084   0.023036
    15  O   -0.012674   0.000583   0.004394  -0.000172  -0.000034  -0.000552
    16  Si   0.003325  -0.000861   0.000092   0.000170  -0.000484  -0.000068
    17  C   -0.000185  -0.000464  -0.000003  -0.000003   0.000014  -0.000003
    18  C    0.001241  -0.002660  -0.000074  -0.001980  -0.003143   0.000186
    19  C   -0.000263   0.000242   0.000029   0.000010  -0.000014   0.000068
    20  H   -0.000034   0.000037   0.000001   0.000003   0.000256   0.000000
    21  H   -0.000580   0.000549   0.000324   0.000401   0.004782  -0.000011
    22  H    0.003326   0.000070  -0.000025   0.000632  -0.001760   0.000167
    23  H   -0.000039  -0.000007  -0.000001   0.000000   0.000000  -0.000003
    24  H    0.003856  -0.000018   0.000002  -0.000016   0.000002  -0.000028
    25  H   -0.000246  -0.000004  -0.000001   0.000000   0.000000  -0.000001
    26  H   -0.000012   0.000002  -0.000002   0.000000   0.000000   0.000000
    27  H    0.000004   0.000548  -0.000001   0.000000  -0.000009   0.000000
    28  H    0.000002   0.000034   0.000000   0.000000   0.000000   0.000000
    29  H    0.006560   0.000008  -0.000081  -0.000022   0.000000  -0.008144
    30  H   -0.004005  -0.000051  -0.000011  -0.000236   0.000002  -0.000702
    31  H   -0.010030   0.000012   0.000022   0.000121   0.000000   0.014202
    32  H    0.002494  -0.000011  -0.000008   0.003501   0.000012   0.421791
    33  H   -0.001089  -0.000008   0.000000   0.002415  -0.000002   0.437303
    34  H   -0.012303  -0.000002   0.000002   0.000724   0.000009  -0.031653
    35  H    0.002742  -0.000014  -0.000006   0.005232   0.000269  -0.050750
    36  H    0.000467   0.000000   0.000000   0.000115   0.000002  -0.044536
    37  C    0.012119  -0.005883  -0.004541   0.000472  -0.000052   0.000290
    38  C   -0.000560   0.000431   0.002598  -0.000269  -0.000206   0.000062
    39  C   -0.000011   0.000435   0.000431  -0.000004  -0.000002   0.000015
    40  H    0.000386   0.000237  -0.002413  -0.000151   0.000014   0.000593
    41  H   -0.000774  -0.000023   0.000769  -0.000030   0.000008   0.000090
    42  H    0.000035   0.000699   0.000629   0.000007   0.000016   0.000006
    43  H    0.000000   0.000011   0.000016   0.000000   0.000000   0.000000
    44  H    0.000001   0.000049   0.000025   0.000001   0.000001   0.000004
              13         14         15         16         17         18
     1  C   -0.043623  -0.021195   0.002879  -0.001139   0.000019  -0.000739
     2  C    0.033807   0.083755  -0.019880   0.021330  -0.001372  -0.013030
     3  C   -0.000392  -0.017940   0.162309  -0.082396   0.001004   0.010815
     4  C   -0.000529   0.001673  -0.048262   0.005161   0.000212   0.010093
     5  C   -0.001273   0.001162   0.001030  -0.002978   0.000477   0.002812
     6  H    0.007493   0.004649   0.000248   0.000149   0.000000  -0.000040
     7  H   -0.005684  -0.028109  -0.012674   0.003325  -0.000185   0.001241
     8  H    0.000004  -0.000402   0.000583  -0.000861  -0.000464  -0.002660
     9  H   -0.000025  -0.000103   0.004394   0.000092  -0.000003  -0.000074
    10  O   -0.007363   0.006585  -0.000172   0.000170  -0.000003  -0.001980
    11  O   -0.000028  -0.000084  -0.000034  -0.000484   0.000014  -0.003143
    12  C    0.229206   0.023036  -0.000552  -0.000068  -0.000003   0.000186
    13  C    5.107472  -0.013475   0.000044   0.000461   0.000000  -0.000180
    14  C   -0.013475   5.231505  -0.004321  -0.004398   0.000230   0.000688
    15  O    0.000044  -0.004321   8.034787   0.400117  -0.021793  -0.032414
    16  Si   0.000461  -0.004398   0.400117  12.421617   0.394759   0.320322
    17  C    0.000000   0.000230  -0.021793   0.394759   5.119892  -0.047051
    18  C   -0.000180   0.000688  -0.032414   0.320322  -0.047051   5.222631
    19  C   -0.000229  -0.002607  -0.024676   0.345916  -0.046777  -0.055528
    20  H    0.000000  -0.000019   0.001155  -0.018561  -0.000241   0.378091
    21  H    0.000008  -0.000083  -0.000240  -0.036213   0.001441   0.390510
    22  H   -0.000279   0.000754   0.001013  -0.036788   0.003173   0.390279
    23  H    0.000004   0.000200   0.001256  -0.029166   0.001760   0.002251
    24  H   -0.000090  -0.003716   0.001371  -0.033761   0.002680   0.001383
    25  H    0.000005  -0.000110  -0.000461  -0.038183   0.001355   0.003487
    26  H    0.000000  -0.000037   0.000634  -0.030852   0.388120   0.003470
    27  H    0.000000  -0.000003   0.001035  -0.032786   0.389508   0.001007
    28  H    0.000000  -0.000003   0.001199  -0.041994   0.393249   0.002149
    29  H    0.001147   0.415458   0.000778   0.000052  -0.000001   0.000005
    30  H   -0.000110   0.431534   0.004517  -0.000154   0.000077   0.000248
    31  H   -0.003764   0.422541  -0.000145   0.000150   0.000000  -0.000026
    32  H   -0.042458   0.002424   0.000000  -0.000044   0.000000   0.000000
    33  H   -0.038405  -0.001439   0.000008   0.000009   0.000000   0.000001
    34  H    0.407565  -0.005757   0.000022   0.000114   0.000002  -0.000013
    35  H    0.415650   0.000986   0.000004  -0.000161   0.000000   0.000116
    36  H    0.416623   0.000708   0.000000  -0.000006   0.000000  -0.000002
    37  C    0.000033   0.001975  -0.088552   0.006788   0.000423  -0.000452
    38  C    0.000004  -0.001620   0.004576  -0.001370   0.000010   0.000165
    39  C    0.000000  -0.000270   0.002128  -0.000097  -0.000041   0.000034
    40  H   -0.000002  -0.008155   0.004880  -0.000176   0.000001   0.000049
    41  H   -0.000015   0.002515  -0.000532  -0.000770  -0.000018   0.000109
    42  H    0.000000  -0.000147   0.007788  -0.001001  -0.000846   0.000149
    43  H    0.000000   0.000002   0.000003   0.000005   0.000003   0.000000
    44  H    0.000000  -0.000001  -0.000014  -0.000006  -0.000001   0.000000
              19         20         21         22         23         24
     1  C    0.001237  -0.000004   0.000456  -0.001108  -0.000012   0.000797
     2  C    0.005789   0.000378  -0.000170  -0.002825  -0.000292   0.002128
     3  C   -0.003499  -0.000529   0.000336   0.001623   0.000093  -0.002482
     4  C   -0.001351   0.000006  -0.004243  -0.005181   0.000052   0.000122
     5  C    0.000070   0.000214   0.001518   0.005195  -0.000010  -0.000035
     6  H   -0.000007   0.000000  -0.000007   0.000024   0.000000  -0.000004
     7  H   -0.000263  -0.000034  -0.000580   0.003326  -0.000039   0.003856
     8  H    0.000242   0.000037   0.000549   0.000070  -0.000007  -0.000018
     9  H    0.000029   0.000001   0.000324  -0.000025  -0.000001   0.000002
    10  O    0.000010   0.000003   0.000401   0.000632   0.000000  -0.000016
    11  O   -0.000014   0.000256   0.004782  -0.001760   0.000000   0.000002
    12  C    0.000068   0.000000  -0.000011   0.000167  -0.000003  -0.000028
    13  C   -0.000229   0.000000   0.000008  -0.000279   0.000004  -0.000090
    14  C   -0.002607  -0.000019  -0.000083   0.000754   0.000200  -0.003716
    15  O   -0.024676   0.001155  -0.000240   0.001013   0.001256   0.001371
    16  Si   0.345916  -0.018561  -0.036213  -0.036788  -0.029166  -0.033761
    17  C   -0.046777  -0.000241   0.001441   0.003173   0.001760   0.002680
    18  C   -0.055528   0.378091   0.390510   0.390279   0.002251   0.001383
    19  C    5.174341   0.001509   0.002969   0.001784   0.385276   0.389441
    20  H    0.001509   0.496559  -0.014853  -0.016633   0.000282   0.000171
    21  H    0.002969  -0.014853   0.496015  -0.018381  -0.000148  -0.000138
    22  H    0.001784  -0.016633  -0.018381   0.503965   0.000290   0.000321
    23  H    0.385276   0.000282  -0.000148   0.000290   0.505794  -0.017727
    24  H    0.389441   0.000171  -0.000138   0.000321  -0.017727   0.515941
    25  H    0.393467  -0.000124  -0.000083  -0.000183  -0.015978  -0.019807
    26  H    0.000191  -0.000121  -0.000189  -0.000093   0.000275  -0.000152
    27  H    0.003415   0.000215   0.000688  -0.000131  -0.000160  -0.000104
    28  H    0.003124   0.000396   0.000220  -0.000178   0.000008  -0.000148
    29  H   -0.000097   0.000000   0.000000  -0.000006   0.000002   0.000079
    30  H   -0.001049  -0.000004  -0.000002  -0.000027   0.000170  -0.001152
    31  H   -0.000125   0.000000   0.000001   0.000015  -0.000020   0.000082
    32  H    0.000004   0.000000   0.000000  -0.000005   0.000000  -0.000006
    33  H    0.000001   0.000000   0.000000  -0.000001   0.000000   0.000001
    34  H    0.000065  -0.000001   0.000000   0.000078   0.000002   0.000406
    35  H    0.000027   0.000001  -0.000013   0.000029  -0.000001  -0.000001
    36  H   -0.000002   0.000000   0.000000   0.000002   0.000000  -0.000005
    37  C   -0.000513   0.000011  -0.000082  -0.000143  -0.000008   0.000338
    38  C    0.000173  -0.000004  -0.000004  -0.000022  -0.000002  -0.000033
    39  C    0.000002   0.000000  -0.000002   0.000000   0.000000   0.000000
    40  H    0.000012   0.000000   0.000000  -0.000001   0.000000   0.000003
    41  H   -0.000115  -0.000001   0.000000   0.000000   0.000002  -0.000050
    42  H    0.000077  -0.000002   0.000010  -0.000006  -0.000003  -0.000002
    43  H    0.000000   0.000000   0.000000   0.000000   0.000000   0.000000
    44  H    0.000000   0.000000   0.000000   0.000000   0.000000   0.000000
              25         26         27         28         29         30
     1  C   -0.000094   0.000003  -0.000004  -0.000002  -0.000445   0.013304
     2  C   -0.001345   0.000139   0.000076   0.000029  -0.019521  -0.071616
     3  C    0.001868  -0.000277   0.000931   0.000022  -0.033238   0.020494
     4  C    0.000071   0.000123  -0.000670  -0.000018   0.000147   0.000969
     5  C   -0.000011  -0.000014  -0.000006  -0.000014  -0.000088  -0.000133
     6  H    0.000000   0.000000   0.000000   0.000000   0.001948  -0.000450
     7  H   -0.000246  -0.000012   0.000004   0.000002   0.006560  -0.004005
     8  H   -0.000004   0.000002   0.000548   0.000034   0.000008  -0.000051
     9  H   -0.000001  -0.000002  -0.000001   0.000000  -0.000081  -0.000011
    10  O    0.000000   0.000000   0.000000   0.000000  -0.000022  -0.000236
    11  O    0.000000   0.000000  -0.000009   0.000000   0.000000   0.000002
    12  C   -0.000001   0.000000   0.000000   0.000000  -0.008144  -0.000702
    13  C    0.000005   0.000000   0.000000   0.000000   0.001147  -0.000110
    14  C   -0.000110  -0.000037  -0.000003  -0.000003   0.415458   0.431534
    15  O   -0.000461   0.000634   0.001035   0.001199   0.000778   0.004517
    16  Si  -0.038183  -0.030852  -0.032786  -0.041994   0.000052  -0.000154
    17  C    0.001355   0.388120   0.389508   0.393249  -0.000001   0.000077
    18  C    0.003487   0.003470   0.001007   0.002149   0.000005   0.000248
    19  C    0.393467   0.000191   0.003415   0.003124  -0.000097  -0.001049
    20  H   -0.000124  -0.000121   0.000215   0.000396   0.000000  -0.000004
    21  H   -0.000083  -0.000189   0.000688   0.000220   0.000000  -0.000002
    22  H   -0.000183  -0.000093  -0.000131  -0.000178  -0.000006  -0.000027
    23  H   -0.015978   0.000275  -0.000160   0.000008   0.000002   0.000170
    24  H   -0.019807  -0.000152  -0.000104  -0.000148   0.000079  -0.001152
    25  H    0.510421   0.000894  -0.000182   0.000320   0.000021   0.000121
    26  H    0.000894   0.517233  -0.018682  -0.018586   0.000000   0.000029
    27  H   -0.000182  -0.018682   0.515828  -0.018335   0.000000  -0.000001
    28  H    0.000320  -0.018586  -0.018335   0.523716   0.000000  -0.000006
    29  H    0.000021   0.000000   0.000000   0.000000   0.488985  -0.021763
    30  H    0.000121   0.000029  -0.000001  -0.000006  -0.021763   0.481858
    31  H    0.000024   0.000000   0.000000   0.000000  -0.021461  -0.019693
    32  H    0.000000   0.000000   0.000000   0.000000  -0.000260   0.000626
    33  H    0.000000   0.000000   0.000000   0.000000  -0.000101   0.000022
    34  H   -0.000003   0.000000   0.000000   0.000000  -0.000030  -0.000009
    35  H    0.000000   0.000000   0.000000   0.000000  -0.000029   0.000017
    36  H    0.000000   0.000000   0.000000   0.000000  -0.000016  -0.000003
    37  C   -0.000029   0.000175   0.000006  -0.000035   0.011406  -0.016635
    38  C    0.000012  -0.000041   0.000065   0.000003   0.000148  -0.000160
    39  C    0.000001   0.000009  -0.000005   0.000001   0.000013   0.000020
    40  H   -0.000003   0.000002   0.000000   0.000000   0.000007   0.000844
    41  H    0.000095   0.000009  -0.000005   0.000002  -0.007750  -0.000550
    42  H   -0.000003   0.000177   0.000119   0.000047   0.000000  -0.000001
    43  H    0.000000   0.000000   0.000000   0.000000   0.000001   0.000000
    44  H    0.000000   0.000000   0.000000   0.000000   0.000005  -0.000002
              31         32         33         34         35         36
     1  C   -0.025907  -0.021470  -0.062801  -0.032089   0.011672   0.012501
     2  C   -0.032202  -0.026140   0.018892   0.032476  -0.011223  -0.001731
     3  C    0.011526  -0.001278  -0.000572   0.000993  -0.000552  -0.000003
     4  C   -0.000703   0.000390   0.000776   0.000275   0.000742   0.000014
     5  C    0.000031  -0.000077  -0.000216   0.000096  -0.000490   0.000040
     6  H    0.000035  -0.001386  -0.007727  -0.000599   0.000287  -0.000165
     7  H   -0.010030   0.002494  -0.001089  -0.012303   0.002742   0.000467
     8  H    0.000012  -0.000011  -0.000008  -0.000002  -0.000014   0.000000
     9  H    0.000022  -0.000008   0.000000   0.000002  -0.000006   0.000000
    10  O    0.000121   0.003501   0.002415   0.000724   0.005232   0.000115
    11  O    0.000000   0.000012  -0.000002   0.000009   0.000269   0.000002
    12  C    0.014202   0.421791   0.437303  -0.031653  -0.050750  -0.044536
    13  C   -0.003764  -0.042458  -0.038405   0.407565   0.415650   0.416623
    14  C    0.422541   0.002424  -0.001439  -0.005757   0.000986   0.000708
    15  O   -0.000145   0.000000   0.000008   0.000022   0.000004   0.000000
    16  Si   0.000150  -0.000044   0.000009   0.000114  -0.000161  -0.000006
    17  C    0.000000   0.000000   0.000000   0.000002   0.000000   0.000000
    18  C   -0.000026   0.000000   0.000001  -0.000013   0.000116  -0.000002
    19  C   -0.000125   0.000004   0.000001   0.000065   0.000027  -0.000002
    20  H    0.000000   0.000000   0.000000  -0.000001   0.000001   0.000000
    21  H    0.000001   0.000000   0.000000   0.000000  -0.000013   0.000000
    22  H    0.000015  -0.000005  -0.000001   0.000078   0.000029   0.000002
    23  H   -0.000020   0.000000   0.000000   0.000002  -0.000001   0.000000
    24  H    0.000082  -0.000006   0.000001   0.000406  -0.000001  -0.000005
    25  H    0.000024   0.000000   0.000000  -0.000003   0.000000   0.000000
    26  H    0.000000   0.000000   0.000000   0.000000   0.000000   0.000000
    27  H    0.000000   0.000000   0.000000   0.000000   0.000000   0.000000
    28  H    0.000000   0.000000   0.000000   0.000000   0.000000   0.000000
    29  H   -0.021461  -0.000260  -0.000101  -0.000030  -0.000029  -0.000016
    30  H   -0.019693   0.000626   0.000022  -0.000009   0.000017  -0.000003
    31  H    0.496402  -0.008453   0.000390   0.002216  -0.000016  -0.000011
    32  H   -0.008453   0.516446  -0.016489  -0.002097   0.005977  -0.004077
    33  H    0.000390  -0.016489   0.509968   0.005480  -0.002154  -0.004789
    34  H    0.002216  -0.002097   0.005480   0.538956  -0.027034  -0.021621
    35  H   -0.000016   0.005977  -0.002154  -0.027034   0.505823  -0.021318
    36  H   -0.000011  -0.004077  -0.004789  -0.021621  -0.021318   0.510611
    37  C   -0.000173   0.000032  -0.000065  -0.000085   0.000003   0.000003
    38  C    0.000054  -0.000004  -0.000001   0.000004   0.000000   0.000000
    39  C    0.000001  -0.000001   0.000000   0.000000   0.000000   0.000000
    40  H   -0.000090   0.000070  -0.000015  -0.000007   0.000002   0.000000
    41  H    0.000747  -0.000019   0.000003   0.000003   0.000000   0.000000
    42  H    0.000002   0.000000   0.000000   0.000000   0.000000   0.000000
    43  H    0.000000   0.000000   0.000000   0.000000   0.000000   0.000000
    44  H    0.000001   0.000000   0.000000   0.000000   0.000000   0.000000
              37         38         39         40         41         42
     1  C   -0.013040  -0.001728  -0.000071  -0.000750   0.002239  -0.000042
     2  C   -0.017565   0.015882  -0.000081   0.007269  -0.022936   0.000808
     3  C    0.145100  -0.033721  -0.005377  -0.042644  -0.044283   0.004321
     4  C   -0.018626  -0.028380  -0.001658  -0.009508   0.005507  -0.004586
     5  C    0.002505  -0.001195   0.000133   0.000003  -0.000012   0.000054
     6  H    0.000453  -0.000120   0.000065   0.001133  -0.000122   0.000001
     7  H    0.012119  -0.000560  -0.000011   0.000386  -0.000774   0.000035
     8  H   -0.005883   0.000431   0.000435   0.000237  -0.000023   0.000699
     9  H   -0.004541   0.002598   0.000431  -0.002413   0.000769   0.000629
    10  O    0.000472  -0.000269  -0.000004  -0.000151  -0.000030   0.000007
    11  O   -0.000052  -0.000206  -0.000002   0.000014   0.000008   0.000016
    12  C    0.000290   0.000062   0.000015   0.000593   0.000090   0.000006
    13  C    0.000033   0.000004   0.000000  -0.000002  -0.000015   0.000000
    14  C    0.001975  -0.001620  -0.000270  -0.008155   0.002515  -0.000147
    15  O   -0.088552   0.004576   0.002128   0.004880  -0.000532   0.007788
    16  Si   0.006788  -0.001370  -0.000097  -0.000176  -0.000770  -0.001001
    17  C    0.000423   0.000010  -0.000041   0.000001  -0.000018  -0.000846
    18  C   -0.000452   0.000165   0.000034   0.000049   0.000109   0.000149
    19  C   -0.000513   0.000173   0.000002   0.000012  -0.000115   0.000077
    20  H    0.000011  -0.000004   0.000000   0.000000  -0.000001  -0.000002
    21  H   -0.000082  -0.000004  -0.000002   0.000000   0.000000   0.000010
    22  H   -0.000143  -0.000022   0.000000  -0.000001   0.000000  -0.000006
    23  H   -0.000008  -0.000002   0.000000   0.000000   0.000002  -0.000003
    24  H    0.000338  -0.000033   0.000000   0.000003  -0.000050  -0.000002
    25  H   -0.000029   0.000012   0.000001  -0.000003   0.000095  -0.000003
    26  H    0.000175  -0.000041   0.000009   0.000002   0.000009   0.000177
    27  H    0.000006   0.000065  -0.000005   0.000000  -0.000005   0.000119
    28  H   -0.000035   0.000003   0.000001   0.000000   0.000002   0.000047
    29  H    0.011406   0.000148   0.000013   0.000007  -0.007750   0.000000
    30  H   -0.016635  -0.000160   0.000020   0.000844  -0.000550  -0.000001
    31  H   -0.000173   0.000054   0.000001  -0.000090   0.000747   0.000002
    32  H    0.000032  -0.000004  -0.000001   0.000070  -0.000019   0.000000
    33  H   -0.000065  -0.000001   0.000000  -0.000015   0.000003   0.000000
    34  H   -0.000085   0.000004   0.000000  -0.000007   0.000003   0.000000
    35  H    0.000003   0.000000   0.000000   0.000002   0.000000   0.000000
    36  H    0.000003   0.000000   0.000000   0.000000   0.000000   0.000000
    37  C    5.318334   0.248938  -0.047265   0.428823   0.441525  -0.044026
    38  C    0.248938   5.174656   0.535191  -0.044051  -0.033887   0.410688
    39  C   -0.047265   0.535191   5.008850   0.003218  -0.003943  -0.026366
    40  H    0.428823  -0.044051   0.003218   0.491554  -0.016312   0.003664
    41  H    0.441525  -0.033887  -0.003943  -0.016312   0.496533   0.000516
    42  H   -0.044026   0.410688  -0.026366   0.003664   0.000516   0.487210
    43  H    0.006860  -0.053587   0.427654   0.000248  -0.000313  -0.005848
    44  H    0.005079  -0.064116   0.429598  -0.000287   0.000673   0.004060
              43         44
     1  C    0.000000  -0.000019
     2  C    0.000022   0.000074
     3  C   -0.000194  -0.001453
     4  C   -0.000026  -0.000145
     5  C   -0.000002  -0.000024
     6  H   -0.000002   0.000068
     7  H    0.000000   0.000001
     8  H    0.000011   0.000049
     9  H    0.000016   0.000025
    10  O    0.000000   0.000001
    11  O    0.000000   0.000001
    12  C    0.000000   0.000004
    13  C    0.000000   0.000000
    14  C    0.000002  -0.000001
    15  O    0.000003  -0.000014
    16  Si   0.000005  -0.000006
    17  C    0.000003  -0.000001
    18  C    0.000000   0.000000
    19  C    0.000000   0.000000
    20  H    0.000000   0.000000
    21  H    0.000000   0.000000
    22  H    0.000000   0.000000
    23  H    0.000000   0.000000
    24  H    0.000000   0.000000
    25  H    0.000000   0.000000
    26  H    0.000000   0.000000
    27  H    0.000000   0.000000
    28  H    0.000000   0.000000
    29  H    0.000001   0.000005
    30  H    0.000000  -0.000002
    31  H    0.000000   0.000001
    32  H    0.000000   0.000000
    33  H    0.000000   0.000000
    34  H    0.000000   0.000000
    35  H    0.000000   0.000000
    36  H    0.000000   0.000000
    37  C    0.006860   0.005079
    38  C   -0.053587  -0.064116
    39  C    0.427654   0.429598
    40  H    0.000248  -0.000287
    41  H   -0.000313   0.000673
    42  H   -0.005848   0.004060
    43  H    0.501180  -0.023288
    44  H   -0.023288   0.508712
 Mulliken charges:
               1
     1  C    0.052181
     2  C   -0.271897
     3  C    0.244346
     4  C   -0.424731
     5  C    0.321712
     6  H    0.178001
     7  H    0.204752
     8  H    0.206199
     9  H    0.214665
    10  O   -0.236573
    11  O   -0.365216
    12  C   -0.303480
    13  C   -0.461600
    14  C   -0.518387
    15  O   -0.384037
    16  Si   0.473875
    17  C   -0.579610
    18  C   -0.584955
    19  C   -0.572389
    20  H    0.171847
    21  H    0.175215
    22  H    0.171032
    23  H    0.165861
    24  H    0.160354
    25  H    0.164689
    26  H    0.157573
    27  H    0.157637
    28  H    0.154799
    29  H    0.186283
    30  H    0.183672
    31  H    0.174243
    32  H    0.170517
    33  H    0.160604
    34  H    0.143813
    35  H    0.164182
    36  H    0.157198
    37  C   -0.373921
    38  C   -0.128579
    39  C   -0.322604
    40  H    0.181555
    41  H    0.181116
    42  H    0.161797
    43  H    0.147258
    44  H    0.141004
 Sum of Mulliken charges =   0.00000
 Mulliken charges with hydrogens summed into heavy atoms:
               1
     1  C    0.230182
     2  C   -0.067145
     3  C    0.244346
     4  C   -0.003867
     5  C    0.321712
    10  O   -0.236573
    11  O   -0.365216
    12  C    0.027640
    13  C    0.003593
    14  C    0.025811
    15  O   -0.384037
    16  Si   0.473875
    17  C   -0.109601
    18  C   -0.066860
    19  C   -0.081486
    37  C   -0.011250
    38  C    0.033217
    39  C   -0.034341
 Electronic spatial extent (au):  <R**2>=           5169.0916
 Charge=              0.0000 electrons
 Dipole moment (field-independent basis, Debye):
    X=             -0.2790    Y=              0.8926    Z=             -5.2176  Tot=              5.3008
 Quadrupole moment (field-independent basis, Debye-Ang):
   XX=           -116.0254   YY=           -114.3072   ZZ=           -136.0468
   XY=             -5.0144   XZ=             10.7342   YZ=              3.5175
 Traceless Quadrupole moment (field-independent basis, Debye-Ang):
   XX=              6.1011   YY=              7.8192   ZZ=            -13.9203
   XY=             -5.0144   XZ=             10.7342   YZ=              3.5175
 Octapole moment (field-independent basis, Debye-Ang**2):
  XXX=            -24.6937  YYY=              6.4910  ZZZ=            -50.9214  XYY=             -2.8921
  XXY=             -3.5205  XXZ=            -11.6772  XZZ=             16.1485  YZZ=              4.5370
  YYZ=             13.9447  XYZ=             -1.3611
 Hexadecapole moment (field-independent basis, Debye-Ang**3):
 XXXX=          -3175.8743 YYYY=          -2424.0651 ZZZZ=          -1578.6725 XXXY=              3.6622
 XXXZ=             24.2087 YYYX=            -35.4611 YYYZ=             31.2880 ZZZX=             52.1539
 ZZZY=             14.7610 XXYY=           -907.6302 XXZZ=           -785.6514 YYZZ=           -677.8655
 XXYZ=             16.3548 YYXZ=             22.8784 ZZXY=            -10.8894
 N-N= 1.643324635599D+03 E-N=-5.779923441673D+03  KE= 1.059306509894D+03
 1\1\GINC-CPU-E-31\SP\RM062X\def2TZVP\C14H26O3Si1\KE291\26-Jun-2019\0\\
 # m062x/def2tzvp int=ultrafine scrf=(solvent=chloroform)\\IP1_1ginp014
 \\0,1\C,0,-2.30728,0.317972,-0.17033\C,0,-0.972818,-0.051215,-0.841834
 \C,0,0.180261,0.823128,-0.251662\C,0,-0.124499,1.157304,1.241845\C,0,-
 1.12696,0.27377,1.946268\H,0,-2.468149,1.403391,-0.229202\H,0,-0.76484
 2,-1.079699,-0.5221\H,0,0.79837,1.165096,1.820792\H,0,-0.535861,2.1731
 55,1.300635\O,0,-2.235519,-0.047242,1.241085\O,0,-1.025131,-0.101711,3
 .095476\C,0,-3.561139,-0.378594,-0.70548\C,0,-3.54169,-1.908892,-0.628
 687\C,0,-1.037977,-0.040781,-2.37462\O,0,1.433099,0.153285,-0.362321\S
 i,0,2.056303,-1.377372,-0.040854\C,0,3.894877,-1.069957,0.212727\C,0,1
 .305973,-2.174083,1.495617\C,0,1.807524,-2.511608,-1.528899\H,0,1.8683
 06,-3.084608,1.735137\H,0,1.347486,-1.517278,2.369548\H,0,0.261012,-2.
 467935,1.35356\H,0,2.331184,-3.461658,-1.369956\H,0,0.75292,-2.744975,
 -1.708723\H,0,2.211748,-2.059358,-2.440884\H,0,4.333782,-0.571236,-0.6
 57799\H,0,4.07469,-0.436861,1.087868\H,0,4.432034,-2.01288,0.364159\H,
 0,-1.413077,0.909115,-2.767372\H,0,-0.045495,-0.213708,-2.798738\H,0,-
 1.694806,-0.832912,-2.741702\H,0,-3.720425,-0.047159,-1.73721\H,0,-4.4
 10519,0.002413,-0.127235\H,0,-2.753967,-2.34537,-1.251005\H,0,-3.38450
 7,-2.245265,0.399498\H,0,-4.496121,-2.316321,-0.974925\C,0,0.361302,2.
 152383,-1.03403\C,0,1.387975,3.076544,-0.439337\C,0,1.157682,4.341974,
 -0.085297\H,0,-0.6027,2.670105,-1.105778\H,0,0.669487,1.889642,-2.0518
 43\H,0,2.383212,2.654823,-0.310958\H,0,1.941715,4.971132,0.325993\H,0,
 0.177317,4.799232,-0.201413\\Version=ES64L-G09RevD.01\State=1-A\HF=-10
 64.3406382\RMSD=1.176e-09\Dipole=-0.1097524,0.3511776,-2.052778\Quadru
 pole=4.5359886,5.8134208,-10.3494094,-3.7280517,7.9806303,2.6151476\PG
 =C01 [X(C14H26O3Si1)]\\@


 HE THAT FOLLOWS NATURE IS NEVER LOST.

                             -- BACON
 Job cpu time:       0 days  2 hours 26 minutes 54.4 seconds.
 File lengths (MBytes):  RWF=    404 Int=      0 D2E=      0 Chk=     21 Scr=      1
 Normal termination of Gaussian 09 at Wed Jun 26 13:55:53 2019.
