 Entering Gaussian System, Link 0=/usr/local/Cluster-Apps/gaussian/g09/g09
 Initial command:
 /usr/local/Cluster-Apps/gaussian/g09/l1.exe "/home/ke291/rds/hpc-work/26Jun1304IP1NMR/Gau-330922.inp" -scrdir="/home/ke291/rds/hpc-work/26Jun1304IP1NMR/"
 Entering Link 1 = /usr/local/Cluster-Apps/gaussian/g09/l1.exe PID=    330932.
  
 Copyright (c) 1988,1990,1992,1993,1995,1998,2003,2009,2013,
            Gaussian, Inc.  All Rights Reserved.
  
 This is part of the Gaussian(R) 09 program.  It is based on
 the Gaussian(R) 03 system (copyright 2003, Gaussian, Inc.),
 the Gaussian(R) 98 system (copyright 1998, Gaussian, Inc.),
 the Gaussian(R) 94 system (copyright 1995, Gaussian, Inc.),
 the Gaussian 92(TM) system (copyright 1992, Gaussian, Inc.),
 the Gaussian 90(TM) system (copyright 1990, Gaussian, Inc.),
 the Gaussian 88(TM) system (copyright 1988, Gaussian, Inc.),
 the Gaussian 86(TM) system (copyright 1986, Carnegie Mellon
 University), and the Gaussian 82(TM) system (copyright 1983,
 Carnegie Mellon University). Gaussian is a federally registered
 trademark of Gaussian, Inc.
  
 This software contains proprietary and confidential information,
 including trade secrets, belonging to Gaussian, Inc.
  
 This software is provided under written license and may be
 used, copied, transmitted, or stored only in accord with that
 written license.
  
 The following legend is applicable only to US Government
 contracts under FAR:
  
                    RESTRICTED RIGHTS LEGEND
  
 Use, reproduction and disclosure by the US Government is
 subject to restrictions as set forth in subparagraphs (a)
 and (c) of the Commercial Computer Software - Restricted
 Rights clause in FAR 52.227-19.
  
 Gaussian, Inc.
 340 Quinnipiac St., Bldg. 40, Wallingford CT 06492
  
  
 ---------------------------------------------------------------
 Warning -- This program may not be used in any manner that
 competes with the business of Gaussian, Inc. or will provide
 assistance to any competitor of Gaussian, Inc.  The licensee
 of this program is prohibited from giving any competitor of
 Gaussian, Inc. access to this program.  By using this program,
 the user acknowledges that Gaussian, Inc. is engaged in the
 business of creating and licensing software in the field of
 computational chemistry and represents and warrants to the
 licensee that it is not a competitor of Gaussian, Inc. and that
 it will not use this program in any manner prohibited above.
 ---------------------------------------------------------------
  

 Cite this work as:
 Gaussian 09, Revision D.01,
 M. J. Frisch, G. W. Trucks, H. B. Schlegel, G. E. Scuseria, 
 M. A. Robb, J. R. Cheeseman, G. Scalmani, V. Barone, B. Mennucci, 
 G. A. Petersson, H. Nakatsuji, M. Caricato, X. Li, H. P. Hratchian, 
 A. F. Izmaylov, J. Bloino, G. Zheng, J. L. Sonnenberg, M. Hada, 
 M. Ehara, K. Toyota, R. Fukuda, J. Hasegawa, M. Ishida, T. Nakajima, 
 Y. Honda, O. Kitao, H. Nakai, T. Vreven, J. A. Montgomery, Jr., 
 J. E. Peralta, F. Ogliaro, M. Bearpark, J. J. Heyd, E. Brothers, 
 K. N. Kudin, V. N. Staroverov, T. Keith, R. Kobayashi, J. Normand, 
 K. Raghavachari, A. Rendell, J. C. Burant, S. S. Iyengar, J. Tomasi, 
 M. Cossi, N. Rega, J. M. Millam, M. Klene, J. E. Knox, J. B. Cross, 
 V. Bakken, C. Adamo, J. Jaramillo, R. Gomperts, R. E. Stratmann, 
 O. Yazyev, A. J. Austin, R. Cammi, C. Pomelli, J. W. Ochterski, 
 R. L. Martin, K. Morokuma, V. G. Zakrzewski, G. A. Voth, 
 P. Salvador, J. J. Dannenberg, S. Dapprich, A. D. Daniels, 
 O. Farkas, J. B. Foresman, J. V. Ortiz, J. Cioslowski, 
 and D. J. Fox, Gaussian, Inc., Wallingford CT, 2013.
 
 ******************************************
 Gaussian 09:  ES64L-G09RevD.01 24-Apr-2013
                26-Jun-2019 
 ******************************************
 %nprocshared=4
 Will use up to    4 processors via shared memory.
 %mem=6000MB
 %chk=IP1_2ginp018.chk
 --------------------------------------------------------
 # m062x/def2tzvp int=ultrafine scrf=(solvent=chloroform)
 --------------------------------------------------------
 1/38=1/1;
 2/12=2,17=6,18=5,40=1/2;
 3/5=44,7=101,11=2,16=1,25=1,30=1,70=2201,72=7,74=-55,75=-5/1,2,3;
 4//1;
 5/5=2,38=5,53=7/2;
 6/7=2,8=2,9=2,10=2,28=1/1;
 99/5=1,9=1/99;
 ------------
 IP1_2ginp018
 ------------
 Symbolic Z-matrix:
 Charge =  0 Multiplicity = 1
 C                    -2.314    -0.5524   -0.3691 
 C                    -0.84083  -0.93503  -0.59067 
 C                     0.09799   0.29015  -0.39847 
 C                    -0.13055   0.81149   1.02709 
 C                    -1.58154   1.07104   1.38154 
 H                    -2.67479   0.00014  -1.24635 
 H                    -0.55827  -1.64862   0.19516 
 H                     0.22398   0.06659   1.74981 
 H                     0.41954   1.73537   1.2134 
 O                    -2.53692   0.35088   0.75949 
 O                    -1.91413   1.85936   2.24174 
 C                    -3.23386  -1.75165  -0.12658 
 C                    -4.71389  -1.3782    0.00013 
 C                    -0.65999  -1.63091  -1.94879 
 O                     1.44972  -0.11427  -0.59711 
 Si                    2.67656  -0.78673   0.33852 
 C                     3.98353  -1.25952  -0.92886 
 C                     3.37974   0.47971   1.54711 
 C                     2.10962  -2.32531   1.27658 
 H                     4.27092   0.07413   2.04035 
 H                     3.67727   1.39594   1.02614 
 H                     2.66777   0.75639   2.33091 
 H                     2.96562  -2.77175   1.7964 
 H                     1.34874  -2.11105   2.03438 
 H                     1.70515  -3.08322   0.59739 
 H                     4.86388  -1.69094  -0.43948 
 H                     3.59747  -1.99971  -1.63739 
 H                     4.3138   -0.38707  -1.50212 
 H                     0.40331  -1.7403   -2.17091 
 H                    -1.10754  -2.62771  -1.94621 
 H                    -1.12084  -1.06314  -2.7637 
 H                    -2.89367  -2.26762   0.78008 
 H                    -3.1051   -2.45357  -0.95711 
 H                    -4.87896  -0.69684   0.8382 
 H                    -5.07597  -0.8873   -0.91021 
 H                    -5.32356  -2.27225   0.16162 
 C                    -0.17213   1.40784  -1.44244 
 C                     0.73893   2.59817  -1.31339 
 C                     0.33034   3.85014  -1.10035 
 H                    -1.21443   1.73829  -1.37204 
 H                    -0.0388    0.96342  -2.43601 
 H                     1.80243   2.39104  -1.41523 
 H                     1.03374   4.67474  -1.02925 
 H                    -0.72326   4.09843  -0.99287 
 
                          Input orientation:                          
 ---------------------------------------------------------------------
 Center     Atomic      Atomic             Coordinates (Angstroms)
 Number     Number       Type             X           Y           Z
 ---------------------------------------------------------------------
      1          6           0       -2.313998   -0.552404   -0.369095
      2          6           0       -0.840825   -0.935031   -0.590670
      3          6           0        0.097988    0.290148   -0.398469
      4          6           0       -0.130545    0.811491    1.027090
      5          6           0       -1.581536    1.071038    1.381537
      6          1           0       -2.674791    0.000141   -1.246345
      7          1           0       -0.558266   -1.648618    0.195155
      8          1           0        0.223982    0.066591    1.749808
      9          1           0        0.419544    1.735372    1.213401
     10          8           0       -2.536917    0.350884    0.759485
     11          8           0       -1.914128    1.859363    2.241741
     12          6           0       -3.233860   -1.751649   -0.126581
     13          6           0       -4.713886   -1.378203    0.000131
     14          6           0       -0.659989   -1.630908   -1.948787
     15          8           0        1.449724   -0.114270   -0.597113
     16         14           0        2.676561   -0.786732    0.338523
     17          6           0        3.983534   -1.259518   -0.928856
     18          6           0        3.379736    0.479713    1.547107
     19          6           0        2.109621   -2.325308    1.276576
     20          1           0        4.270915    0.074127    2.040350
     21          1           0        3.677269    1.395936    1.026144
     22          1           0        2.667770    0.756392    2.330905
     23          1           0        2.965619   -2.771753    1.796404
     24          1           0        1.348739   -2.111051    2.034382
     25          1           0        1.705147   -3.083219    0.597392
     26          1           0        4.863876   -1.690941   -0.439484
     27          1           0        3.597467   -1.999709   -1.637392
     28          1           0        4.313800   -0.387066   -1.502116
     29          1           0        0.403314   -1.740304   -2.170908
     30          1           0       -1.107538   -2.627709   -1.946213
     31          1           0       -1.120843   -1.063138   -2.763695
     32          1           0       -2.893670   -2.267616    0.780083
     33          1           0       -3.105097   -2.453570   -0.957106
     34          1           0       -4.878964   -0.696844    0.838202
     35          1           0       -5.075972   -0.887300   -0.910205
     36          1           0       -5.323560   -2.272247    0.161621
     37          6           0       -0.172125    1.407835   -1.442443
     38          6           0        0.738933    2.598166   -1.313391
     39          6           0        0.330335    3.850138   -1.100351
     40          1           0       -1.214432    1.738291   -1.372042
     41          1           0       -0.038804    0.963423   -2.436008
     42          1           0        1.802427    2.391036   -1.415229
     43          1           0        1.033738    4.674742   -1.029252
     44          1           0       -0.723259    4.098427   -0.992872
 ---------------------------------------------------------------------
                    Distance matrix (angstroms):
                    1          2          3          4          5
     1  C    0.000000
     2  C    1.538095   0.000000
     3  C    2.555080   1.555434   0.000000
     4  C    2.928653   2.484348   1.535006   0.000000
     5  C    2.497354   2.909049   2.568854   1.516038   0.000000
     6  H    1.097745   2.160529   2.913984   3.507133   3.041018
     7  H    2.145381   1.098438   2.131167   2.631957   3.138648
     8  H    3.363666   2.759510   2.163549   1.096762   2.098674
     9  H    3.900060   3.460384   2.188652   1.091268   2.115167
    10  O    1.462640   2.520560   2.878762   2.464629   1.348452
    11  O    3.576728   4.121064   3.671751   2.398871   1.213270
    12  C    1.530734   2.570770   3.917151   4.187028   3.601688
    13  C    2.564709   3.942848   5.108464   5.182318   4.209356
    14  C    2.528704   1.536694   2.582338   3.886061   4.386436
    15  O    3.795992   2.433168   1.424852   2.447921   3.809009
    16  Si   5.045920   3.641071   2.889960   3.302769   4.761363
    17  C    6.361781   4.847071   4.216663   5.004043   6.460605
    18  C    6.095548   4.938089   3.819826   3.564066   4.999130
    19  C    5.041808   3.758272   3.700413   3.862654   5.017053
    20  H    7.039819   5.836999   4.838163   4.576380   5.973194
    21  H    6.452751   5.334854   4.007935   3.852405   5.280804
    22  H    5.815579   4.868958   3.777651   3.087643   4.365421
    23  H    6.122847   4.853935   4.734555   4.797678   5.967895
    24  H    4.649917   3.614984   3.639904   3.426977   4.374747
    25  H    4.846922   3.536690   3.867080   4.327028   5.354906
    26  H    7.267950   5.756550   5.161403   5.775573   7.244859
    27  H    6.216807   4.682692   4.361735   5.375908   6.735391
    28  H    6.725978   5.263189   4.410184   5.252202   6.722835
    29  H    3.470075   2.166448   2.712471   4.125997   4.946023
    30  H    2.872236   2.184901   3.516062   4.650069   4.997932
    31  H    2.723707   2.194734   2.985168   4.343383   4.685071
    32  H    2.144430   2.805159   4.108669   4.144487   3.637314
    33  H    2.141501   2.750848   4.254388   4.842067   4.495926
    34  H    2.838570   4.290102   5.222409   4.985803   3.780695
    35  H    2.834335   4.247452   5.330865   5.576401   4.615003
    36  H    3.506705   4.738038   6.022686   6.101302   5.164155
    37  C    3.095518   2.581027   1.553083   2.540856   3.174072
    38  C    4.487558   3.937187   2.564145   3.070187   3.870314
    39  C    5.187447   4.952700   3.635953   3.737886   4.187889
    40  H    2.731709   2.810120   2.183440   2.790986   2.856955
    41  H    3.427298   2.766340   2.150250   3.467643   4.118890
    42  H    5.167513   4.327748   2.890094   3.492315   4.584267
    43  H    6.242291   5.930927   4.527492   4.528665   5.063422
    44  H    4.954773   5.050870   3.940907   3.903268   3.942023
                    6          7          8          9         10
     6  H    0.000000
     7  H    3.045654   0.000000
     8  H    4.169440   2.443522   0.000000
     9  H    4.316976   3.666650   1.763748   0.000000
    10  O    2.040927   2.869065   2.946884   3.295984   0.000000
    11  O    4.025178   4.281683   2.833292   2.553210   2.204645
    12  C    2.152951   2.696838   4.333994   5.225153   2.385684
    13  C    2.758884   4.168973   5.434275   6.125233   2.881936
    14  C    2.685735   2.146427   4.164434   4.743065   3.845139
    15  O    4.176867   2.648384   2.653901   2.785751   4.236748
    16  Si   5.636306   3.350747   2.955508   3.495790   5.352731
    17  C    6.783866   4.694970   4.802920   5.124515   6.925328
    18  C    6.685107   4.676048   3.189129   3.232766   5.970237
    19  C    5.887567   2.957195   3.082331   4.398804   5.386994
    20  H    7.684443   5.449182   4.057356   4.275118   6.932805
    21  H    6.889203   5.282008   3.770416   3.280709   6.307087
    22  H    6.473916   4.555525   2.604918   2.694761   5.451840
    23  H    6.982546   4.030285   3.946510   5.209277   6.411237
    24  H    5.604382   2.689474   2.467425   4.041334   4.773344
    25  H    5.664833   2.709781   3.666499   5.025043   5.460260
    26  H    7.768030   5.459321   5.423148   5.850106   7.770348
    27  H    6.594963   4.555394   5.207986   5.672481   6.992923
    28  H    7.003981   5.311240   5.244752   5.200385   7.252016
    29  H    3.654955   2.555640   4.320769   4.851199   4.648143
    30  H    3.138741   2.417804   4.763693   5.599251   4.270356
    31  H    2.418195   3.068236   4.843196   5.101151   4.051854
    32  H    3.049105   2.485842   4.013557   5.214313   2.642771
    33  H    2.507892   2.908952   4.976079   5.889094   3.336836
    34  H    3.112797   4.470773   5.239648   5.842143   2.566927
    35  H    2.581901   4.712865   6.006254   6.448938   3.281427
    36  H    3.763256   4.806045   6.226373   7.081701   3.873453
    37  C    2.878089   3.488945   3.485155   2.740595   3.399687
    38  C    4.290424   4.689735   4.007148   2.689071   4.480880
    39  C    4.886161   5.718764   4.738137   3.135864   4.891309
    40  H    2.273678   3.789170   3.822246   3.058497   2.866578
    41  H    3.048219   3.743744   4.288872   3.758214   4.102066
    42  H    5.078423   4.948233   4.232256   3.041703   5.265122
    43  H    5.970947   6.634646   5.441869   3.747882   5.885992
    44  H    4.546281   5.870874   4.967420   3.428946   4.517100
                   11         12         13         14         15
    11  O    0.000000
    12  C    4.515534   0.000000
    13  C    4.831697   1.531664   0.000000
    14  C    5.596015   3.155919   4.505133   0.000000
    15  O    4.823880   4.983811   6.320152   2.928840   0.000000
    16  Si   5.630141   6.006702   7.421796   4.132431   1.683077
    17  C    7.386645   7.278504   8.747698   4.768700   2.800328
    18  C    5.514612   7.177734   8.446994   5.744160   2.945410
    19  C    5.885029   5.554343   7.006181   4.307656   2.972350
    20  H    6.440682   8.021889   9.327294   6.567661   3.866629
    21  H    5.740746   7.681131   8.897192   6.068262   3.142872
    22  H    4.713628   6.867222   8.029810   5.923592   3.288613
    23  H    6.742217   6.570542   8.008956   5.336011   3.884466
    24  H    5.143295   5.079286   6.436666   4.486776   3.304860
    25  H    6.342882   5.166334   6.668417   3.766444   3.210411
    26  H    8.107710   8.104007   9.592945   5.726664   3.763930
    27  H    7.766453   7.000794   8.493900   4.284730   3.041358
    28  H    7.605918   7.792391   9.205336   5.146381   3.016020
    29  H    6.148139   4.172342   5.570481   1.091750   2.493149
    30  H    6.190587   2.932539   4.284305   1.092666   3.831062
    31  H    5.850188   3.448660   4.544002   1.094908   3.493171
    32  H    4.486413   1.097265   2.170845   3.583498   5.039706
    33  H    5.500220   1.095009   2.158916   2.763830   5.133061
    34  H    4.158650   2.179401   1.092641   5.141939   6.515506
    35  H    5.241772   2.180491   1.095812   4.597011   6.578777
    36  H    5.746419   2.172770   1.094119   5.158879   7.149120
    37  C    4.100203   4.592173   5.520020   3.119031   2.379450
    38  C    4.497057   6.009367   6.875324   4.499531   2.894061
    39  C    4.491144   6.710569   7.347842   5.634044   4.150037
    40  H    3.682888   4.220064   4.882783   3.462881   3.336199
    41  H    5.118680   4.786800   5.768395   2.711791   2.599745
    42  H    5.241077   6.647303   7.659813   4.745968   2.658998
    43  H    5.226439   7.766963   8.410289   6.593594   4.826430
    44  H    4.110267   6.424715   6.848696   5.808877   4.756606
                   16         17         18         19         20
    16  Si   0.000000
    17  C    1.880945   0.000000
    18  C    1.886535   3.085432   0.000000
    19  C    1.889069   3.084054   3.091039   0.000000
    20  H    2.485811   3.267626   1.096352   3.318408   0.000000
    21  H    2.497655   3.311685   1.095168   4.045725   1.768674
    22  H    2.520098   4.052304   1.094434   3.304545   1.766347
    23  H    2.479774   3.278727   3.287198   1.096479   3.140436
    24  H    2.528413   4.055617   3.327829   1.095042   3.648856
    25  H    2.506893   3.293382   4.049777   1.095134   4.316726
    26  H    2.491432   1.095725   3.295596   3.306540   3.101072
    27  H    2.494719   1.094967   4.041779   3.287995   4.275525
    28  H    2.495643   1.094932   3.304776   4.041821   3.572619
    29  H    3.517697   3.819925   5.254636   3.890869   5.998766
    30  H    4.788384   5.368983   6.480354   4.563762   7.219443
    31  H    4.911256   5.427694   6.420172   5.324731   7.310491
    32  H    5.780611   7.157700   6.891427   5.028196   7.642206
    33  H    6.155044   7.188550   7.545084   5.674422   8.353415
    34  H    7.572563   9.054445   8.372154   7.189185   9.260661
    35  H    7.853102   9.067168   8.911010   7.647393   9.848574
    36  H    8.138795   9.425325   9.232563   7.516523  10.054305
    37  C    4.012851   4.964680   4.734399   5.151290   5.800796
    38  C    4.235653   5.055396   4.432170   5.729512   5.485731
    39  C    5.392189   6.283618   5.260004   6.852136   6.296859
    40  H    4.943845   6.016820   5.586755   5.880250   6.671049
    41  H    4.258435   4.836546   5.271204   5.405068   6.277126
    42  H    3.733359   4.280226   3.862188   5.439125   4.837616
    43  H    5.864927   6.627731   5.453403   7.448159   6.408387
    44  H    6.098866   7.132010   6.031679   7.378345   7.094871
                   21         22         23         24         25
    21  H    0.000000
    22  H    1.769324   0.000000
    23  H    4.297601   3.580812   0.000000
    24  H    4.328690   3.170173   1.762799   0.000000
    25  H    4.912832   4.321380   1.767323   1.771180   0.000000
    26  H    3.617307   4.299695   3.125817   4.318876   3.604319
    27  H    4.316387   4.920143   3.575785   4.307099   3.122359
    28  H    3.158539   4.325386   4.287722   4.926513   4.299098
    29  H    5.547605   5.623840   4.834135   4.326170   3.340909
    30  H    6.922355   6.633161   5.533402   4.705887   3.819504
    31  H    6.590281   6.604485   6.357125   5.497136   4.833617
    32  H    7.527244   6.517614   5.968109   4.426716   4.674153
    33  H    8.046892   7.378405   6.673579   5.376149   5.094249
    34  H    8.810458   7.829001   8.170733   6.497316   7.007374
    35  H    9.251045   8.554067   8.691610   7.172522   7.285498
    36  H    9.757965   8.817018   8.463599   6.932012   7.088744
    37  C    4.572953   4.767341   6.148538   5.175316   5.277750
    38  C    3.943678   4.515909   6.592798   5.810006   6.071474
    39  C    4.663374   5.177681   7.693202   6.811716   7.269380
    40  H    5.458685   5.454121   6.917541   5.743780   5.970726
    41  H    5.097329   5.485605   6.394639   5.600183   5.349597
    42  H    3.235052   4.177846   6.190476   5.689854   5.833316
    43  H    4.686521   5.414257   8.195534   7.451984   7.955044
    44  H    5.544775   5.806528   8.281742   7.212147   7.746104
                   26         27         28         29         30
    26  H    0.000000
    27  H    1.770343   0.000000
    28  H    1.769706   1.769760   0.000000
    29  H    4.785068   3.248776   4.191710   0.000000
    30  H    6.229410   4.756766   5.882908   1.766536   0.000000
    31  H    6.450810   4.940463   5.619964   1.770030   1.765315
    32  H    7.873971   6.931870   7.790541   4.456064   3.279119
    33  H    8.022099   6.752269   7.720590   3.780345   2.235822
    34  H    9.876418   8.926136   9.491046   6.168145   5.069996
    35  H    9.983386   8.774668   9.421699   5.686788   4.455424
    36  H   10.221697   9.104694   9.959952   6.206508   4.726961
    37  C    5.997470   5.085193   4.832055   3.282159   4.173056
    38  C    6.014591   5.423712   4.661212   4.435121   5.578502
    39  C    7.189805   6.721851   5.829520   5.692492   6.689205
    40  H    7.040960   6.098969   5.924138   3.918662   4.404890
    41  H    5.921826   4.758194   4.652003   2.752433   3.778667
    42  H    5.194909   4.748702   3.745984   4.426798   5.825602
    43  H    7.452496   7.175712   6.050149   6.546268   7.664964
    44  H    8.064682   7.501423   6.763944   6.061989   6.804222
                   31         32         33         34         35
    31  H    0.000000
    32  H    4.141503   0.000000
    33  H    3.022305   1.759860   0.000000
    34  H    5.218362   2.532211   3.075032   0.000000
    35  H    4.371429   3.086225   2.517886   1.769749   0.000000
    36  H    5.261392   2.507366   2.491186   1.771249   1.768669
    37  C    2.958290   5.084818   4.873225   5.637850   5.440463
    38  C    4.355146   6.422949   6.357951   6.859097   6.791476
    39  C    5.386364   7.166391   7.180491   7.181214   7.190802
    40  H    3.129451   4.847553   4.617194   4.923805   4.692389
    41  H    2.320590   5.378951   4.823396   6.074873   5.579096
    42  H    4.721778   6.969631   6.911141   7.697658   7.636420
    43  H    6.369755   8.178910   8.243057   8.203741   8.263113
    44  H    5.471347   6.955613   6.971592   6.604343   6.618944
                   36         37         38         39         40
    36  H    0.000000
    37  C    6.530950   0.000000
    38  C    7.915201   1.504516   0.000000
    39  C    8.428683   2.516811   1.334081   0.000000
    40  H    5.943187   1.095701   2.135055   2.630593   0.000000
    41  H    6.719069   1.096562   2.130148   3.202088   1.764807
    42  H    8.660967   2.205965   1.088252   2.096469   3.086969
    43  H    9.491790   3.506781   2.116557   1.086187   3.714097
    44  H    7.942362   2.783011   2.119321   1.087777   2.440341
                   41         42         43         44
    41  H    0.000000
    42  H    2.543659   0.000000
    43  H    4.111350   2.440323   0.000000
    44  H    3.518433   3.077769   1.849460   0.000000
 Stoichiometry    C14H26O3Si
 Framework group  C1[X(C14H26O3Si)]
 Deg. of freedom   126
 Full point group                 C1      NOp   1
 Largest Abelian subgroup         C1      NOp   1
 Largest concise Abelian subgroup C1      NOp   1
                         Standard orientation:                         
 ---------------------------------------------------------------------
 Center     Atomic      Atomic             Coordinates (Angstroms)
 Number     Number       Type             X           Y           Z
 ---------------------------------------------------------------------
      1          6           0       -2.313998   -0.552404   -0.369095
      2          6           0       -0.840825   -0.935031   -0.590670
      3          6           0        0.097988    0.290148   -0.398469
      4          6           0       -0.130545    0.811491    1.027090
      5          6           0       -1.581536    1.071038    1.381537
      6          1           0       -2.674791    0.000141   -1.246345
      7          1           0       -0.558266   -1.648618    0.195155
      8          1           0        0.223982    0.066591    1.749808
      9          1           0        0.419544    1.735372    1.213401
     10          8           0       -2.536917    0.350884    0.759485
     11          8           0       -1.914128    1.859363    2.241741
     12          6           0       -3.233860   -1.751649   -0.126581
     13          6           0       -4.713886   -1.378203    0.000131
     14          6           0       -0.659989   -1.630908   -1.948787
     15          8           0        1.449724   -0.114270   -0.597113
     16         14           0        2.676561   -0.786732    0.338523
     17          6           0        3.983534   -1.259518   -0.928856
     18          6           0        3.379736    0.479713    1.547107
     19          6           0        2.109621   -2.325308    1.276576
     20          1           0        4.270915    0.074127    2.040350
     21          1           0        3.677269    1.395936    1.026144
     22          1           0        2.667770    0.756392    2.330905
     23          1           0        2.965619   -2.771753    1.796404
     24          1           0        1.348739   -2.111051    2.034382
     25          1           0        1.705147   -3.083219    0.597392
     26          1           0        4.863876   -1.690941   -0.439484
     27          1           0        3.597467   -1.999709   -1.637392
     28          1           0        4.313800   -0.387066   -1.502116
     29          1           0        0.403314   -1.740304   -2.170908
     30          1           0       -1.107538   -2.627709   -1.946213
     31          1           0       -1.120843   -1.063138   -2.763695
     32          1           0       -2.893670   -2.267616    0.780083
     33          1           0       -3.105097   -2.453570   -0.957106
     34          1           0       -4.878964   -0.696844    0.838202
     35          1           0       -5.075972   -0.887300   -0.910205
     36          1           0       -5.323560   -2.272247    0.161621
     37          6           0       -0.172125    1.407835   -1.442443
     38          6           0        0.738933    2.598166   -1.313391
     39          6           0        0.330335    3.850138   -1.100351
     40          1           0       -1.214432    1.738291   -1.372042
     41          1           0       -0.038804    0.963423   -2.436008
     42          1           0        1.802427    2.391036   -1.415229
     43          1           0        1.033738    4.674742   -1.029252
     44          1           0       -0.723259    4.098427   -0.992872
 ---------------------------------------------------------------------
 Rotational constants (GHZ):      0.4796392      0.2695784      0.2303044
 Standard basis: def2TZVP (5D, 7F)
 There are   810 symmetry adapted cartesian basis functions of A   symmetry.
 There are   720 symmetry adapted basis functions of A   symmetry.
   720 basis functions,  1144 primitive gaussians,   810 cartesian basis functions
    74 alpha electrons       74 beta electrons
       nuclear repulsion energy      1622.7911921565 Hartrees.
 NAtoms=   44 NActive=   44 NUniq=   44 SFac= 1.00D+00 NAtFMM=   60 NAOKFM=F Big=F
 Integral buffers will be    131072 words long.
 Raffenetti 2 integral format.
 Two-electron integral symmetry is turned on.
 ------------------------------------------------------------------------------
 Polarizable Continuum Model (PCM)
 =================================
 Model                : PCM (using non-symmetric T matrix).
 Atomic radii         : UFF (Universal Force Field).
 Polarization charges : Total charges.
 Charge compensation  : None.
 Solution method      : On-the-fly selection.
 Cavity type          : Scaled VdW (van der Waals Surface) (Alpha=1.100).
 Cavity algorithm     : GePol (No added spheres)
                        Default sphere list used, NSphG=   44.
                        Lebedev-Laikov grids with approx.  5.0 points / Ang**2.
                        Smoothing algorithm: Karplus/York (Gamma=1.0000).
                        Polarization charges: spherical gaussians, with
                                              point-specific exponents (IZeta= 3).
                        Self-potential: point-specific (ISelfS= 7).
                        Self-field    : sphere-specific E.n sum rule (ISelfD= 2).
 Solvent              : Chloroform, Eps=   4.711300 Eps(inf)=   2.090627
 ------------------------------------------------------------------------------
 One-electron integrals computed using PRISM.
   1 Symmetry operations used in ECPInt.
 ECPInt:  NShTT=   46360 NPrTT=  137514 LenC2=   42024 LenP2D=   90057.
 LDataN:  DoStor=T MaxTD1= 6 Len=  172
 NBasis=   720 RedAO= T EigKep=  3.88D-05  NBF=   720
 NBsUse=   720 1.00D-06 EigRej= -1.00D+00 NBFU=   720
 ExpMin= 7.01D-02 ExpMax= 4.48D+04 ExpMxC= 1.53D+03 IAcc=3 IRadAn=         5 AccDes= 0.00D+00
 Harris functional with IExCor= 1009 and IRadAn=       5 diagonalized for initial guess.
 HarFok:  IExCor= 1009 AccDes= 0.00D+00 IRadAn=         5 IDoV= 1 UseB2=F ITyADJ=14
 ICtDFT=  3500011 ScaDFX=  1.000000  1.000000  1.000000  1.000000
 FoFCou: FMM=F IPFlag=           0 FMFlag=      100000 FMFlg1=           0
         NFxFlg=           0 DoJE=T BraDBF=F KetDBF=T FulRan=T
         wScrn=  0.000000 ICntrl=     500 IOpCl=  0 I1Cent=   200000004 NGrid=           0
         NMat0=    1 NMatS0=      1 NMatT0=    0 NMatD0=    1 NMtDS0=    0 NMtDT0=    0
 Petite list used in FoFCou.
 Requested convergence on RMS density matrix=1.00D-08 within 128 cycles.
 Requested convergence on MAX density matrix=1.00D-06.
 Requested convergence on             energy=1.00D-06.
 No special actions if energy rises.
 Inv3:  Mode=1 IEnd=    26267043.
 Iteration    1 A*A^-1 deviation from unit magnitude is 5.77D-15 for   2926.
 Iteration    1 A*A^-1 deviation from orthogonality  is 3.88D-15 for   2933   2820.
 Iteration    1 A^-1*A deviation from unit magnitude is 6.33D-15 for   2926.
 Iteration    1 A^-1*A deviation from orthogonality  is 2.07D-10 for   2907   2269.
 Iteration    2 A*A^-1 deviation from unit magnitude is 2.89D-15 for      5.
 Iteration    2 A*A^-1 deviation from orthogonality  is 2.65D-15 for   2054    377.
 Iteration    2 A^-1*A deviation from unit magnitude is 1.11D-15 for   1327.
 Iteration    2 A^-1*A deviation from orthogonality  is 1.39D-15 for   2948   1152.
 Error on total polarization charges =  0.01489
 SCF Done:  E(RM062X) =  -1064.34100129     A.U. after   14 cycles
            NFock= 14  Conv=0.14D-08     -V/T= 2.0047

 **********************************************************************

            Population analysis using the SCF density.

 **********************************************************************

 Orbital symmetries:
       Occupied  (A) (A) (A) (A) (A) (A) (A) (A) (A) (A) (A) (A)
                 (A) (A) (A) (A) (A) (A) (A) (A) (A) (A) (A) (A)
                 (A) (A) (A) (A) (A) (A) (A) (A) (A) (A) (A) (A)
                 (A) (A) (A) (A) (A) (A) (A) (A) (A) (A) (A) (A)
                 (A) (A) (A) (A) (A) (A) (A) (A) (A) (A) (A) (A)
                 (A) (A) (A) (A) (A) (A) (A) (A) (A) (A) (A) (A)
                 (A) (A)
       Virtual   (A) (A) (A) (A) (A) (A) (A) (A) (A) (A) (A) (A)
                 (A) (A) (A) (A) (A) (A) (A) (A) (A) (A) (A) (A)
                 (A) (A) (A) (A) (A) (A) (A) (A) (A) (A) (A) (A)
                 (A) (A) (A) (A) (A) (A) (A) (A) (A) (A) (A) (A)
                 (A) (A) (A) (A) (A) (A) (A) (A) (A) (A) (A) (A)
                 (A) (A) (A) (A) (A) (A) (A) (A) (A) (A) (A) (A)
                 (A) (A) (A) (A) (A) (A) (A) (A) (A) (A) (A) (A)
                 (A) (A) (A) (A) (A) (A) (A) (A) (A) (A) (A) (A)
                 (A) (A) (A) (A) (A) (A) (A) (A) (A) (A) (A) (A)
                 (A) (A) (A) (A) (A) (A) (A) (A) (A) (A) (A) (A)
                 (A) (A) (A) (A) (A) (A) (A) (A) (A) (A) (A) (A)
                 (A) (A) (A) (A) (A) (A) (A) (A) (A) (A) (A) (A)
                 (A) (A) (A) (A) (A) (A) (A) (A) (A) (A) (A) (A)
                 (A) (A) (A) (A) (A) (A) (A) (A) (A) (A) (A) (A)
                 (A) (A) (A) (A) (A) (A) (A) (A) (A) (A) (A) (A)
                 (A) (A) (A) (A) (A) (A) (A) (A) (A) (A) (A) (A)
                 (A) (A) (A) (A) (A) (A) (A) (A) (A) (A) (A) (A)
                 (A) (A) (A) (A) (A) (A) (A) (A) (A) (A) (A) (A)
                 (A) (A) (A) (A) (A) (A) (A) (A) (A) (A) (A) (A)
                 (A) (A) (A) (A) (A) (A) (A) (A) (A) (A) (A) (A)
                 (A) (A) (A) (A) (A) (A) (A) (A) (A) (A) (A) (A)
                 (A) (A) (A) (A) (A) (A) (A) (A) (A) (A) (A) (A)
                 (A) (A) (A) (A) (A) (A) (A) (A) (A) (A) (A) (A)
                 (A) (A) (A) (A) (A) (A) (A) (A) (A) (A) (A) (A)
                 (A) (A) (A) (A) (A) (A) (A) (A) (A) (A) (A) (A)
                 (A) (A) (A) (A) (A) (A) (A) (A) (A) (A) (A) (A)
                 (A) (A) (A) (A) (A) (A) (A) (A) (A) (A) (A) (A)
                 (A) (A) (A) (A) (A) (A) (A) (A) (A) (A) (A) (A)
                 (A) (A) (A) (A) (A) (A) (A) (A) (A) (A) (A) (A)
                 (A) (A) (A) (A) (A) (A) (A) (A) (A) (A) (A) (A)
                 (A) (A) (A) (A) (A) (A) (A) (A) (A) (A) (A) (A)
                 (A) (A) (A) (A) (A) (A) (A) (A) (A) (A) (A) (A)
                 (A) (A) (A) (A) (A) (A) (A) (A) (A) (A) (A) (A)
                 (A) (A) (A) (A) (A) (A) (A) (A) (A) (A) (A) (A)
                 (A) (A) (A) (A) (A) (A) (A) (A) (A) (A) (A) (A)
                 (A) (A) (A) (A) (A) (A) (A) (A) (A) (A) (A) (A)
                 (A) (A) (A) (A) (A) (A) (A) (A) (A) (A) (A) (A)
                 (A) (A) (A) (A) (A) (A) (A) (A) (A) (A) (A) (A)
                 (A) (A) (A) (A) (A) (A) (A) (A) (A) (A) (A) (A)
                 (A) (A) (A) (A) (A) (A) (A) (A) (A) (A) (A) (A)
                 (A) (A) (A) (A) (A) (A) (A) (A) (A) (A) (A) (A)
                 (A) (A) (A) (A) (A) (A) (A) (A) (A) (A) (A) (A)
                 (A) (A) (A) (A) (A) (A) (A) (A) (A) (A) (A) (A)
                 (A) (A) (A) (A) (A) (A) (A) (A) (A) (A) (A) (A)
                 (A) (A) (A) (A) (A) (A) (A) (A) (A) (A) (A) (A)
                 (A) (A) (A) (A) (A) (A) (A) (A) (A) (A) (A) (A)
                 (A) (A) (A) (A) (A) (A) (A) (A) (A) (A) (A) (A)
                 (A) (A) (A) (A) (A) (A) (A) (A) (A) (A) (A) (A)
                 (A) (A) (A) (A) (A) (A) (A) (A) (A) (A) (A) (A)
                 (A) (A) (A) (A) (A) (A) (A) (A) (A) (A) (A) (A)
                 (A) (A) (A) (A) (A) (A) (A) (A) (A) (A) (A) (A)
                 (A) (A) (A) (A) (A) (A) (A) (A) (A) (A) (A) (A)
                 (A) (A) (A) (A) (A) (A) (A) (A) (A) (A) (A) (A)
                 (A) (A) (A) (A) (A) (A) (A) (A) (A) (A)
 The electronic state is 1-A.
 Alpha  occ. eigenvalues --  -67.01751 -19.67305 -19.62013 -19.61655 -10.68318
 Alpha  occ. eigenvalues --  -10.62104 -10.61193 -10.55732 -10.55688 -10.54504
 Alpha  occ. eigenvalues --  -10.54460 -10.54232 -10.53343 -10.53306 -10.52556
 Alpha  occ. eigenvalues --  -10.51354 -10.51018 -10.50887  -5.55201  -3.86388
 Alpha  occ. eigenvalues --   -3.86246  -3.86230  -1.22984  -1.14256  -1.13425
 Alpha  occ. eigenvalues --   -0.93619  -0.90832  -0.87927  -0.85041  -0.81036
 Alpha  occ. eigenvalues --   -0.79423  -0.78896  -0.77115  -0.76849  -0.73164
 Alpha  occ. eigenvalues --   -0.70491  -0.68402  -0.64800  -0.62476  -0.60041
 Alpha  occ. eigenvalues --   -0.57983  -0.55910  -0.55677  -0.54681  -0.54019
 Alpha  occ. eigenvalues --   -0.51565  -0.51057  -0.50266  -0.49787  -0.48702
 Alpha  occ. eigenvalues --   -0.47873  -0.47559  -0.47348  -0.46847  -0.46593
 Alpha  occ. eigenvalues --   -0.45903  -0.45578  -0.44809  -0.44604  -0.43939
 Alpha  occ. eigenvalues --   -0.43438  -0.43168  -0.42250  -0.41807  -0.41001
 Alpha  occ. eigenvalues --   -0.40596  -0.39487  -0.38760  -0.37153  -0.36529
 Alpha  occ. eigenvalues --   -0.36016  -0.34297  -0.33490  -0.31939
 Alpha virt. eigenvalues --    0.03217   0.03828   0.05058   0.06902   0.07123
 Alpha virt. eigenvalues --    0.07660   0.09106   0.09546   0.09785   0.10014
 Alpha virt. eigenvalues --    0.11139   0.11277   0.11570   0.11905   0.12497
 Alpha virt. eigenvalues --    0.13116   0.13383   0.14207   0.14391   0.14704
 Alpha virt. eigenvalues --    0.15323   0.15697   0.15910   0.16343   0.16583
 Alpha virt. eigenvalues --    0.16712   0.17150   0.17516   0.18058   0.18629
 Alpha virt. eigenvalues --    0.18856   0.19736   0.19931   0.20248   0.20461
 Alpha virt. eigenvalues --    0.21116   0.21531   0.22024   0.22825   0.23034
 Alpha virt. eigenvalues --    0.23262   0.24167   0.24433   0.24828   0.25121
 Alpha virt. eigenvalues --    0.25971   0.26801   0.27373   0.27631   0.28695
 Alpha virt. eigenvalues --    0.28751   0.29103   0.29497   0.30131   0.31109
 Alpha virt. eigenvalues --    0.31566   0.31737   0.31890   0.33066   0.33746
 Alpha virt. eigenvalues --    0.34215   0.34934   0.35698   0.35953   0.36648
 Alpha virt. eigenvalues --    0.37175   0.37937   0.38258   0.38802   0.38891
 Alpha virt. eigenvalues --    0.39477   0.40079   0.40652   0.41169   0.41426
 Alpha virt. eigenvalues --    0.42356   0.42518   0.42636   0.43226   0.43688
 Alpha virt. eigenvalues --    0.43989   0.44834   0.45267   0.45607   0.46124
 Alpha virt. eigenvalues --    0.46332   0.46733   0.47094   0.47461   0.47946
 Alpha virt. eigenvalues --    0.48577   0.48792   0.48883   0.49590   0.50031
 Alpha virt. eigenvalues --    0.50111   0.50367   0.50543   0.51117   0.51201
 Alpha virt. eigenvalues --    0.51996   0.52218   0.52506   0.52761   0.53228
 Alpha virt. eigenvalues --    0.53275   0.54062   0.55009   0.55453   0.56138
 Alpha virt. eigenvalues --    0.56875   0.57185   0.57790   0.58012   0.58472
 Alpha virt. eigenvalues --    0.59010   0.60260   0.61245   0.61553   0.62049
 Alpha virt. eigenvalues --    0.62543   0.63136   0.63738   0.64256   0.65350
 Alpha virt. eigenvalues --    0.65750   0.66407   0.66685   0.68309   0.68642
 Alpha virt. eigenvalues --    0.69251   0.70259   0.70915   0.72063   0.72948
 Alpha virt. eigenvalues --    0.73929   0.74733   0.75371   0.76651   0.77320
 Alpha virt. eigenvalues --    0.78448   0.78941   0.79727   0.80254   0.81244
 Alpha virt. eigenvalues --    0.82220   0.82931   0.84099   0.84457   0.85338
 Alpha virt. eigenvalues --    0.86653   0.86881   0.87802   0.89559   0.89954
 Alpha virt. eigenvalues --    0.90449   0.92025   0.92525   0.92937   0.93241
 Alpha virt. eigenvalues --    0.93520   0.95480   0.95856   0.96430   0.97823
 Alpha virt. eigenvalues --    0.98131   0.99179   0.99920   1.00603   1.01436
 Alpha virt. eigenvalues --    1.01627   1.03059   1.03689   1.04091   1.04599
 Alpha virt. eigenvalues --    1.04953   1.05384   1.06011   1.06763   1.07439
 Alpha virt. eigenvalues --    1.07808   1.09017   1.09469   1.10086   1.10721
 Alpha virt. eigenvalues --    1.11211   1.12688   1.13686   1.14185   1.14614
 Alpha virt. eigenvalues --    1.15273   1.15385   1.16490   1.17382   1.18982
 Alpha virt. eigenvalues --    1.20117   1.21264   1.21914   1.22756   1.24116
 Alpha virt. eigenvalues --    1.24989   1.26716   1.26843   1.27977   1.28484
 Alpha virt. eigenvalues --    1.29050   1.30446   1.31990   1.32435   1.34419
 Alpha virt. eigenvalues --    1.34810   1.35150   1.36829   1.37822   1.38600
 Alpha virt. eigenvalues --    1.38803   1.39104   1.41080   1.41361   1.41826
 Alpha virt. eigenvalues --    1.43094   1.44248   1.44696   1.45504   1.46180
 Alpha virt. eigenvalues --    1.47809   1.48703   1.49771   1.50858   1.53562
 Alpha virt. eigenvalues --    1.54355   1.54689   1.55433   1.55832   1.56467
 Alpha virt. eigenvalues --    1.57091   1.57687   1.58443   1.58875   1.59387
 Alpha virt. eigenvalues --    1.59692   1.60134   1.60505   1.61000   1.61563
 Alpha virt. eigenvalues --    1.61679   1.62071   1.63969   1.64204   1.64568
 Alpha virt. eigenvalues --    1.64813   1.65624   1.66017   1.66187   1.66904
 Alpha virt. eigenvalues --    1.67698   1.67924   1.68173   1.68258   1.68798
 Alpha virt. eigenvalues --    1.69172   1.70182   1.71288   1.71573   1.73755
 Alpha virt. eigenvalues --    1.74932   1.75224   1.75734   1.77224   1.77698
 Alpha virt. eigenvalues --    1.78292   1.79387   1.79629   1.81095   1.82445
 Alpha virt. eigenvalues --    1.83066   1.84342   1.85894   1.86767   1.87567
 Alpha virt. eigenvalues --    1.88271   1.88996   1.89802   1.90517   1.91878
 Alpha virt. eigenvalues --    1.92662   1.93871   1.94577   1.96203   1.97592
 Alpha virt. eigenvalues --    1.98397   1.99660   2.00016   2.00831   2.02683
 Alpha virt. eigenvalues --    2.03151   2.04093   2.04649   2.06337   2.06994
 Alpha virt. eigenvalues --    2.07512   2.07586   2.08700   2.09568   2.09900
 Alpha virt. eigenvalues --    2.10766   2.10867   2.12699   2.13102   2.14580
 Alpha virt. eigenvalues --    2.15661   2.17035   2.18308   2.18847   2.19286
 Alpha virt. eigenvalues --    2.20560   2.21706   2.22008   2.22495   2.24351
 Alpha virt. eigenvalues --    2.25114   2.25364   2.26727   2.27026   2.28331
 Alpha virt. eigenvalues --    2.29153   2.30361   2.30829   2.31751   2.32315
 Alpha virt. eigenvalues --    2.33864   2.34940   2.35530   2.36497   2.37303
 Alpha virt. eigenvalues --    2.37405   2.38080   2.38237   2.39682   2.39958
 Alpha virt. eigenvalues --    2.40243   2.41114   2.41624   2.42337   2.42619
 Alpha virt. eigenvalues --    2.42933   2.43916   2.44312   2.44681   2.45670
 Alpha virt. eigenvalues --    2.45828   2.46286   2.47053   2.48351   2.49523
 Alpha virt. eigenvalues --    2.50159   2.51679   2.52269   2.53131   2.55186
 Alpha virt. eigenvalues --    2.55651   2.56681   2.57631   2.57855   2.58076
 Alpha virt. eigenvalues --    2.58741   2.59616   2.59975   2.60844   2.60912
 Alpha virt. eigenvalues --    2.61255   2.62311   2.62553   2.63581   2.63871
 Alpha virt. eigenvalues --    2.63897   2.64624   2.65766   2.66965   2.67262
 Alpha virt. eigenvalues --    2.68106   2.68467   2.69457   2.69664   2.70136
 Alpha virt. eigenvalues --    2.70911   2.71944   2.72395   2.72848   2.73411
 Alpha virt. eigenvalues --    2.73757   2.75276   2.75318   2.76786   2.78339
 Alpha virt. eigenvalues --    2.79184   2.79781   2.81956   2.82638   2.84085
 Alpha virt. eigenvalues --    2.84289   2.85438   2.86523   2.86901   2.87421
 Alpha virt. eigenvalues --    2.88539   2.89885   2.91007   2.92853   2.93499
 Alpha virt. eigenvalues --    2.95614   2.95958   2.96152   2.98370   2.98931
 Alpha virt. eigenvalues --    2.99760   3.01167   3.03352   3.03650   3.04593
 Alpha virt. eigenvalues --    3.06227   3.07809   3.09000   3.09883   3.10496
 Alpha virt. eigenvalues --    3.10937   3.11212   3.12392   3.12717   3.13335
 Alpha virt. eigenvalues --    3.13629   3.14474   3.15016   3.15531   3.15587
 Alpha virt. eigenvalues --    3.16998   3.18061   3.18835   3.19494   3.20106
 Alpha virt. eigenvalues --    3.20914   3.22352   3.22471   3.23653   3.24060
 Alpha virt. eigenvalues --    3.24235   3.24513   3.25119   3.26407   3.26505
 Alpha virt. eigenvalues --    3.27448   3.27541   3.27861   3.28991   3.29711
 Alpha virt. eigenvalues --    3.29974   3.30164   3.30772   3.31675   3.32964
 Alpha virt. eigenvalues --    3.33022   3.33584   3.33655   3.34948   3.35460
 Alpha virt. eigenvalues --    3.36340   3.36950   3.37498   3.38453   3.39441
 Alpha virt. eigenvalues --    3.40326   3.41812   3.41931   3.42393   3.42994
 Alpha virt. eigenvalues --    3.43610   3.44081   3.44874   3.45281   3.45974
 Alpha virt. eigenvalues --    3.46758   3.47734   3.48443   3.50237   3.51127
 Alpha virt. eigenvalues --    3.52452   3.53234   3.53864   3.54151   3.55299
 Alpha virt. eigenvalues --    3.56114   3.56580   3.57559   3.58089   3.58441
 Alpha virt. eigenvalues --    3.59741   3.60161   3.60660   3.61565   3.62953
 Alpha virt. eigenvalues --    3.63012   3.63407   3.64465   3.64632   3.65275
 Alpha virt. eigenvalues --    3.65723   3.66245   3.67057   3.68786   3.70142
 Alpha virt. eigenvalues --    3.72195   3.73952   3.74928   3.76402   3.77431
 Alpha virt. eigenvalues --    3.78158   3.78799   3.79487   3.81623   3.83529
 Alpha virt. eigenvalues --    3.86170   3.87112   3.87686   3.90412   3.91900
 Alpha virt. eigenvalues --    3.92671   3.95039   3.96191   3.98933   4.00056
 Alpha virt. eigenvalues --    4.01216   4.03731   4.05083   4.07702   4.09762
 Alpha virt. eigenvalues --    4.10632   4.13988   4.15032   4.16418   4.17627
 Alpha virt. eigenvalues --    4.19513   4.21034   4.24678   4.26190   4.26790
 Alpha virt. eigenvalues --    4.27039   4.27479   4.28764   4.29661   4.29886
 Alpha virt. eigenvalues --    4.31054   4.32902   4.33747   4.34957   4.35740
 Alpha virt. eigenvalues --    4.37149   4.38255   4.38588   4.39263   4.40188
 Alpha virt. eigenvalues --    4.41365   4.44183   4.45130   4.47932   4.50176
 Alpha virt. eigenvalues --    4.50602   4.53335   4.55227   4.55982   4.57679
 Alpha virt. eigenvalues --    4.59640   4.61891   4.63445   4.67260   4.70773
 Alpha virt. eigenvalues --    4.71525   4.74234   4.75532   4.80620   4.83658
 Alpha virt. eigenvalues --    4.85301   4.86956   4.92831   4.96729   5.02163
 Alpha virt. eigenvalues --    5.03584   5.06987   5.19381   5.22191   5.22329
 Alpha virt. eigenvalues --    5.24612   5.25658   5.26621   5.28868   5.35318
 Alpha virt. eigenvalues --    5.48415   5.49547   5.51939   5.60741   5.81699
 Alpha virt. eigenvalues --    5.85525   5.86582   5.88820   5.91726   6.03741
 Alpha virt. eigenvalues --    6.14097   6.17576   6.23606   6.36928   6.38592
 Alpha virt. eigenvalues --    6.51602   6.61716   6.62443   6.62948   6.65744
 Alpha virt. eigenvalues --    6.69635   6.76850   6.81426   6.86118   6.89482
 Alpha virt. eigenvalues --    6.92208   6.98117   7.04486   7.06056   7.15990
 Alpha virt. eigenvalues --    7.20613   7.34644   7.42903  12.17576  22.28759
 Alpha virt. eigenvalues --   22.37806  22.41913  22.42555  22.44819  22.52062
 Alpha virt. eigenvalues --   22.55650  22.64001  22.68710  22.77657  22.80448
 Alpha virt. eigenvalues --   22.89468  22.90560  23.44999  44.06657  44.49359
 Alpha virt. eigenvalues --   44.51354
          Condensed to atoms (all electrons):
               1          2          3          4          5          6
     1  C    5.427722   0.039185  -0.006281   0.015915  -0.048373   0.452206
     2  C    0.039185   5.793799   0.042235  -0.046284  -0.001631  -0.034271
     3  C   -0.006281   0.042235   5.797281  -0.194486   0.059828  -0.034865
     4  C    0.015915  -0.046284  -0.194486   6.182480   0.131028   0.005450
     5  C   -0.048373  -0.001631   0.059828   0.131028   4.405966  -0.003389
     6  H    0.452206  -0.034271  -0.034865   0.005450  -0.003389   0.513222
     7  H   -0.040381   0.445556  -0.061688  -0.014138   0.002771   0.006535
     8  H    0.004379  -0.025885  -0.027930   0.391346  -0.013736  -0.000045
     9  H   -0.000938   0.011349  -0.028546   0.379728  -0.008937   0.000147
    10  O    0.158703  -0.015673   0.029711  -0.158147   0.392465  -0.041830
    11  O    0.000500  -0.000206   0.014699  -0.150825   0.734499   0.000158
    12  C    0.215891  -0.024596   0.013598  -0.007973   0.002052  -0.045434
    13  C   -0.044318   0.007419   0.000106  -0.000206   0.000159  -0.008617
    14  C   -0.056391   0.229904  -0.020340  -0.002150   0.002144  -0.011149
    15  O    0.008699  -0.040709   0.163840  -0.021073  -0.002290  -0.000103
    16  Si   0.001486  -0.003942  -0.077039   0.015672  -0.000967   0.000021
    17  C   -0.000074   0.001060   0.000215  -0.001031  -0.000032   0.000000
    18  C    0.000104   0.000073  -0.005444   0.007853  -0.000101  -0.000003
    19  C   -0.000997  -0.000744   0.021931  -0.013079   0.000161  -0.000019
    20  H   -0.000005   0.000014   0.000172  -0.000369  -0.000009   0.000000
    21  H   -0.000001  -0.000091   0.003816  -0.003299  -0.000008   0.000000
    22  H    0.000003   0.000508  -0.004069   0.003920   0.000499   0.000000
    23  H   -0.000005   0.000355  -0.000852   0.000335  -0.000009   0.000000
    24  H   -0.000458  -0.001943   0.002590  -0.003937  -0.000358   0.000001
    25  H    0.000390   0.001900  -0.001600   0.000808   0.000023  -0.000001
    26  H    0.000001  -0.000018  -0.000021   0.000030   0.000000   0.000000
    27  H    0.000017  -0.000469   0.000746   0.000084  -0.000001   0.000000
    28  H    0.000005  -0.000060  -0.000013   0.000150   0.000002   0.000000
    29  H    0.013331  -0.066280   0.010765   0.003019  -0.000370  -0.000126
    30  H   -0.006351  -0.043385   0.012869  -0.000571  -0.000002   0.000224
    31  H   -0.008570  -0.021578  -0.027884  -0.001057   0.000256   0.004049
    32  H   -0.032730  -0.005200  -0.002461   0.000868  -0.001148   0.006293
    33  H   -0.062654   0.001123  -0.001021   0.000763   0.000264   0.001471
    34  H   -0.018131  -0.000033  -0.000246   0.000697   0.001263   0.001264
    35  H    0.001012   0.001475  -0.000194   0.000068  -0.000250   0.001615
    36  H    0.014319  -0.000956   0.000062   0.000020   0.000005  -0.000202
    37  C    0.013892  -0.051290   0.156077  -0.049655   0.001943   0.011182
    38  C   -0.004318   0.012196  -0.030369  -0.001285   0.000528  -0.000458
    39  C    0.000720  -0.000928  -0.008744   0.000096   0.000324   0.000210
    40  H    0.007277  -0.024245  -0.008530  -0.013492   0.000650  -0.009277
    41  H   -0.008091   0.010887  -0.076957   0.005882   0.000088  -0.000285
    42  H    0.000000  -0.000389   0.004598  -0.002762   0.000437  -0.000010
    43  H    0.000004   0.000022  -0.000160  -0.000025   0.000020   0.000000
    44  H   -0.000014   0.000129  -0.002356   0.000227  -0.000059   0.000060
               7          8          9         10         11         12
     1  C   -0.040381   0.004379  -0.000938   0.158703   0.000500   0.215891
     2  C    0.445556  -0.025885   0.011349  -0.015673  -0.000206  -0.024596
     3  C   -0.061688  -0.027930  -0.028546   0.029711   0.014699   0.013598
     4  C   -0.014138   0.391346   0.379728  -0.158147  -0.150825  -0.007973
     5  C    0.002771  -0.013736  -0.008937   0.392465   0.734499   0.002052
     6  H    0.006535  -0.000045   0.000147  -0.041830   0.000158  -0.045434
     7  H    0.510408   0.002148   0.000059   0.001913  -0.000084  -0.008041
     8  H    0.002148   0.466969  -0.012479   0.002432   0.004369  -0.000020
     9  H    0.000059  -0.012479   0.441282   0.005477   0.009585   0.000093
    10  O    0.001913   0.002432   0.005477   8.001947  -0.102466  -0.038595
    11  O   -0.000084   0.004369   0.009585  -0.102466   7.859504  -0.000248
    12  C   -0.008041  -0.000020   0.000093  -0.038595  -0.000248   5.172264
    13  C   -0.000071   0.000024  -0.000013  -0.005817  -0.000030   0.261109
    14  C   -0.036160   0.000295  -0.000064   0.004166   0.000029   0.001824
    15  O   -0.004023  -0.006892  -0.000849  -0.000341  -0.000199  -0.000202
    16  Si   0.004567   0.009687  -0.002732   0.000003  -0.000133  -0.000246
    17  C    0.000129   0.000169   0.000070   0.000000   0.000000   0.000003
    18  C   -0.000156  -0.005968  -0.004397  -0.000033  -0.000090  -0.000001
    19  C   -0.005260  -0.001227   0.000615  -0.000038   0.000008   0.000170
    20  H   -0.000004   0.000026   0.000232   0.000000  -0.000001   0.000000
    21  H    0.000008   0.000185   0.000605   0.000001   0.000004   0.000000
    22  H   -0.000062   0.000838  -0.002973   0.000001   0.000026   0.000000
    23  H    0.000452   0.000053  -0.000019   0.000000   0.000000   0.000001
    24  H   -0.000513   0.004405   0.000115   0.000026  -0.000010   0.000088
    25  H   -0.001699  -0.000407  -0.000027  -0.000002   0.000000   0.000009
    26  H   -0.000003   0.000002   0.000000   0.000000   0.000000   0.000000
    27  H    0.000065   0.000002  -0.000006   0.000000   0.000000  -0.000001
    28  H   -0.000005  -0.000015  -0.000002   0.000000   0.000000   0.000000
    29  H   -0.003231  -0.000007  -0.000049  -0.000148   0.000000   0.000491
    30  H   -0.009732   0.000001   0.000011  -0.000077   0.000000  -0.003905
    31  H    0.007562   0.000018  -0.000006   0.000083   0.000001  -0.002321
    32  H    0.002126   0.000055   0.000007   0.000060  -0.000102   0.415785
    33  H    0.000321  -0.000032  -0.000001   0.005128   0.000011   0.433274
    34  H    0.000078  -0.000018  -0.000005   0.008460   0.000365  -0.036243
    35  H   -0.000076  -0.000001   0.000000  -0.000904   0.000003  -0.044908
    36  H   -0.000002  -0.000001   0.000000   0.000233   0.000003  -0.053244
    37  C    0.012548   0.006677  -0.007601  -0.008305   0.003476  -0.000101
    38  C   -0.000791   0.000331   0.000289   0.000794  -0.001561   0.000020
    39  C   -0.000006   0.000142  -0.000946  -0.000348   0.000716   0.000006
    40  H   -0.000368  -0.000192   0.000947   0.004921  -0.000978   0.001299
    41  H   -0.000650  -0.000149  -0.000057   0.000186  -0.000021   0.000028
    42  H    0.000008  -0.000092   0.001213   0.000009   0.000022   0.000005
    43  H    0.000000   0.000000   0.000020  -0.000002   0.000008   0.000000
    44  H    0.000003  -0.000018   0.000201  -0.000057   0.000097   0.000004
              13         14         15         16         17         18
     1  C   -0.044318  -0.056391   0.008699   0.001486  -0.000074   0.000104
     2  C    0.007419   0.229904  -0.040709  -0.003942   0.001060   0.000073
     3  C    0.000106  -0.020340   0.163840  -0.077039   0.000215  -0.005444
     4  C   -0.000206  -0.002150  -0.021073   0.015672  -0.001031   0.007853
     5  C    0.000159   0.002144  -0.002290  -0.000967  -0.000032  -0.000101
     6  H   -0.008617  -0.011149  -0.000103   0.000021   0.000000  -0.000003
     7  H   -0.000071  -0.036160  -0.004023   0.004567   0.000129  -0.000156
     8  H    0.000024   0.000295  -0.006892   0.009687   0.000169  -0.005968
     9  H   -0.000013  -0.000064  -0.000849  -0.002732   0.000070  -0.004397
    10  O   -0.005817   0.004166  -0.000341   0.000003   0.000000  -0.000033
    11  O   -0.000030   0.000029  -0.000199  -0.000133   0.000000  -0.000090
    12  C    0.261109   0.001824  -0.000202  -0.000246   0.000003  -0.000001
    13  C    5.051316  -0.000316   0.000017   0.000006   0.000000   0.000000
    14  C   -0.000316   5.143202  -0.015645  -0.000548  -0.000156  -0.000175
    15  O    0.000017  -0.015645   8.066360   0.375683  -0.018419  -0.019399
    16  Si   0.000006  -0.000548   0.375683  12.455759   0.391291   0.350651
    17  C    0.000000  -0.000156  -0.018419   0.391291   5.105068  -0.045560
    18  C    0.000000  -0.000175  -0.019399   0.350651  -0.045560   5.139560
    19  C   -0.000002  -0.000943  -0.028563   0.327572  -0.045306  -0.045712
    20  H    0.000000   0.000005   0.001254  -0.032921   0.001797   0.386717
    21  H    0.000000   0.000010  -0.001034  -0.040938   0.001818   0.395378
    22  H    0.000000   0.000007   0.001393  -0.030417   0.002617   0.389066
    23  H    0.000000  -0.000010   0.001226  -0.022355   0.000313   0.000957
    24  H   -0.000001   0.000548   0.000690  -0.036159   0.003066   0.001436
    25  H    0.000002  -0.001352   0.000263  -0.040410   0.000856   0.003420
    26  H    0.000000  -0.000022   0.001321  -0.043060   0.393011   0.002897
    27  H    0.000000  -0.000127  -0.000093  -0.031771   0.389961   0.002943
    28  H    0.000000   0.000021   0.000673  -0.034261   0.391428   0.000754
    29  H    0.000045   0.423550   0.008242  -0.000295  -0.001032   0.000201
    30  H    0.000194   0.423588   0.000297  -0.000679   0.000028   0.000002
    31  H   -0.000039   0.416504   0.000645   0.000160   0.000005   0.000006
    32  H   -0.035782  -0.000708  -0.000005  -0.000004   0.000000   0.000000
    33  H   -0.036666  -0.001012  -0.000031  -0.000022   0.000001   0.000000
    34  H    0.421120  -0.000067   0.000000   0.000000   0.000000   0.000000
    35  H    0.409773  -0.000103   0.000000   0.000000   0.000000   0.000000
    36  H    0.422383   0.000015   0.000000   0.000000   0.000000   0.000000
    37  C   -0.000229  -0.002319  -0.096534   0.010743  -0.000395   0.000418
    38  C   -0.000012  -0.000249   0.012710   0.000946  -0.000085  -0.002303
    39  C   -0.000001  -0.000117   0.002978  -0.000109  -0.000010   0.000151
    40  H    0.000129   0.002296   0.004042  -0.000239   0.000006   0.000028
    41  H   -0.000005  -0.003372   0.001452  -0.000875  -0.000035   0.000045
    42  H    0.000000   0.000109   0.002995  -0.001155  -0.000116   0.000025
    43  H    0.000000   0.000001   0.000018   0.000004   0.000001  -0.000004
    44  H   -0.000001  -0.000007  -0.000026   0.000008   0.000000  -0.000003
              19         20         21         22         23         24
     1  C   -0.000997  -0.000005  -0.000001   0.000003  -0.000005  -0.000458
     2  C   -0.000744   0.000014  -0.000091   0.000508   0.000355  -0.001943
     3  C    0.021931   0.000172   0.003816  -0.004069  -0.000852   0.002590
     4  C   -0.013079  -0.000369  -0.003299   0.003920   0.000335  -0.003937
     5  C    0.000161  -0.000009  -0.000008   0.000499  -0.000009  -0.000358
     6  H   -0.000019   0.000000   0.000000   0.000000   0.000000   0.000001
     7  H   -0.005260  -0.000004   0.000008  -0.000062   0.000452  -0.000513
     8  H   -0.001227   0.000026   0.000185   0.000838   0.000053   0.004405
     9  H    0.000615   0.000232   0.000605  -0.002973  -0.000019   0.000115
    10  O   -0.000038   0.000000   0.000001   0.000001   0.000000   0.000026
    11  O    0.000008  -0.000001   0.000004   0.000026   0.000000  -0.000010
    12  C    0.000170   0.000000   0.000000   0.000000   0.000001   0.000088
    13  C   -0.000002   0.000000   0.000000   0.000000   0.000000  -0.000001
    14  C   -0.000943   0.000005   0.000010   0.000007  -0.000010   0.000548
    15  O   -0.028563   0.001254  -0.001034   0.001393   0.001226   0.000690
    16  Si   0.327572  -0.032921  -0.040938  -0.030417  -0.022355  -0.036159
    17  C   -0.045306   0.001797   0.001818   0.002617   0.000313   0.003066
    18  C   -0.045712   0.386717   0.395378   0.389066   0.000957   0.001436
    19  C    5.191771   0.002164   0.003142   0.000890   0.381964   0.393467
    20  H    0.002164   0.511237  -0.015895  -0.018039   0.000152   0.000187
    21  H    0.003142  -0.015895   0.507676  -0.018018  -0.000126  -0.000198
    22  H    0.000890  -0.018039  -0.018018   0.509641   0.000203   0.000584
    23  H    0.381964   0.000152  -0.000126   0.000203   0.494033  -0.014382
    24  H    0.393467   0.000187  -0.000198   0.000584  -0.014382   0.507419
    25  H    0.393432  -0.000194  -0.000095  -0.000165  -0.015108  -0.020825
    26  H    0.002991  -0.000154   0.000237  -0.000140   0.000139  -0.000166
    27  H    0.000415  -0.000124  -0.000175  -0.000092   0.000262  -0.000123
    28  H    0.003141   0.000243   0.000792  -0.000128  -0.000136  -0.000089
    29  H   -0.000448  -0.000008  -0.000005  -0.000003  -0.000006  -0.000009
    30  H    0.000364   0.000000   0.000000   0.000000  -0.000003  -0.000001
    31  H   -0.000026   0.000000   0.000000   0.000000   0.000001  -0.000005
    32  H   -0.000007   0.000000   0.000000   0.000000   0.000000   0.000028
    33  H    0.000014   0.000000   0.000000   0.000000   0.000000   0.000000
    34  H    0.000000   0.000000   0.000000   0.000000   0.000000   0.000000
    35  H    0.000000   0.000000   0.000000   0.000000   0.000000   0.000000
    36  H    0.000000   0.000000   0.000000   0.000000   0.000000   0.000000
    37  C   -0.001342  -0.000051  -0.000114   0.000009   0.000026  -0.000018
    38  C    0.000318   0.000083  -0.000262   0.000086  -0.000004   0.000000
    39  C    0.000017  -0.000004   0.000115   0.000070   0.000000   0.000000
    40  H    0.000033   0.000000   0.000002  -0.000007   0.000000  -0.000003
    41  H    0.000071   0.000000   0.000002   0.000000  -0.000001  -0.000002
    42  H    0.000182  -0.000007   0.000953  -0.000075  -0.000003  -0.000008
    43  H    0.000000   0.000000  -0.000001  -0.000001   0.000000   0.000000
    44  H    0.000000   0.000000   0.000004   0.000000   0.000000   0.000000
              25         26         27         28         29         30
     1  C    0.000390   0.000001   0.000017   0.000005   0.013331  -0.006351
     2  C    0.001900  -0.000018  -0.000469  -0.000060  -0.066280  -0.043385
     3  C   -0.001600  -0.000021   0.000746  -0.000013   0.010765   0.012869
     4  C    0.000808   0.000030   0.000084   0.000150   0.003019  -0.000571
     5  C    0.000023   0.000000  -0.000001   0.000002  -0.000370  -0.000002
     6  H   -0.000001   0.000000   0.000000   0.000000  -0.000126   0.000224
     7  H   -0.001699  -0.000003   0.000065  -0.000005  -0.003231  -0.009732
     8  H   -0.000407   0.000002   0.000002  -0.000015  -0.000007   0.000001
     9  H   -0.000027   0.000000  -0.000006  -0.000002  -0.000049   0.000011
    10  O   -0.000002   0.000000   0.000000   0.000000  -0.000148  -0.000077
    11  O    0.000000   0.000000   0.000000   0.000000   0.000000   0.000000
    12  C    0.000009   0.000000  -0.000001   0.000000   0.000491  -0.003905
    13  C    0.000002   0.000000   0.000000   0.000000   0.000045   0.000194
    14  C   -0.001352  -0.000022  -0.000127   0.000021   0.423550   0.423588
    15  O    0.000263   0.001321  -0.000093   0.000673   0.008242   0.000297
    16  Si  -0.040410  -0.043060  -0.031771  -0.034261  -0.000295  -0.000679
    17  C    0.000856   0.393011   0.389961   0.391428  -0.001032   0.000028
    18  C    0.003420   0.002897   0.002943   0.000754   0.000201   0.000002
    19  C    0.393432   0.002991   0.000415   0.003141  -0.000448   0.000364
    20  H   -0.000194  -0.000154  -0.000124   0.000243  -0.000008   0.000000
    21  H   -0.000095   0.000237  -0.000175   0.000792  -0.000005   0.000000
    22  H   -0.000165  -0.000140  -0.000092  -0.000128  -0.000003   0.000000
    23  H   -0.015108   0.000139   0.000262  -0.000136  -0.000006  -0.000003
    24  H   -0.020825  -0.000166  -0.000123  -0.000089  -0.000009  -0.000001
    25  H    0.512517   0.000270   0.000789  -0.000190   0.000414   0.000054
    26  H    0.000270   0.526155  -0.019727  -0.018277   0.000053   0.000000
    27  H    0.000789  -0.019727   0.518267  -0.017989   0.000908  -0.000010
    28  H   -0.000190  -0.018277  -0.017989   0.514761   0.000011   0.000000
    29  H    0.000414   0.000053   0.000908   0.000011   0.489167  -0.019423
    30  H    0.000054   0.000000  -0.000010   0.000000  -0.019423   0.504783
    31  H    0.000022   0.000000   0.000012  -0.000001  -0.024062  -0.023448
    32  H    0.000019   0.000000   0.000000   0.000000  -0.000096   0.000592
    33  H   -0.000007   0.000000   0.000000   0.000000   0.000406  -0.003884
    34  H    0.000000   0.000000   0.000000   0.000000   0.000001  -0.000032
    35  H    0.000000   0.000000   0.000000   0.000000  -0.000003   0.000068
    36  H    0.000000   0.000000   0.000000   0.000000   0.000000   0.000011
    37  C    0.000008   0.000004   0.000088   0.000022  -0.008061   0.000254
    38  C   -0.000009  -0.000004   0.000014  -0.000125  -0.000133   0.000053
    39  C    0.000000   0.000001  -0.000001   0.000011   0.000040   0.000000
    40  H    0.000001   0.000000  -0.000001   0.000002  -0.000061  -0.000036
    41  H    0.000001   0.000002  -0.000003  -0.000019   0.000640   0.000416
    42  H   -0.000003   0.000015  -0.000007   0.000558   0.000003   0.000001
    43  H    0.000000   0.000000   0.000000  -0.000001   0.000000   0.000000
    44  H    0.000000   0.000000   0.000000   0.000000   0.000001   0.000000
              31         32         33         34         35         36
     1  C   -0.008570  -0.032730  -0.062654  -0.018131   0.001012   0.014319
     2  C   -0.021578  -0.005200   0.001123  -0.000033   0.001475  -0.000956
     3  C   -0.027884  -0.002461  -0.001021  -0.000246  -0.000194   0.000062
     4  C   -0.001057   0.000868   0.000763   0.000697   0.000068   0.000020
     5  C    0.000256  -0.001148   0.000264   0.001263  -0.000250   0.000005
     6  H    0.004049   0.006293   0.001471   0.001264   0.001615  -0.000202
     7  H    0.007562   0.002126   0.000321   0.000078  -0.000076  -0.000002
     8  H    0.000018   0.000055  -0.000032  -0.000018  -0.000001  -0.000001
     9  H   -0.000006   0.000007  -0.000001  -0.000005   0.000000   0.000000
    10  O    0.000083   0.000060   0.005128   0.008460  -0.000904   0.000233
    11  O    0.000001  -0.000102   0.000011   0.000365   0.000003   0.000003
    12  C   -0.002321   0.415785   0.433274  -0.036243  -0.044908  -0.053244
    13  C   -0.000039  -0.035782  -0.036666   0.421120   0.409773   0.422383
    14  C    0.416504  -0.000708  -0.001012  -0.000067  -0.000103   0.000015
    15  O    0.000645  -0.000005  -0.000031   0.000000   0.000000   0.000000
    16  Si   0.000160  -0.000004  -0.000022   0.000000   0.000000   0.000000
    17  C    0.000005   0.000000   0.000001   0.000000   0.000000   0.000000
    18  C    0.000006   0.000000   0.000000   0.000000   0.000000   0.000000
    19  C   -0.000026  -0.000007   0.000014   0.000000   0.000000   0.000000
    20  H    0.000000   0.000000   0.000000   0.000000   0.000000   0.000000
    21  H    0.000000   0.000000   0.000000   0.000000   0.000000   0.000000
    22  H    0.000000   0.000000   0.000000   0.000000   0.000000   0.000000
    23  H    0.000001   0.000000   0.000000   0.000000   0.000000   0.000000
    24  H   -0.000005   0.000028   0.000000   0.000000   0.000000   0.000000
    25  H    0.000022   0.000019  -0.000007   0.000000   0.000000   0.000000
    26  H    0.000000   0.000000   0.000000   0.000000   0.000000   0.000000
    27  H    0.000012   0.000000   0.000000   0.000000   0.000000   0.000000
    28  H   -0.000001   0.000000   0.000000   0.000000   0.000000   0.000000
    29  H   -0.024062  -0.000096   0.000406   0.000001  -0.000003   0.000000
    30  H   -0.023448   0.000592  -0.003884  -0.000032   0.000068   0.000011
    31  H    0.508511   0.000138  -0.000323   0.000004   0.000038  -0.000005
    32  H    0.000138   0.526506  -0.024056  -0.003309   0.006244  -0.003969
    33  H   -0.000323  -0.024056   0.543232   0.006608  -0.003924  -0.004489
    34  H    0.000004  -0.003309   0.006608   0.509342  -0.025941  -0.023341
    35  H    0.000038   0.006244  -0.003924  -0.025941   0.538997  -0.024404
    36  H   -0.000005  -0.003969  -0.004489  -0.023341  -0.024404   0.523755
    37  C    0.009835   0.000091   0.000056  -0.000004   0.000015   0.000002
    38  C   -0.000175  -0.000003   0.000005   0.000000   0.000000   0.000000
    39  C   -0.000026   0.000001   0.000000   0.000000   0.000000   0.000000
    40  H    0.000300  -0.000070  -0.000053  -0.000014   0.000001   0.000003
    41  H   -0.006460  -0.000005  -0.000009   0.000001   0.000000   0.000000
    42  H    0.000024   0.000000   0.000000   0.000000   0.000000   0.000000
    43  H    0.000000   0.000000   0.000000   0.000000   0.000000   0.000000
    44  H    0.000001   0.000000   0.000000   0.000000   0.000000   0.000000
              37         38         39         40         41         42
     1  C    0.013892  -0.004318   0.000720   0.007277  -0.008091   0.000000
     2  C   -0.051290   0.012196  -0.000928  -0.024245   0.010887  -0.000389
     3  C    0.156077  -0.030369  -0.008744  -0.008530  -0.076957   0.004598
     4  C   -0.049655  -0.001285   0.000096  -0.013492   0.005882  -0.002762
     5  C    0.001943   0.000528   0.000324   0.000650   0.000088   0.000437
     6  H    0.011182  -0.000458   0.000210  -0.009277  -0.000285  -0.000010
     7  H    0.012548  -0.000791  -0.000006  -0.000368  -0.000650   0.000008
     8  H    0.006677   0.000331   0.000142  -0.000192  -0.000149  -0.000092
     9  H   -0.007601   0.000289  -0.000946   0.000947  -0.000057   0.001213
    10  O   -0.008305   0.000794  -0.000348   0.004921   0.000186   0.000009
    11  O    0.003476  -0.001561   0.000716  -0.000978  -0.000021   0.000022
    12  C   -0.000101   0.000020   0.000006   0.001299   0.000028   0.000005
    13  C   -0.000229  -0.000012  -0.000001   0.000129  -0.000005   0.000000
    14  C   -0.002319  -0.000249  -0.000117   0.002296  -0.003372   0.000109
    15  O   -0.096534   0.012710   0.002978   0.004042   0.001452   0.002995
    16  Si   0.010743   0.000946  -0.000109  -0.000239  -0.000875  -0.001155
    17  C   -0.000395  -0.000085  -0.000010   0.000006  -0.000035  -0.000116
    18  C    0.000418  -0.002303   0.000151   0.000028   0.000045   0.000025
    19  C   -0.001342   0.000318   0.000017   0.000033   0.000071   0.000182
    20  H   -0.000051   0.000083  -0.000004   0.000000   0.000000  -0.000007
    21  H   -0.000114  -0.000262   0.000115   0.000002   0.000002   0.000953
    22  H    0.000009   0.000086   0.000070  -0.000007   0.000000  -0.000075
    23  H    0.000026  -0.000004   0.000000   0.000000  -0.000001  -0.000003
    24  H   -0.000018   0.000000   0.000000  -0.000003  -0.000002  -0.000008
    25  H    0.000008  -0.000009   0.000000   0.000001   0.000001  -0.000003
    26  H    0.000004  -0.000004   0.000001   0.000000   0.000002   0.000015
    27  H    0.000088   0.000014  -0.000001  -0.000001  -0.000003  -0.000007
    28  H    0.000022  -0.000125   0.000011   0.000002  -0.000019   0.000558
    29  H   -0.008061  -0.000133   0.000040  -0.000061   0.000640   0.000003
    30  H    0.000254   0.000053   0.000000  -0.000036   0.000416   0.000001
    31  H    0.009835  -0.000175  -0.000026   0.000300  -0.006460   0.000024
    32  H    0.000091  -0.000003   0.000001  -0.000070  -0.000005   0.000000
    33  H    0.000056   0.000005   0.000000  -0.000053  -0.000009   0.000000
    34  H   -0.000004   0.000000   0.000000  -0.000014   0.000001   0.000000
    35  H    0.000015   0.000000   0.000000   0.000001   0.000000   0.000000
    36  H    0.000002   0.000000   0.000000   0.000003   0.000000   0.000000
    37  C    5.373166   0.213899  -0.039850   0.416603   0.443576  -0.039512
    38  C    0.213899   5.202953   0.524612  -0.042536  -0.031294   0.409335
    39  C   -0.039850   0.524612   5.007843   0.003188  -0.004724  -0.026642
    40  H    0.416603  -0.042536   0.003188   0.473835  -0.012124   0.002844
    41  H    0.443576  -0.031294  -0.004724  -0.012124   0.493556   0.000321
    42  H   -0.039512   0.409335  -0.026642   0.002844   0.000321   0.489423
    43  H    0.006406  -0.054517   0.427364   0.000195  -0.000342  -0.005947
    44  H    0.008074  -0.065077   0.430532  -0.001113   0.000679   0.003837
              43         44
     1  C    0.000004  -0.000014
     2  C    0.000022   0.000129
     3  C   -0.000160  -0.002356
     4  C   -0.000025   0.000227
     5  C    0.000020  -0.000059
     6  H    0.000000   0.000060
     7  H    0.000000   0.000003
     8  H    0.000000  -0.000018
     9  H    0.000020   0.000201
    10  O   -0.000002  -0.000057
    11  O    0.000008   0.000097
    12  C    0.000000   0.000004
    13  C    0.000000  -0.000001
    14  C    0.000001  -0.000007
    15  O    0.000018  -0.000026
    16  Si   0.000004   0.000008
    17  C    0.000001   0.000000
    18  C   -0.000004  -0.000003
    19  C    0.000000   0.000000
    20  H    0.000000   0.000000
    21  H   -0.000001   0.000004
    22  H   -0.000001   0.000000
    23  H    0.000000   0.000000
    24  H    0.000000   0.000000
    25  H    0.000000   0.000000
    26  H    0.000000   0.000000
    27  H    0.000000   0.000000
    28  H   -0.000001   0.000000
    29  H    0.000000   0.000001
    30  H    0.000000   0.000000
    31  H    0.000000   0.000001
    32  H    0.000000   0.000000
    33  H    0.000000   0.000000
    34  H    0.000000   0.000000
    35  H    0.000000   0.000000
    36  H    0.000000   0.000000
    37  C    0.006406   0.008074
    38  C   -0.054517  -0.065077
    39  C    0.427364   0.430532
    40  H    0.000195  -0.001113
    41  H   -0.000342   0.000679
    42  H   -0.005947   0.003837
    43  H    0.503193  -0.023224
    44  H   -0.023224   0.504090
 Mulliken charges:
               1
     1  C   -0.036679
     2  C   -0.188382
     3  C    0.286960
     4  C   -0.460595
     5  C    0.344300
     6  H    0.185976
     7  H    0.189892
     8  H    0.200560
     9  H    0.218601
    10  O   -0.243938
    11  O   -0.371128
    12  C   -0.251934
    13  C   -0.441677
    14  C   -0.494719
    15  O   -0.398371
    16  Si   0.457018
    17  C   -0.570660
    18  C   -0.553335
    19  C   -0.581117
    20  H    0.163503
    21  H    0.165513
    22  H    0.163827
    23  H    0.172547
    24  H    0.164555
    25  H    0.166897
    26  H    0.154465
    27  H    0.156145
    28  H    0.158740
    29  H    0.172572
    30  H    0.167729
    31  H    0.167812
    32  H    0.150844
    33  H    0.145506
    34  H    0.158179
    35  H    0.141399
    36  H    0.149804
    37  C   -0.383707
    38  C   -0.143600
    39  C   -0.316681
    40  H    0.194740
    41  H    0.187649
    42  H    0.159812
    43  H    0.146968
    44  H    0.144010
 Sum of Mulliken charges =   0.00000
 Mulliken charges with hydrogens summed into heavy atoms:
               1
     1  C    0.149297
     2  C    0.001510
     3  C    0.286960
     4  C   -0.041433
     5  C    0.344300
    10  O   -0.243938
    11  O   -0.371128
    12  C    0.044416
    13  C    0.007706
    14  C    0.013395
    15  O   -0.398371
    16  Si   0.457018
    17  C   -0.101310
    18  C   -0.060494
    19  C   -0.077119
    37  C   -0.001319
    38  C    0.016212
    39  C   -0.025703
 Electronic spatial extent (au):  <R**2>=           5549.4821
 Charge=              0.0000 electrons
 Dipole moment (field-independent basis, Debye):
    X=              2.2567    Y=             -4.0845    Z=             -3.0292  Tot=              5.5634
 Quadrupole moment (field-independent basis, Debye-Ang):
   XX=           -120.6730   YY=           -121.3059   ZZ=           -128.0734
   XY=              7.9497   XZ=             12.9291   YZ=             -7.2045
 Traceless Quadrupole moment (field-independent basis, Debye-Ang):
   XX=              2.6778   YY=              2.0448   ZZ=             -4.7226
   XY=              7.9497   XZ=             12.9291   YZ=             -7.2045
 Octapole moment (field-independent basis, Debye-Ang**2):
  XXX=             15.8852  YYY=             -3.2102  ZZZ=            -10.3581  XYY=              5.5985
  XXY=            -25.2905  XXZ=            -16.2030  XZZ=             10.8199  YZZ=            -26.6800
  YYZ=            -14.1314  XYZ=             11.9648
 Hexadecapole moment (field-independent basis, Debye-Ang**3):
 XXXX=          -4326.0637 YYYY=          -2063.0605 ZZZZ=          -1225.9991 XXXY=             38.4164
 XXXZ=             73.1373 YYYX=             37.8632 YYYZ=              1.6063 ZZZX=             32.2723
 ZZZY=            -11.0920 XXYY=          -1057.0688 XXZZ=           -958.9494 YYZZ=           -617.1381
 XXYZ=            -58.7246 YYXZ=             25.7555 ZZXY=             29.5528
 N-N= 1.622791192157D+03 E-N=-5.738678033848D+03  KE= 1.059318130880D+03
 1\1\GINC-CPU-E-118\SP\RM062X\def2TZVP\C14H26O3Si1\KE291\26-Jun-2019\0\
 \# m062x/def2tzvp int=ultrafine scrf=(solvent=chloroform)\\IP1_2ginp01
 8\\0,1\C,0,-2.313998,-0.552404,-0.369095\C,0,-0.840825,-0.935031,-0.59
 067\C,0,0.097988,0.290148,-0.398469\C,0,-0.130545,0.811491,1.02709\C,0
 ,-1.581536,1.071038,1.381537\H,0,-2.674791,0.000141,-1.246345\H,0,-0.5
 58266,-1.648618,0.195155\H,0,0.223982,0.066591,1.749808\H,0,0.419544,1
 .735372,1.213401\O,0,-2.536917,0.350884,0.759485\O,0,-1.914128,1.85936
 3,2.241741\C,0,-3.23386,-1.751649,-0.126581\C,0,-4.713886,-1.378203,0.
 000131\C,0,-0.659989,-1.630908,-1.948787\O,0,1.449724,-0.11427,-0.5971
 13\Si,0,2.676561,-0.786732,0.338523\C,0,3.983534,-1.259518,-0.928856\C
 ,0,3.379736,0.479713,1.547107\C,0,2.109621,-2.325308,1.276576\H,0,4.27
 0915,0.074127,2.04035\H,0,3.677269,1.395936,1.026144\H,0,2.66777,0.756
 392,2.330905\H,0,2.965619,-2.771753,1.796404\H,0,1.348739,-2.111051,2.
 034382\H,0,1.705147,-3.083219,0.597392\H,0,4.863876,-1.690941,-0.43948
 4\H,0,3.597467,-1.999709,-1.637392\H,0,4.3138,-0.387066,-1.502116\H,0,
 0.403314,-1.740304,-2.170908\H,0,-1.107538,-2.627709,-1.946213\H,0,-1.
 120843,-1.063138,-2.763695\H,0,-2.89367,-2.267616,0.780083\H,0,-3.1050
 97,-2.45357,-0.957106\H,0,-4.878964,-0.696844,0.838202\H,0,-5.075972,-
 0.8873,-0.910205\H,0,-5.32356,-2.272247,0.161621\C,0,-0.172125,1.40783
 5,-1.442443\C,0,0.738933,2.598166,-1.313391\C,0,0.330335,3.850138,-1.1
 00351\H,0,-1.214432,1.738291,-1.372042\H,0,-0.038804,0.963423,-2.43600
 8\H,0,1.802427,2.391036,-1.415229\H,0,1.033738,4.674742,-1.029252\H,0,
 -0.723259,4.098427,-0.992872\\Version=ES64L-G09RevD.01\State=1-A\HF=-1
 064.3410013\RMSD=1.419e-09\Dipole=0.8878695,-1.6069524,-1.1917609\Quad
 rupole=1.9908677,1.5202698,-3.5111375,5.9103934,9.6124898,-5.3563989\P
 G=C01 [X(C14H26O3Si1)]\\@



 IN THIS SHORT LIFE

 THAT ONLY LASTS AN HOUR

 HOW MUCH, HOW LITTLE, IS WITHIN OUR POWER....


 EMILY DICKINSON BOLTS OF MELODY NO. 521
 Job cpu time:       0 days  2 hours 21 minutes 51.6 seconds.
 File lengths (MBytes):  RWF=    416 Int=      0 D2E=      0 Chk=     21 Scr=      1
 Normal termination of Gaussian 09 at Wed Jun 26 13:54:39 2019.
