 Entering Gaussian System, Link 0=/usr/local/Cluster-Apps/gaussian/g09/g09
 Initial command:
 /usr/local/Cluster-Apps/gaussian/g09/l1.exe "/home/ke291/rds/hpc-work/26Jun1304IP1NMR/Gau-429769.inp" -scrdir="/home/ke291/rds/hpc-work/26Jun1304IP1NMR/"
 Entering Link 1 = /usr/local/Cluster-Apps/gaussian/g09/l1.exe PID=    429794.
  
 Copyright (c) 1988,1990,1992,1993,1995,1998,2003,2009,2013,
            Gaussian, Inc.  All Rights Reserved.
  
 This is part of the Gaussian(R) 09 program.  It is based on
 the Gaussian(R) 03 system (copyright 2003, Gaussian, Inc.),
 the Gaussian(R) 98 system (copyright 1998, Gaussian, Inc.),
 the Gaussian(R) 94 system (copyright 1995, Gaussian, Inc.),
 the Gaussian 92(TM) system (copyright 1992, Gaussian, Inc.),
 the Gaussian 90(TM) system (copyright 1990, Gaussian, Inc.),
 the Gaussian 88(TM) system (copyright 1988, Gaussian, Inc.),
 the Gaussian 86(TM) system (copyright 1986, Carnegie Mellon
 University), and the Gaussian 82(TM) system (copyright 1983,
 Carnegie Mellon University). Gaussian is a federally registered
 trademark of Gaussian, Inc.
  
 This software contains proprietary and confidential information,
 including trade secrets, belonging to Gaussian, Inc.
  
 This software is provided under written license and may be
 used, copied, transmitted, or stored only in accord with that
 written license.
  
 The following legend is applicable only to US Government
 contracts under FAR:
  
                    RESTRICTED RIGHTS LEGEND
  
 Use, reproduction and disclosure by the US Government is
 subject to restrictions as set forth in subparagraphs (a)
 and (c) of the Commercial Computer Software - Restricted
 Rights clause in FAR 52.227-19.
  
 Gaussian, Inc.
 340 Quinnipiac St., Bldg. 40, Wallingford CT 06492
  
  
 ---------------------------------------------------------------
 Warning -- This program may not be used in any manner that
 competes with the business of Gaussian, Inc. or will provide
 assistance to any competitor of Gaussian, Inc.  The licensee
 of this program is prohibited from giving any competitor of
 Gaussian, Inc. access to this program.  By using this program,
 the user acknowledges that Gaussian, Inc. is engaged in the
 business of creating and licensing software in the field of
 computational chemistry and represents and warrants to the
 licensee that it is not a competitor of Gaussian, Inc. and that
 it will not use this program in any manner prohibited above.
 ---------------------------------------------------------------
  

 Cite this work as:
 Gaussian 09, Revision D.01,
 M. J. Frisch, G. W. Trucks, H. B. Schlegel, G. E. Scuseria, 
 M. A. Robb, J. R. Cheeseman, G. Scalmani, V. Barone, B. Mennucci, 
 G. A. Petersson, H. Nakatsuji, M. Caricato, X. Li, H. P. Hratchian, 
 A. F. Izmaylov, J. Bloino, G. Zheng, J. L. Sonnenberg, M. Hada, 
 M. Ehara, K. Toyota, R. Fukuda, J. Hasegawa, M. Ishida, T. Nakajima, 
 Y. Honda, O. Kitao, H. Nakai, T. Vreven, J. A. Montgomery, Jr., 
 J. E. Peralta, F. Ogliaro, M. Bearpark, J. J. Heyd, E. Brothers, 
 K. N. Kudin, V. N. Staroverov, T. Keith, R. Kobayashi, J. Normand, 
 K. Raghavachari, A. Rendell, J. C. Burant, S. S. Iyengar, J. Tomasi, 
 M. Cossi, N. Rega, J. M. Millam, M. Klene, J. E. Knox, J. B. Cross, 
 V. Bakken, C. Adamo, J. Jaramillo, R. Gomperts, R. E. Stratmann, 
 O. Yazyev, A. J. Austin, R. Cammi, C. Pomelli, J. W. Ochterski, 
 R. L. Martin, K. Morokuma, V. G. Zakrzewski, G. A. Voth, 
 P. Salvador, J. J. Dannenberg, S. Dapprich, A. D. Daniels, 
 O. Farkas, J. B. Foresman, J. V. Ortiz, J. Cioslowski, 
 and D. J. Fox, Gaussian, Inc., Wallingford CT, 2013.
 
 ******************************************
 Gaussian 09:  ES64L-G09RevD.01 24-Apr-2013
                26-Jun-2019 
 ******************************************
 %nprocshared=4
 Will use up to    4 processors via shared memory.
 %mem=6000MB
 %chk=IP1_3ginp009.chk
 --------------------------------------------------------
 # m062x/def2tzvp int=ultrafine scrf=(solvent=chloroform)
 --------------------------------------------------------
 1/38=1/1;
 2/12=2,17=6,18=5,40=1/2;
 3/5=44,7=101,11=2,16=1,25=1,30=1,70=2201,72=7,74=-55,75=-5/1,2,3;
 4//1;
 5/5=2,38=5,53=7/2;
 6/7=2,8=2,9=2,10=2,28=1/1;
 99/5=1,9=1/99;
 ------------
 IP1_3ginp009
 ------------
 Symbolic Z-matrix:
 Charge =  0 Multiplicity = 1
 C                    -2.27008   0.4717   -0.50849 
 C                    -0.98035   1.19092  -0.96645 
 C                     0.25729   0.77843  -0.13192 
 C                    -0.07582   1.05793   1.34065 
 C                    -1.41064   0.52989   1.81968 
 H                    -3.11263   1.0831   -0.85385 
 H                    -1.1442    2.25248  -0.74013 
 H                     0.69223   0.661     2.00605 
 H                    -0.09887   2.14347   1.49905 
 O                    -2.43505   0.47197   0.94465 
 O                    -1.61842   0.245     2.98197 
 C                    -2.50459  -0.96356  -0.99644 
 C                    -3.89296  -1.49483  -0.62479 
 C                    -0.78466   1.06295  -2.48341 
 O                     0.46383  -0.62102  -0.32436 
 Si                    1.69529  -1.72183   0.01001 
 C                     0.84835  -3.39528  -0.13285 
 C                     3.07898  -1.60231  -1.26842 
 C                     2.41187  -1.51416   1.74453 
 H                     3.6369   -0.66335  -1.1996 
 H                     3.79236  -2.42169  -1.12082 
 H                     2.68506  -1.68675  -2.28694 
 H                     1.63551  -1.58319   2.51365 
 H                     3.13563  -2.31581   1.93423 
 H                     2.93991  -0.56406   1.87778 
 H                     0.05777  -3.50446   0.61674 
 H                     0.39539  -3.52828  -1.12085 
 H                     1.56739  -4.2084    0.01738 
 H                    -0.0557    1.79071  -2.84943 
 H                    -0.43193   0.0656   -2.75581 
 H                    -1.7233    1.25156  -3.01453 
 H                    -1.72326  -1.60987  -0.59134 
 H                    -2.39185  -0.97616  -2.0857 
 H                    -4.0289   -2.51405  -0.9996 
 H                    -4.03205  -1.5106    0.45921 
 H                    -4.68661  -0.8732   -1.05583 
 C                     1.53954   1.55853  -0.54141 
 C                     1.42827   3.05984  -0.53963 
 C                     2.06177   3.86807   0.31284 
 H                     1.82704   1.21119  -1.54027 
 H                     2.34187   1.26012   0.14348 
 H                     0.79255   3.50373  -1.30522 
 H                     1.95426   4.94744   0.26165 
 H                     2.71673   3.47899   1.08909 
 
                          Input orientation:                          
 ---------------------------------------------------------------------
 Center     Atomic      Atomic             Coordinates (Angstroms)
 Number     Number       Type             X           Y           Z
 ---------------------------------------------------------------------
      1          6           0       -2.270076    0.471703   -0.508490
      2          6           0       -0.980353    1.190916   -0.966451
      3          6           0        0.257286    0.778432   -0.131918
      4          6           0       -0.075824    1.057927    1.340651
      5          6           0       -1.410637    0.529886    1.819683
      6          1           0       -3.112626    1.083097   -0.853848
      7          1           0       -1.144195    2.252478   -0.740132
      8          1           0        0.692227    0.661004    2.006051
      9          1           0       -0.098874    2.143466    1.499054
     10          8           0       -2.435053    0.471966    0.944652
     11          8           0       -1.618420    0.245000    2.981968
     12          6           0       -2.504585   -0.963563   -0.996435
     13          6           0       -3.892955   -1.494834   -0.624794
     14          6           0       -0.784662    1.062951   -2.483411
     15          8           0        0.463830   -0.621024   -0.324357
     16         14           0        1.695290   -1.721831    0.010007
     17          6           0        0.848348   -3.395284   -0.132848
     18          6           0        3.078975   -1.602310   -1.268419
     19          6           0        2.411869   -1.514157    1.744528
     20          1           0        3.636900   -0.663354   -1.199602
     21          1           0        3.792357   -2.421689   -1.120819
     22          1           0        2.685056   -1.686747   -2.286938
     23          1           0        1.635506   -1.583188    2.513645
     24          1           0        3.135633   -2.315813    1.934234
     25          1           0        2.939905   -0.564063    1.877776
     26          1           0        0.057765   -3.504460    0.616737
     27          1           0        0.395393   -3.528283   -1.120847
     28          1           0        1.567390   -4.208396    0.017382
     29          1           0       -0.055704    1.790708   -2.849432
     30          1           0       -0.431926    0.065602   -2.755808
     31          1           0       -1.723297    1.251556   -3.014532
     32          1           0       -1.723261   -1.609874   -0.591344
     33          1           0       -2.391847   -0.976161   -2.085703
     34          1           0       -4.028897   -2.514047   -0.999600
     35          1           0       -4.032049   -1.510596    0.459207
     36          1           0       -4.686613   -0.873200   -1.055825
     37          6           0        1.539540    1.558528   -0.541407
     38          6           0        1.428267    3.059838   -0.539628
     39          6           0        2.061772    3.868065    0.312843
     40          1           0        1.827036    1.211192   -1.540271
     41          1           0        2.341865    1.260124    0.143479
     42          1           0        0.792554    3.503726   -1.305219
     43          1           0        1.954262    4.947444    0.261647
     44          1           0        2.716730    3.478987    1.089087
 ---------------------------------------------------------------------
                    Distance matrix (angstroms):
                    1          2          3          4          5
     1  C    0.000000
     2  C    1.546086   0.000000
     3  C    2.573606   1.548657   0.000000
     4  C    2.928775   2.481648   1.535428   0.000000
     5  C    2.482420   2.895626   2.579242   1.513283   0.000000
     6  H    1.096798   2.137965   3.459814   3.746815   3.217231
     7  H    2.119534   1.097715   2.122943   2.626409   3.096929
     8  H    3.890243   3.451681   2.184920   1.090966   2.115174
     9  H    3.396931   2.786229   2.156441   1.097277   2.104083
    10  O    1.462477   2.507061   2.915753   2.462951   1.348504
    11  O    3.557998   4.109976   3.674113   2.394655   1.214595
    12  C    1.533973   2.639311   3.377850   3.930302   3.370109
    13  C    2.552358   3.976586   4.757643   4.995003   4.029499
    14  C    2.540933   1.534874   2.587687   3.889206   4.380938
    15  O    2.949949   2.404387   1.427645   2.425357   3.071665
    16  Si   4.561201   4.073896   2.887787   3.554506   4.241691
    17  C    4.981894   5.007222   4.215360   4.780835   4.931769
    18  C    5.787173   4.936744   3.862835   4.882301   5.851431
    19  C    5.562404   5.116053   3.663228   3.601021   4.335356
    20  H    6.054614   4.981135   3.826289   4.816639   6.001461
    21  H    6.745351   5.987780   4.869849   5.755813   6.665545
    22  H    5.689914   4.843537   4.076185   5.321193   6.209066
    23  H    5.348780   5.162310   3.804700   3.358579   3.771691
    24  H    6.554299   6.136160   4.704064   4.695521   5.364671
    25  H    5.823313   5.151505   3.610763   3.466118   4.486348
    26  H    4.742874   5.062680   4.352408   4.621393   4.458613
    27  H    4.845575   4.918064   4.420956   5.226312   5.327025
    28  H    6.075032   6.050743   5.158209   5.673213   5.879477
    29  H    3.481842   2.181821   2.916770   4.253724   5.022564
    30  H    2.931578   2.183782   2.804985   4.229952   4.701973
    31  H    2.680930   2.179513   3.529309   4.660395   4.897775
    32  H    2.153795   2.921822   3.136502   3.682909   3.238728
    33  H    2.144467   2.818025   3.730118   4.608837   4.299185
    34  H    3.499906   4.798069   5.473998   5.819155   4.906034
    35  H    2.823207   4.317814   4.897701   4.798538   3.589744
    36  H    2.819218   4.243221   5.293735   5.543620   4.579216
    37  C    3.961748   2.581794   1.555766   2.530246   3.916171
    38  C    4.514106   3.078392   2.596582   3.131355   4.475085
    39  C    5.565498   4.249499   3.605526   3.677306   5.046943
    40  H    4.289259   2.865504   2.152871   3.456021   4.715506
    41  H    4.724052   3.503408   2.157160   2.705425   4.174228
    42  H    4.382653   2.933778   3.015025   3.706297   4.843840
    43  H    6.202451   4.922570   4.518327   4.518168   5.767568
    44  H    6.038563   4.809254   3.851326   3.704480   5.125049
                    6          7          8          9         10
     6  H    0.000000
     7  H    2.292401   0.000000
     8  H    4.778503   3.666982   0.000000
     9  H    3.967774   2.473567   1.755158   0.000000
    10  O    2.016727   2.770385   3.307897   2.925578   0.000000
    11  O    4.201017   4.255454   2.542550   2.848197   2.206595
    12  C    2.139828   3.501324   4.676938   4.654948   2.415243
    13  C    2.703166   4.648799   5.709017   5.669480   2.908082
    14  C    2.841707   2.140855   4.743209   4.183043   3.850282
    15  O    3.996927   3.318980   2.669562   3.359147   3.347915
    16  Si   5.632932   4.941712   3.266226   4.514068   4.769281
    17  C    6.022047   6.019654   4.588326   5.851332   5.186266
    18  C    6.761598   5.742268   4.641262   5.638126   6.293235
    19  C    6.634556   5.745143   2.785119   4.443230   5.298787
    20  H    6.980382   5.618902   4.549861   5.396016   6.538761
    21  H    7.748135   6.808987   5.375046   6.545690   7.170777
    22  H    6.583229   5.707299   5.283281   6.062552   6.427965
    23  H    6.402643   5.746837   2.486730   4.233842   4.822328
    24  H    7.639812   6.807235   3.851861   5.525992   6.307418
    25  H    6.841640   5.609476   2.563065   4.087581   5.552860
    26  H    5.767120   6.035573   4.436646   5.718574   4.704640
    27  H    5.800199   5.994370   5.236003   6.267130   5.317866
    28  H    7.117689   7.047653   5.332145   6.731860   6.227774
    29  H    3.718581   2.418096   5.040967   4.362984   4.668560
    30  H    3.440770   3.058219   4.928846   4.746819   4.227417
    31  H    2.574329   2.551490   5.602657   4.879212   4.097499
    32  H    3.041601   3.908352   4.211642   4.593034   2.683280
    33  H    2.505500   3.713665   5.379059   5.276389   3.358867
    34  H    3.714868   5.577507   6.434586   6.586409   3.903425
    35  H    3.049048   4.892733   5.424699   5.468392   2.591641
    36  H    2.518993   4.734791   6.376581   6.055991   3.298621
    37  C    4.686822   2.779117   2.830730   2.681424   4.380226
    38  C    4.962454   2.703626   3.574443   2.707050   4.881128
    39  C    5.990961   3.741270   3.876577   3.008277   5.670459
    40  H    4.988772   3.248494   3.763894   3.716956   4.988657
    41  H    5.547745   3.730704   2.559184   2.928324   4.907343
    42  H    4.616667   2.374014   4.365277   3.241743   4.966985
    43  H    6.469224   4.226918   4.796795   3.689016   6.305750
    44  H    6.595201   4.444897   3.588936   3.143138   5.966901
                   11         12         13         14         15
    11  O    0.000000
    12  C    4.251306   0.000000
    13  C    4.605352   1.532298   0.000000
    14  C    5.588789   3.045651   4.433758   0.000000
    15  O    4.002193   3.062762   4.453693   3.009322   0.000000
    16  Si   4.866380   4.384843   5.628764   4.485789   1.685250
    17  C    5.388756   4.230982   5.131635   5.297898   2.807320
    18  C    6.598777   5.626554   7.002400   4.848455   2.948416
    19  C    4.568273   5.655754   6.735345   5.893621   2.978729
    20  H    6.777095   6.152174   7.597400   4.917164   3.291841
    21  H    7.295245   6.464757   7.756876   5.911724   3.867278
    22  H    7.071982   5.396366   6.787472   4.431522   3.149815
    23  H    3.761600   5.463053   6.357789   6.150596   3.217583
    24  H    5.500594   6.498420   7.524871   6.804436   3.887425
    25  H    4.759427   6.169535   7.336018   5.961504   3.314149
    26  H    4.739448   3.952736   4.603063   5.584071   3.060188
    27  H    5.926736   3.873389   4.771888   4.932397   3.015167
    28  H    6.226628   5.304502   6.131164   6.290724   3.768802
    29  H    6.231895   4.125121   5.519809   1.093152   3.530208
    30  H    5.861913   2.906973   4.353723   1.092395   2.680632
    31  H    6.081296   3.096753   4.238033   1.094850   3.940447
    32  H    4.027420   1.091917   2.172999   3.406593   2.415051
    33  H    5.269792   1.095159   2.157916   2.626631   3.373923
    34  H    5.410695   2.174290   1.094420   5.051898   4.921797
    35  H    3.907946   2.179744   1.093002   5.082093   4.649542
    36  H    5.193068   2.184706   1.096408   4.583874   5.208234
    37  C    4.910421   4.787791   6.232333   3.069021   2.440227
    38  C    5.441255   5.644799   7.004834   3.558498   3.811197
    39  C    5.813316   6.775725   8.068372   4.877488   4.807428
    40  H    5.766744   4.877321   6.393667   2.780729   2.587237
    41  H    4.977083   5.452730   6.859520   4.088349   2.699001
    42  H    5.900175   5.560858   6.884953   3.135782   4.252495
    43  H    6.502091   7.510266   8.745208   5.488746   5.794189
    44  H    5.730200   7.165737   8.447735   5.555152   4.887072
                   16         17         18         19         20
    16  Si   0.000000
    17  C    1.881001   0.000000
    18  C    1.887655   3.078957   0.000000
    19  C    1.888168   3.083468   3.087175   0.000000
    20  H    2.520591   4.046903   1.094374   3.300374   0.000000
    21  H    2.483195   3.254407   1.096395   3.307503   1.766951
    22  H    2.501364   3.306463   1.095300   4.044396   1.770774
    23  H    2.508186   3.302610   4.048207   1.095009   4.317392
    24  H    2.475894   3.266460   3.281659   1.096574   3.578102
    25  H    2.525481   4.053768   3.315998   1.095105   3.156884
    26  H    2.495471   1.094906   4.037288   3.282533   4.917436
    27  H    2.496364   1.094988   3.306473   4.041442   4.326822
    28  H    2.489863   1.095784   3.275646   3.309849   4.281500
    29  H    4.855955   5.923821   4.882457   6.173777   4.730717
    30  H    3.920421   4.527334   4.161812   5.553002   4.416843
    31  H    5.447532   6.042399   5.852801   6.884578   5.974325
    32  H    3.472844   3.164029   4.849738   4.750238   5.476970
    33  H    4.653248   4.490508   5.566858   6.167317   6.101542
    34  H    5.866279   5.031437   7.171149   7.072021   7.888568
    35  H    5.748810   5.265060   7.318454   6.570855   7.891910
    36  H    6.525707   6.152121   7.802638   7.657757   8.327399
    37  C    3.330026   5.018458   3.590168   3.927830   3.125524
    38  C    4.820556   6.493872   4.999160   5.206368   4.379016
    39  C    5.610076   7.377484   5.784470   5.580377   5.030137
    40  H    3.320142   4.915108   3.091448   4.308069   2.627848
    41  H    3.054166   4.896915   3.275716   3.203887   2.679692
    42  H    5.463625   6.998136   5.594701   6.091165   5.046386
    43  H    6.679043   8.424950   6.819484   6.645346   6.037183
    44  H    5.408906   7.227695   5.613255   5.045199   4.821182
                   21         22         23         24         25
    21  H    0.000000
    22  H    1.768075   0.000000
    23  H    4.308645   4.915066   0.000000
    24  H    3.126635   4.291508   1.767155   0.000000
    25  H    3.628915   4.320904   1.773246   1.763555   0.000000
    26  H    4.258952   4.317183   3.127109   3.552739   4.306145
    27  H    3.572662   3.161262   4.304742   4.279313   4.924721
    28  H    3.072182   3.594132   3.623215   3.116982   4.315788
    29  H    5.961540   4.463279   6.557893   7.066230   6.071665
    30  H    5.167627   3.606403   5.895754   6.355715   5.765052
    31  H    6.892120   5.347578   7.062441   7.799077   6.998329
    32  H    5.600128   4.723792   4.574165   5.521390   5.379163
    33  H    6.423779   5.130338   6.143456   6.964739   6.656318
    34  H    7.822739   6.886133   6.730145   7.744493   7.787550
    35  H    8.034171   7.258915   6.028861   7.362048   7.177493
    36  H    8.619453   7.517912   7.294819   8.497595   8.177124
    37  C    4.610101   3.858872   4.383256   4.866912   3.509824
    38  C    5.997820   5.211783   5.560856   6.158954   4.611025
    39  C    6.679170   6.164680   5.894183   6.482471   4.781620
    40  H    4.151656   3.113159   4.927421   5.120974   4.009121
    41  H    4.154290   3.835200   3.768428   4.077278   2.587102
    42  H    6.644047   5.611270   6.416462   7.060532   5.593700
    43  H    7.719710   7.144357   6.915364   7.546396   5.827527
    44  H    6.392076   6.171171   5.368801   5.871070   4.125299
                   26         27         28         29         30
    26  H    0.000000
    27  H    1.770242   0.000000
    28  H    1.770232   1.769660   0.000000
    29  H    6.329771   5.610986   6.844144   0.000000
    30  H    4.935504   4.034051   5.473108   1.768134   0.000000
    31  H    6.243235   5.560733   7.059193   1.760344   1.772305
    32  H    2.867223   2.906779   4.236891   4.409497   3.026495
    33  H    4.438026   3.900382   5.526832   3.700866   2.318534
    34  H    4.504916   4.540674   5.934939   6.143212   4.762043
    35  H    4.552679   5.115650   6.231136   6.136532   5.077559
    36  H    5.677157   5.734150   7.168533   5.635490   4.676928
    37  C    5.401000   5.245996   5.794000   2.815260   3.319500
    38  C    6.804812   6.693876   7.290874   3.024575   4.163799
    39  C    7.646079   7.716103   8.096971   4.335793   5.485788
    40  H    5.479085   4.968716   5.644965   2.365259   2.809416
    41  H    5.304936   5.321289   5.524529   3.871353   4.186486
    42  H    7.304006   7.045628   7.862981   2.457349   3.927373
    43  H    8.669341   8.728076   9.167265   4.866596   6.215409
    44  H    7.487439   7.705469   7.846362   5.103784   6.028968
                   31         32         33         34         35
    31  H    0.000000
    32  H    3.749616   0.000000
    33  H    2.504477   1.755479   0.000000
    34  H    4.853402   2.510012   2.494924   0.000000
    35  H    5.002667   2.538507   3.074484   1.770605   0.000000
    36  H    4.139126   3.088671   2.517380   1.768652   1.769195
    37  C    4.105689   4.548311   4.925982   6.913993   6.439204
    38  C    4.396293   5.633916   5.768267   7.814116   7.190382
    39  C    5.678406   6.719512   7.003875   8.919087   8.129334
    40  H    3.844469   4.632870   4.783407   6.961443   6.762760
    41  H    5.147684   5.030120   5.690189   7.492503   6.957252
    42  H    3.784644   5.743505   5.551482   7.717084   7.178678
    43  H    6.157709   7.566385   7.712834   9.646905   8.808021
    44  H    6.443212   6.959445   7.484998   9.261887   8.416573
                   36         37         38         39         40
    36  H    0.000000
    37  C    6.703947   0.000000
    38  C    7.288827   1.505429   0.000000
    39  C    8.360236   2.517227   1.334641   0.000000
    40  H    6.856165   1.095913   2.139578   3.247785   0.000000
    41  H    7.442372   1.096284   2.130790   2.628401   1.761379
    42  H    7.017190   2.219277   1.089632   2.088488   2.526087
    43  H    8.928429   3.507370   2.117019   1.085927   4.150021
    44  H    8.851648   2.780728   2.118616   1.087615   3.584407
                   41         42         43         44
    41  H    0.000000
    42  H    3.087530   0.000000
    43  H    3.709519   2.426717   0.000000
    44  H    2.440912   3.071769   1.849968   0.000000
 Stoichiometry    C14H26O3Si
 Framework group  C1[X(C14H26O3Si)]
 Deg. of freedom   126
 Full point group                 C1      NOp   1
 Largest Abelian subgroup         C1      NOp   1
 Largest concise Abelian subgroup C1      NOp   1
                         Standard orientation:                         
 ---------------------------------------------------------------------
 Center     Atomic      Atomic             Coordinates (Angstroms)
 Number     Number       Type             X           Y           Z
 ---------------------------------------------------------------------
      1          6           0       -2.270076    0.471703   -0.508490
      2          6           0       -0.980353    1.190916   -0.966451
      3          6           0        0.257286    0.778432   -0.131918
      4          6           0       -0.075824    1.057927    1.340651
      5          6           0       -1.410637    0.529886    1.819683
      6          1           0       -3.112626    1.083097   -0.853848
      7          1           0       -1.144195    2.252478   -0.740132
      8          1           0        0.692227    0.661004    2.006051
      9          1           0       -0.098874    2.143466    1.499054
     10          8           0       -2.435053    0.471966    0.944652
     11          8           0       -1.618420    0.245000    2.981968
     12          6           0       -2.504585   -0.963563   -0.996435
     13          6           0       -3.892955   -1.494834   -0.624794
     14          6           0       -0.784662    1.062951   -2.483411
     15          8           0        0.463830   -0.621024   -0.324357
     16         14           0        1.695290   -1.721831    0.010007
     17          6           0        0.848348   -3.395284   -0.132848
     18          6           0        3.078975   -1.602310   -1.268419
     19          6           0        2.411869   -1.514157    1.744528
     20          1           0        3.636900   -0.663354   -1.199602
     21          1           0        3.792357   -2.421689   -1.120819
     22          1           0        2.685056   -1.686747   -2.286938
     23          1           0        1.635506   -1.583188    2.513645
     24          1           0        3.135633   -2.315813    1.934234
     25          1           0        2.939905   -0.564063    1.877776
     26          1           0        0.057765   -3.504460    0.616737
     27          1           0        0.395393   -3.528283   -1.120847
     28          1           0        1.567390   -4.208396    0.017382
     29          1           0       -0.055704    1.790708   -2.849432
     30          1           0       -0.431926    0.065602   -2.755808
     31          1           0       -1.723297    1.251556   -3.014532
     32          1           0       -1.723261   -1.609874   -0.591344
     33          1           0       -2.391847   -0.976161   -2.085703
     34          1           0       -4.028897   -2.514047   -0.999600
     35          1           0       -4.032049   -1.510596    0.459207
     36          1           0       -4.686613   -0.873200   -1.055825
     37          6           0        1.539540    1.558528   -0.541407
     38          6           0        1.428267    3.059838   -0.539628
     39          6           0        2.061772    3.868065    0.312843
     40          1           0        1.827036    1.211192   -1.540271
     41          1           0        2.341865    1.260124    0.143479
     42          1           0        0.792554    3.503726   -1.305219
     43          1           0        1.954262    4.947444    0.261647
     44          1           0        2.716730    3.478987    1.089087
 ---------------------------------------------------------------------
 Rotational constants (GHZ):      0.3876537      0.3381339      0.2678523
 Standard basis: def2TZVP (5D, 7F)
 There are   810 symmetry adapted cartesian basis functions of A   symmetry.
 There are   720 symmetry adapted basis functions of A   symmetry.
   720 basis functions,  1144 primitive gaussians,   810 cartesian basis functions
    74 alpha electrons       74 beta electrons
       nuclear repulsion energy      1646.9420746993 Hartrees.
 NAtoms=   44 NActive=   44 NUniq=   44 SFac= 1.00D+00 NAtFMM=   60 NAOKFM=F Big=F
 Integral buffers will be    131072 words long.
 Raffenetti 2 integral format.
 Two-electron integral symmetry is turned on.
 ------------------------------------------------------------------------------
 Polarizable Continuum Model (PCM)
 =================================
 Model                : PCM (using non-symmetric T matrix).
 Atomic radii         : UFF (Universal Force Field).
 Polarization charges : Total charges.
 Charge compensation  : None.
 Solution method      : On-the-fly selection.
 Cavity type          : Scaled VdW (van der Waals Surface) (Alpha=1.100).
 Cavity algorithm     : GePol (No added spheres)
                        Default sphere list used, NSphG=   44.
                        Lebedev-Laikov grids with approx.  5.0 points / Ang**2.
                        Smoothing algorithm: Karplus/York (Gamma=1.0000).
                        Polarization charges: spherical gaussians, with
                                              point-specific exponents (IZeta= 3).
                        Self-potential: point-specific (ISelfS= 7).
                        Self-field    : sphere-specific E.n sum rule (ISelfD= 2).
 Solvent              : Chloroform, Eps=   4.711300 Eps(inf)=   2.090627
 ------------------------------------------------------------------------------
 One-electron integrals computed using PRISM.
   1 Symmetry operations used in ECPInt.
 ECPInt:  NShTT=   46360 NPrTT=  137514 LenC2=   42581 LenP2D=   91415.
 LDataN:  DoStor=T MaxTD1= 6 Len=  172
 NBasis=   720 RedAO= T EigKep=  5.49D-05  NBF=   720
 NBsUse=   720 1.00D-06 EigRej= -1.00D+00 NBFU=   720
 ExpMin= 7.01D-02 ExpMax= 4.48D+04 ExpMxC= 1.53D+03 IAcc=3 IRadAn=         5 AccDes= 0.00D+00
 Harris functional with IExCor= 1009 and IRadAn=       5 diagonalized for initial guess.
 HarFok:  IExCor= 1009 AccDes= 0.00D+00 IRadAn=         5 IDoV= 1 UseB2=F ITyADJ=14
 ICtDFT=  3500011 ScaDFX=  1.000000  1.000000  1.000000  1.000000
 FoFCou: FMM=F IPFlag=           0 FMFlag=      100000 FMFlg1=           0
         NFxFlg=           0 DoJE=T BraDBF=F KetDBF=T FulRan=T
         wScrn=  0.000000 ICntrl=     500 IOpCl=  0 I1Cent=   200000004 NGrid=           0
         NMat0=    1 NMatS0=      1 NMatT0=    0 NMatD0=    1 NMtDS0=    0 NMtDT0=    0
 Petite list used in FoFCou.
 Requested convergence on RMS density matrix=1.00D-08 within 128 cycles.
 Requested convergence on MAX density matrix=1.00D-06.
 Requested convergence on             energy=1.00D-06.
 No special actions if energy rises.
 Inv3:  Mode=1 IEnd=    24865923.
 Iteration    1 A*A^-1 deviation from unit magnitude is 5.77D-15 for   2865.
 Iteration    1 A*A^-1 deviation from orthogonality  is 4.77D-15 for   2839   1302.
 Iteration    1 A^-1*A deviation from unit magnitude is 5.55D-15 for   2875.
 Iteration    1 A^-1*A deviation from orthogonality  is 1.78D-12 for   2578   2572.
 Error on total polarization charges =  0.01456
 SCF Done:  E(RM062X) =  -1064.34012040     A.U. after   14 cycles
            NFock= 14  Conv=0.15D-08     -V/T= 2.0047

 **********************************************************************

            Population analysis using the SCF density.

 **********************************************************************

 Orbital symmetries:
       Occupied  (A) (A) (A) (A) (A) (A) (A) (A) (A) (A) (A) (A)
                 (A) (A) (A) (A) (A) (A) (A) (A) (A) (A) (A) (A)
                 (A) (A) (A) (A) (A) (A) (A) (A) (A) (A) (A) (A)
                 (A) (A) (A) (A) (A) (A) (A) (A) (A) (A) (A) (A)
                 (A) (A) (A) (A) (A) (A) (A) (A) (A) (A) (A) (A)
                 (A) (A) (A) (A) (A) (A) (A) (A) (A) (A) (A) (A)
                 (A) (A)
       Virtual   (A) (A) (A) (A) (A) (A) (A) (A) (A) (A) (A) (A)
                 (A) (A) (A) (A) (A) (A) (A) (A) (A) (A) (A) (A)
                 (A) (A) (A) (A) (A) (A) (A) (A) (A) (A) (A) (A)
                 (A) (A) (A) (A) (A) (A) (A) (A) (A) (A) (A) (A)
                 (A) (A) (A) (A) (A) (A) (A) (A) (A) (A) (A) (A)
                 (A) (A) (A) (A) (A) (A) (A) (A) (A) (A) (A) (A)
                 (A) (A) (A) (A) (A) (A) (A) (A) (A) (A) (A) (A)
                 (A) (A) (A) (A) (A) (A) (A) (A) (A) (A) (A) (A)
                 (A) (A) (A) (A) (A) (A) (A) (A) (A) (A) (A) (A)
                 (A) (A) (A) (A) (A) (A) (A) (A) (A) (A) (A) (A)
                 (A) (A) (A) (A) (A) (A) (A) (A) (A) (A) (A) (A)
                 (A) (A) (A) (A) (A) (A) (A) (A) (A) (A) (A) (A)
                 (A) (A) (A) (A) (A) (A) (A) (A) (A) (A) (A) (A)
                 (A) (A) (A) (A) (A) (A) (A) (A) (A) (A) (A) (A)
                 (A) (A) (A) (A) (A) (A) (A) (A) (A) (A) (A) (A)
                 (A) (A) (A) (A) (A) (A) (A) (A) (A) (A) (A) (A)
                 (A) (A) (A) (A) (A) (A) (A) (A) (A) (A) (A) (A)
                 (A) (A) (A) (A) (A) (A) (A) (A) (A) (A) (A) (A)
                 (A) (A) (A) (A) (A) (A) (A) (A) (A) (A) (A) (A)
                 (A) (A) (A) (A) (A) (A) (A) (A) (A) (A) (A) (A)
                 (A) (A) (A) (A) (A) (A) (A) (A) (A) (A) (A) (A)
                 (A) (A) (A) (A) (A) (A) (A) (A) (A) (A) (A) (A)
                 (A) (A) (A) (A) (A) (A) (A) (A) (A) (A) (A) (A)
                 (A) (A) (A) (A) (A) (A) (A) (A) (A) (A) (A) (A)
                 (A) (A) (A) (A) (A) (A) (A) (A) (A) (A) (A) (A)
                 (A) (A) (A) (A) (A) (A) (A) (A) (A) (A) (A) (A)
                 (A) (A) (A) (A) (A) (A) (A) (A) (A) (A) (A) (A)
                 (A) (A) (A) (A) (A) (A) (A) (A) (A) (A) (A) (A)
                 (A) (A) (A) (A) (A) (A) (A) (A) (A) (A) (A) (A)
                 (A) (A) (A) (A) (A) (A) (A) (A) (A) (A) (A) (A)
                 (A) (A) (A) (A) (A) (A) (A) (A) (A) (A) (A) (A)
                 (A) (A) (A) (A) (A) (A) (A) (A) (A) (A) (A) (A)
                 (A) (A) (A) (A) (A) (A) (A) (A) (A) (A) (A) (A)
                 (A) (A) (A) (A) (A) (A) (A) (A) (A) (A) (A) (A)
                 (A) (A) (A) (A) (A) (A) (A) (A) (A) (A) (A) (A)
                 (A) (A) (A) (A) (A) (A) (A) (A) (A) (A) (A) (A)
                 (A) (A) (A) (A) (A) (A) (A) (A) (A) (A) (A) (A)
                 (A) (A) (A) (A) (A) (A) (A) (A) (A) (A) (A) (A)
                 (A) (A) (A) (A) (A) (A) (A) (A) (A) (A) (A) (A)
                 (A) (A) (A) (A) (A) (A) (A) (A) (A) (A) (A) (A)
                 (A) (A) (A) (A) (A) (A) (A) (A) (A) (A) (A) (A)
                 (A) (A) (A) (A) (A) (A) (A) (A) (A) (A) (A) (A)
                 (A) (A) (A) (A) (A) (A) (A) (A) (A) (A) (A) (A)
                 (A) (A) (A) (A) (A) (A) (A) (A) (A) (A) (A) (A)
                 (A) (A) (A) (A) (A) (A) (A) (A) (A) (A) (A) (A)
                 (A) (A) (A) (A) (A) (A) (A) (A) (A) (A) (A) (A)
                 (A) (A) (A) (A) (A) (A) (A) (A) (A) (A) (A) (A)
                 (A) (A) (A) (A) (A) (A) (A) (A) (A) (A) (A) (A)
                 (A) (A) (A) (A) (A) (A) (A) (A) (A) (A) (A) (A)
                 (A) (A) (A) (A) (A) (A) (A) (A) (A) (A) (A) (A)
                 (A) (A) (A) (A) (A) (A) (A) (A) (A) (A) (A) (A)
                 (A) (A) (A) (A) (A) (A) (A) (A) (A) (A) (A) (A)
                 (A) (A) (A) (A) (A) (A) (A) (A) (A) (A) (A) (A)
                 (A) (A) (A) (A) (A) (A) (A) (A) (A) (A)
 The electronic state is 1-A.
 Alpha  occ. eigenvalues --  -67.01680 -19.66711 -19.61984 -19.61283 -10.67812
 Alpha  occ. eigenvalues --  -10.62057 -10.60684 -10.55584 -10.55291 -10.55247
 Alpha  occ. eigenvalues --  -10.54955 -10.54045 -10.53425 -10.53196 -10.52110
 Alpha  occ. eigenvalues --  -10.51187 -10.51007 -10.50770  -5.55126  -3.86313
 Alpha  occ. eigenvalues --   -3.86170  -3.86156  -1.22473  -1.13856  -1.13236
 Alpha  occ. eigenvalues --   -0.93520  -0.90518  -0.87839  -0.84798  -0.80659
 Alpha  occ. eigenvalues --   -0.80058  -0.78721  -0.76984  -0.76741  -0.73149
 Alpha  occ. eigenvalues --   -0.70100  -0.68777  -0.64455  -0.62200  -0.59658
 Alpha  occ. eigenvalues --   -0.57563  -0.56005  -0.55181  -0.54170  -0.53492
 Alpha  occ. eigenvalues --   -0.51760  -0.50916  -0.50379  -0.49464  -0.48559
 Alpha  occ. eigenvalues --   -0.47873  -0.47463  -0.47349  -0.47048  -0.46527
 Alpha  occ. eigenvalues --   -0.46182  -0.45241  -0.44962  -0.44498  -0.43862
 Alpha  occ. eigenvalues --   -0.43686  -0.43370  -0.42543  -0.41227  -0.40666
 Alpha  occ. eigenvalues --   -0.40169  -0.39350  -0.38498  -0.36871  -0.35774
 Alpha  occ. eigenvalues --   -0.35120  -0.34605  -0.34012  -0.31923
 Alpha virt. eigenvalues --    0.02770   0.04279   0.04831   0.06341   0.07366
 Alpha virt. eigenvalues --    0.07544   0.08810   0.09592   0.09931   0.10470
 Alpha virt. eigenvalues --    0.10631   0.11218   0.11504   0.12429   0.12579
 Alpha virt. eigenvalues --    0.13228   0.14243   0.14436   0.14733   0.15233
 Alpha virt. eigenvalues --    0.15456   0.15898   0.16072   0.16255   0.16607
 Alpha virt. eigenvalues --    0.16769   0.17186   0.17575   0.17869   0.18399
 Alpha virt. eigenvalues --    0.18779   0.19269   0.19842   0.20258   0.20819
 Alpha virt. eigenvalues --    0.21393   0.21767   0.22372   0.22778   0.23142
 Alpha virt. eigenvalues --    0.23897   0.24100   0.24418   0.24908   0.25264
 Alpha virt. eigenvalues --    0.26234   0.26599   0.27008   0.28192   0.28637
 Alpha virt. eigenvalues --    0.28907   0.29299   0.29657   0.30052   0.31538
 Alpha virt. eigenvalues --    0.31686   0.31984   0.32143   0.33884   0.34148
 Alpha virt. eigenvalues --    0.34616   0.35010   0.35995   0.36423   0.36965
 Alpha virt. eigenvalues --    0.37650   0.38043   0.38478   0.38635   0.39525
 Alpha virt. eigenvalues --    0.40531   0.40663   0.41099   0.41809   0.41899
 Alpha virt. eigenvalues --    0.42391   0.42849   0.43450   0.43928   0.44610
 Alpha virt. eigenvalues --    0.44707   0.45100   0.45628   0.46167   0.46485
 Alpha virt. eigenvalues --    0.46970   0.47023   0.47542   0.47844   0.48069
 Alpha virt. eigenvalues --    0.48197   0.48596   0.49073   0.49907   0.49922
 Alpha virt. eigenvalues --    0.50284   0.50625   0.50775   0.51115   0.51470
 Alpha virt. eigenvalues --    0.51818   0.52306   0.52546   0.52785   0.53630
 Alpha virt. eigenvalues --    0.54079   0.54641   0.55024   0.55220   0.55917
 Alpha virt. eigenvalues --    0.56302   0.57646   0.57781   0.58241   0.59518
 Alpha virt. eigenvalues --    0.59814   0.60888   0.61650   0.61837   0.62292
 Alpha virt. eigenvalues --    0.63009   0.63540   0.63999   0.64564   0.66112
 Alpha virt. eigenvalues --    0.66464   0.67539   0.67606   0.68185   0.68509
 Alpha virt. eigenvalues --    0.69479   0.70434   0.71585   0.72795   0.73058
 Alpha virt. eigenvalues --    0.74060   0.74218   0.75291   0.76600   0.77363
 Alpha virt. eigenvalues --    0.78317   0.78708   0.79415   0.80344   0.81679
 Alpha virt. eigenvalues --    0.83118   0.83897   0.84686   0.86196   0.86711
 Alpha virt. eigenvalues --    0.87253   0.87467   0.89039   0.89693   0.90131
 Alpha virt. eigenvalues --    0.91646   0.91907   0.92777   0.93617   0.93800
 Alpha virt. eigenvalues --    0.94665   0.95212   0.95832   0.97125   0.97644
 Alpha virt. eigenvalues --    0.98122   0.98492   0.99458   1.00002   1.01213
 Alpha virt. eigenvalues --    1.02517   1.02753   1.04074   1.04701   1.05157
 Alpha virt. eigenvalues --    1.05499   1.06163   1.06649   1.07598   1.08032
 Alpha virt. eigenvalues --    1.08290   1.09352   1.10492   1.11001   1.11130
 Alpha virt. eigenvalues --    1.12166   1.12985   1.13512   1.14610   1.14894
 Alpha virt. eigenvalues --    1.15726   1.16566   1.17441   1.19214   1.19915
 Alpha virt. eigenvalues --    1.21816   1.21925   1.23652   1.24065   1.25090
 Alpha virt. eigenvalues --    1.25951   1.27038   1.28065   1.28362   1.29949
 Alpha virt. eigenvalues --    1.30682   1.31141   1.31444   1.33206   1.35106
 Alpha virt. eigenvalues --    1.35868   1.36273   1.36691   1.38163   1.39045
 Alpha virt. eigenvalues --    1.39419   1.40422   1.41139   1.41832   1.42853
 Alpha virt. eigenvalues --    1.43114   1.44342   1.45170   1.45678   1.47895
 Alpha virt. eigenvalues --    1.48337   1.49106   1.50227   1.50346   1.52834
 Alpha virt. eigenvalues --    1.53369   1.54151   1.55894   1.55995   1.56990
 Alpha virt. eigenvalues --    1.57462   1.58091   1.58609   1.59241   1.59822
 Alpha virt. eigenvalues --    1.60026   1.60874   1.60980   1.61878   1.61955
 Alpha virt. eigenvalues --    1.62275   1.63347   1.63585   1.63961   1.64828
 Alpha virt. eigenvalues --    1.65100   1.66319   1.66720   1.66882   1.67465
 Alpha virt. eigenvalues --    1.68167   1.68439   1.68907   1.69787   1.70247
 Alpha virt. eigenvalues --    1.70472   1.71221   1.72018   1.72549   1.72878
 Alpha virt. eigenvalues --    1.73359   1.75133   1.76544   1.77978   1.79165
 Alpha virt. eigenvalues --    1.79872   1.80347   1.81769   1.82069   1.83061
 Alpha virt. eigenvalues --    1.83516   1.85378   1.86790   1.86896   1.88149
 Alpha virt. eigenvalues --    1.89801   1.90727   1.91150   1.92824   1.93276
 Alpha virt. eigenvalues --    1.94339   1.94999   1.96255   1.96341   1.97048
 Alpha virt. eigenvalues --    1.98248   1.99472   2.00522   2.01051   2.02008
 Alpha virt. eigenvalues --    2.02289   2.03344   2.05015   2.05170   2.06746
 Alpha virt. eigenvalues --    2.07587   2.08138   2.08780   2.09075   2.09967
 Alpha virt. eigenvalues --    2.12091   2.12311   2.13106   2.13469   2.13918
 Alpha virt. eigenvalues --    2.14679   2.16701   2.18243   2.19458   2.19951
 Alpha virt. eigenvalues --    2.20979   2.21064   2.22014   2.22856   2.24194
 Alpha virt. eigenvalues --    2.24753   2.25802   2.26881   2.27030   2.28794
 Alpha virt. eigenvalues --    2.29453   2.30540   2.32198   2.33171   2.34297
 Alpha virt. eigenvalues --    2.34484   2.35693   2.36194   2.37155   2.37837
 Alpha virt. eigenvalues --    2.38562   2.38642   2.39186   2.39467   2.40092
 Alpha virt. eigenvalues --    2.40431   2.41065   2.41632   2.42073   2.42226
 Alpha virt. eigenvalues --    2.42373   2.43462   2.44036   2.44184   2.46297
 Alpha virt. eigenvalues --    2.46924   2.47394   2.47612   2.50049   2.50755
 Alpha virt. eigenvalues --    2.51583   2.52613   2.53888   2.54172   2.54437
 Alpha virt. eigenvalues --    2.55683   2.57045   2.57665   2.58165   2.58679
 Alpha virt. eigenvalues --    2.59575   2.60296   2.61106   2.61462   2.62042
 Alpha virt. eigenvalues --    2.62310   2.62810   2.63105   2.64502   2.64766
 Alpha virt. eigenvalues --    2.65122   2.65608   2.66793   2.67326   2.67811
 Alpha virt. eigenvalues --    2.68889   2.69222   2.69631   2.70317   2.70562
 Alpha virt. eigenvalues --    2.71184   2.72671   2.72949   2.73361   2.74105
 Alpha virt. eigenvalues --    2.74289   2.74688   2.75836   2.76949   2.79549
 Alpha virt. eigenvalues --    2.80252   2.80867   2.81723   2.82796   2.83354
 Alpha virt. eigenvalues --    2.85388   2.86083   2.86659   2.87454   2.88090
 Alpha virt. eigenvalues --    2.88956   2.89979   2.90792   2.92714   2.93217
 Alpha virt. eigenvalues --    2.95954   2.96877   2.97556   2.98980   3.01276
 Alpha virt. eigenvalues --    3.01662   3.02439   3.03327   3.03976   3.05709
 Alpha virt. eigenvalues --    3.06702   3.07873   3.08399   3.09568   3.10233
 Alpha virt. eigenvalues --    3.10808   3.11085   3.12676   3.13411   3.14024
 Alpha virt. eigenvalues --    3.14239   3.15201   3.15873   3.16008   3.16787
 Alpha virt. eigenvalues --    3.17749   3.18984   3.19328   3.19633   3.20111
 Alpha virt. eigenvalues --    3.20808   3.21513   3.22213   3.23568   3.24153
 Alpha virt. eigenvalues --    3.24486   3.24814   3.25110   3.25688   3.26432
 Alpha virt. eigenvalues --    3.26977   3.28016   3.29111   3.29777   3.30192
 Alpha virt. eigenvalues --    3.30590   3.31471   3.32327   3.32710   3.33027
 Alpha virt. eigenvalues --    3.33272   3.33861   3.34872   3.35510   3.36055
 Alpha virt. eigenvalues --    3.36779   3.36844   3.37765   3.38065   3.39201
 Alpha virt. eigenvalues --    3.40403   3.41064   3.42317   3.42636   3.43028
 Alpha virt. eigenvalues --    3.43727   3.44746   3.45190   3.45328   3.46111
 Alpha virt. eigenvalues --    3.46799   3.48405   3.48757   3.49139   3.51306
 Alpha virt. eigenvalues --    3.51861   3.52178   3.53289   3.54978   3.55750
 Alpha virt. eigenvalues --    3.56200   3.56980   3.57738   3.58487   3.58989
 Alpha virt. eigenvalues --    3.59634   3.60479   3.61309   3.62635   3.62931
 Alpha virt. eigenvalues --    3.63997   3.64523   3.65219   3.65737   3.66282
 Alpha virt. eigenvalues --    3.67035   3.67375   3.68175   3.69539   3.70994
 Alpha virt. eigenvalues --    3.71178   3.72835   3.74026   3.75914   3.77191
 Alpha virt. eigenvalues --    3.78981   3.80718   3.81046   3.82185   3.83996
 Alpha virt. eigenvalues --    3.84418   3.88220   3.88345   3.90127   3.91180
 Alpha virt. eigenvalues --    3.93320   3.96047   3.96254   3.97102   4.01840
 Alpha virt. eigenvalues --    4.03980   4.04595   4.06793   4.08166   4.09251
 Alpha virt. eigenvalues --    4.11002   4.13627   4.14979   4.18471   4.20117
 Alpha virt. eigenvalues --    4.21486   4.22963   4.24364   4.25431   4.25609
 Alpha virt. eigenvalues --    4.26845   4.27508   4.28716   4.29420   4.30220
 Alpha virt. eigenvalues --    4.31308   4.32364   4.32846   4.36338   4.36931
 Alpha virt. eigenvalues --    4.37827   4.37986   4.38529   4.39009   4.41132
 Alpha virt. eigenvalues --    4.41829   4.43972   4.45508   4.46788   4.47658
 Alpha virt. eigenvalues --    4.51801   4.53381   4.55524   4.57255   4.58112
 Alpha virt. eigenvalues --    4.59777   4.61711   4.65227   4.66298   4.69809
 Alpha virt. eigenvalues --    4.71144   4.74445   4.77258   4.80731   4.85278
 Alpha virt. eigenvalues --    4.86215   4.88748   4.93928   5.00496   5.01257
 Alpha virt. eigenvalues --    5.03086   5.07834   5.09994   5.19784   5.22763
 Alpha virt. eigenvalues --    5.24367   5.25940   5.28444   5.28633   5.36115
 Alpha virt. eigenvalues --    5.48906   5.50606   5.53271   5.60337   5.81774
 Alpha virt. eigenvalues --    5.85837   5.87691   5.88472   5.92792   6.00269
 Alpha virt. eigenvalues --    6.12698   6.18815   6.22887   6.36595   6.39874
 Alpha virt. eigenvalues --    6.51687   6.62688   6.64243   6.65935   6.67420
 Alpha virt. eigenvalues --    6.70960   6.75332   6.81885   6.86474   6.89004
 Alpha virt. eigenvalues --    6.96487   6.97764   7.04320   7.05918   7.15523
 Alpha virt. eigenvalues --    7.19219   7.36453   7.40847  12.18043  22.29333
 Alpha virt. eigenvalues --   22.38122  22.42119  22.43517  22.47246  22.53215
 Alpha virt. eigenvalues --   22.65468  22.67983  22.68967  22.72753  22.80108
 Alpha virt. eigenvalues --   22.87536  22.94525  23.43862  44.07425  44.48599
 Alpha virt. eigenvalues --   44.56422
          Condensed to atoms (all electrons):
               1          2          3          4          5          6
     1  C    5.312973   0.198549  -0.058621   0.018094  -0.027697   0.452113
     2  C    0.198549   5.609519   0.091716  -0.037964  -0.022722  -0.039878
     3  C   -0.058621   0.091716   5.786199  -0.094682   0.052539   0.014714
     4  C    0.018094  -0.037964  -0.094682   6.028421   0.144330  -0.005025
     5  C   -0.027697  -0.022722   0.052539   0.144330   4.415358   0.001117
     6  H    0.452113  -0.039878   0.014714  -0.005025   0.001117   0.506932
     7  H   -0.058896   0.443037  -0.032545   0.000539   0.001079  -0.009561
     8  H   -0.000824   0.012918  -0.020611   0.380930  -0.021654   0.000086
     9  H    0.002929  -0.016004  -0.028469   0.393028  -0.014049   0.000173
    10  O    0.139331  -0.012008   0.028866  -0.154098   0.381164  -0.033920
    11  O    0.000266   0.001186   0.014947  -0.144486   0.715062  -0.000012
    12  C    0.189140  -0.026146  -0.008846  -0.004224  -0.001761  -0.063028
    13  C   -0.053018   0.011150  -0.002111   0.000810  -0.000304  -0.009274
    14  C   -0.037551   0.173559  -0.040996   0.000905   0.001814  -0.009129
    15  O    0.019935  -0.066382   0.155153  -0.053368   0.016622  -0.000490
    16  Si   0.001139   0.007087  -0.076603  -0.004664  -0.002085  -0.000089
    17  C   -0.000245  -0.000708   0.004894   0.000272  -0.000403  -0.000002
    18  C    0.000160   0.000394  -0.007927  -0.000165   0.000243   0.000001
    19  C   -0.000308  -0.000155   0.017450   0.006019  -0.002346   0.000000
    20  H   -0.000021   0.000066  -0.003651   0.000227  -0.000016   0.000000
    21  H   -0.000001  -0.000013   0.000186   0.000021  -0.000004   0.000000
    22  H   -0.000012  -0.000026   0.003078   0.000000  -0.000005   0.000000
    23  H    0.000097  -0.000192  -0.002718  -0.000597   0.000656  -0.000001
    24  H   -0.000001   0.000023  -0.000655   0.000196   0.000031   0.000000
    25  H    0.000007   0.000028   0.004482  -0.004094   0.000455   0.000000
    26  H    0.000176   0.000105   0.000325  -0.000420   0.000415   0.000002
    27  H   -0.000201   0.000218  -0.000059   0.000013   0.000015  -0.000001
    28  H   -0.000009   0.000007  -0.000142  -0.000014   0.000020   0.000000
    29  H    0.010875  -0.019212  -0.032152   0.000279  -0.000252  -0.000296
    30  H   -0.024970  -0.049851   0.017584   0.000305   0.000077   0.000580
    31  H    0.015552  -0.068887   0.011313  -0.000852   0.000121   0.001624
    32  H   -0.024949   0.001985   0.009522  -0.001621  -0.001043   0.005515
    33  H   -0.053324  -0.007719   0.001091  -0.000681   0.000557   0.002904
    34  H    0.013178  -0.000839  -0.000078   0.000065   0.000017  -0.000183
    35  H   -0.016463  -0.000720  -0.000085   0.000588   0.001387   0.001219
    36  H    0.001548   0.001256   0.000172  -0.000016  -0.000245   0.002466
    37  C    0.018136  -0.056287   0.062019  -0.035928  -0.004398  -0.000204
    38  C   -0.001435   0.007190  -0.010976  -0.004220   0.003635  -0.000004
    39  C   -0.000088   0.000401  -0.008279  -0.004463   0.000159   0.000002
    40  H   -0.001640  -0.016918  -0.058036   0.007576   0.000030  -0.000029
    41  H   -0.000243   0.011011  -0.039790  -0.020224   0.000268   0.000012
    42  H    0.000935   0.009351  -0.012352  -0.000422   0.000025   0.000002
    43  H    0.000000  -0.000013   0.000201  -0.000052   0.000003   0.000000
    44  H    0.000001   0.000363  -0.003867  -0.000195  -0.000030   0.000000
               7          8          9         10         11         12
     1  C   -0.058896  -0.000824   0.002929   0.139331   0.000266   0.189140
     2  C    0.443037   0.012918  -0.016004  -0.012008   0.001186  -0.026146
     3  C   -0.032545  -0.020611  -0.028469   0.028866   0.014947  -0.008846
     4  C    0.000539   0.380930   0.393028  -0.154098  -0.144486  -0.004224
     5  C    0.001079  -0.021654  -0.014049   0.381164   0.715062  -0.001761
     6  H   -0.009561   0.000086   0.000173  -0.033920  -0.000012  -0.063028
     7  H    0.502112  -0.000055   0.000161   0.001304  -0.000055   0.009418
     8  H   -0.000055   0.474466  -0.009527   0.006341   0.010638   0.000046
     9  H    0.000161  -0.009527   0.454728   0.002585   0.002502   0.000054
    10  O    0.001304   0.006341   0.002585   8.018561  -0.100957  -0.023089
    11  O   -0.000055   0.010638   0.002502  -0.100957   7.883333  -0.000405
    12  C    0.009418   0.000046   0.000054  -0.023089  -0.000405   5.255711
    13  C   -0.000286  -0.000005  -0.000030  -0.005638   0.000026   0.259639
    14  C   -0.023489   0.000029  -0.000139   0.004558   0.000046   0.014298
    15  O    0.004500  -0.005307   0.004981  -0.003983  -0.000012  -0.013520
    16  Si  -0.000260  -0.002384   0.000884  -0.000938   0.001259  -0.000537
    17  C    0.000001   0.000356  -0.000012   0.000073  -0.000064   0.001410
    18  C    0.000013   0.000006   0.000038  -0.000008  -0.000001  -0.000241
    19  C    0.000003  -0.004659  -0.000435   0.000073  -0.001444   0.000021
    20  H    0.000000  -0.000061   0.000002   0.000000   0.000000   0.000010
    21  H    0.000000   0.000001  -0.000001   0.000000   0.000000   0.000007
    22  H    0.000000  -0.000003  -0.000001   0.000000   0.000000   0.000025
    23  H    0.000005  -0.002364   0.000232  -0.000022   0.001902   0.000002
    24  H    0.000000   0.000660   0.000005   0.000000   0.000002   0.000002
    25  H    0.000001  -0.000643  -0.000082  -0.000008  -0.000014  -0.000003
    26  H    0.000001   0.000023   0.000002  -0.000030   0.000018  -0.000732
    27  H    0.000001  -0.000008   0.000000   0.000005   0.000000   0.000238
    28  H    0.000000  -0.000007   0.000000   0.000000   0.000000  -0.000047
    29  H   -0.007417  -0.000013  -0.000021  -0.000175  -0.000001   0.000179
    30  H    0.005064  -0.000025  -0.000045  -0.000014   0.000000   0.007069
    31  H   -0.002682   0.000012   0.000023   0.000023   0.000000  -0.011892
    32  H   -0.000398   0.000090   0.000025  -0.004136  -0.000136   0.392140
    33  H   -0.000641  -0.000010   0.000007   0.005120  -0.000013   0.429728
    34  H    0.000016  -0.000001   0.000000   0.000153   0.000005  -0.050250
    35  H   -0.000035  -0.000016  -0.000004   0.007221   0.000451  -0.034336
    36  H   -0.000027   0.000000   0.000001  -0.000643   0.000000  -0.051991
    37  C   -0.026625  -0.008684  -0.007381  -0.002007  -0.001054  -0.001648
    38  C    0.009097  -0.001864   0.003532  -0.000077   0.000116   0.000234
    39  C    0.001401   0.000149  -0.000789  -0.000005  -0.000021   0.000000
    40  H    0.002619   0.000059  -0.000081   0.000020   0.000008   0.000210
    41  H   -0.000648   0.002134   0.000885   0.000027   0.000011  -0.000041
    42  H   -0.006373   0.000030   0.000375   0.000010   0.000005   0.000003
    43  H    0.000007   0.000006   0.000015   0.000000   0.000000   0.000000
    44  H   -0.000041   0.000092  -0.000009   0.000000   0.000002   0.000001
              13         14         15         16         17         18
     1  C   -0.053018  -0.037551   0.019935   0.001139  -0.000245   0.000160
     2  C    0.011150   0.173559  -0.066382   0.007087  -0.000708   0.000394
     3  C   -0.002111  -0.040996   0.155153  -0.076603   0.004894  -0.007927
     4  C    0.000810   0.000905  -0.053368  -0.004664   0.000272  -0.000165
     5  C   -0.000304   0.001814   0.016622  -0.002085  -0.000403   0.000243
     6  H   -0.009274  -0.009129  -0.000490  -0.000089  -0.000002   0.000001
     7  H   -0.000286  -0.023489   0.004500  -0.000260   0.000001   0.000013
     8  H   -0.000005   0.000029  -0.005307  -0.002384   0.000356   0.000006
     9  H   -0.000030  -0.000139   0.004981   0.000884  -0.000012   0.000038
    10  O   -0.005638   0.004558  -0.003983  -0.000938   0.000073  -0.000008
    11  O    0.000026   0.000046  -0.000012   0.001259  -0.000064  -0.000001
    12  C    0.259639   0.014298  -0.013520  -0.000537   0.001410  -0.000241
    13  C    5.053049  -0.000907   0.001881   0.000041   0.000237   0.000004
    14  C   -0.000907   5.182358  -0.007840   0.000540   0.000119  -0.000412
    15  O    0.001881  -0.007840   8.085318   0.385142  -0.021651  -0.018774
    16  Si   0.000041   0.000540   0.385142  12.451006   0.382171   0.354413
    17  C    0.000237   0.000119  -0.021651   0.382171   5.141008  -0.044292
    18  C    0.000004  -0.000412  -0.018774   0.354413  -0.044292   5.148794
    19  C    0.000015  -0.000071  -0.026558   0.324742  -0.042791  -0.053806
    20  H    0.000000   0.000055   0.001045  -0.035799   0.002647   0.393470
    21  H    0.000000   0.000008   0.001160  -0.032064   0.001360   0.387013
    22  H    0.000001  -0.000211  -0.000558  -0.038514   0.001380   0.393910
    23  H    0.000003   0.000005   0.000537  -0.036727   0.000681   0.003319
    24  H    0.000000   0.000001   0.001176  -0.022202  -0.000066   0.001645
    25  H    0.000000   0.000006   0.000367  -0.040679   0.003093   0.002083
    26  H    0.000030   0.000013   0.000945  -0.036077   0.392008   0.003364
    27  H    0.000084  -0.000146   0.000684  -0.037217   0.391314   0.000749
    28  H    0.000005   0.000000   0.001128  -0.037495   0.392523   0.001145
    29  H    0.000038   0.404406   0.000298  -0.000233  -0.000010   0.000082
    30  H    0.000470   0.429651   0.004772  -0.002102   0.000064  -0.000125
    31  H   -0.000174   0.434751   0.000212   0.000113  -0.000003  -0.000006
    32  H   -0.039539  -0.004415  -0.000555  -0.002247  -0.005292   0.000300
    33  H   -0.032680  -0.003811  -0.000875  -0.000217   0.000076   0.000013
    34  H    0.421701   0.000091   0.000001  -0.000014   0.000034   0.000000
    35  H    0.421514  -0.000087   0.000027   0.000020   0.000019   0.000000
    36  H    0.413442  -0.000153  -0.000068  -0.000011  -0.000009   0.000000
    37  C    0.000060   0.018267  -0.068424   0.013210  -0.001420   0.010759
    38  C    0.000000  -0.008955   0.008011  -0.000928   0.000013   0.000809
    39  C    0.000000  -0.000432  -0.000199   0.000355   0.000000  -0.000063
    40  H   -0.000001  -0.004762   0.002825  -0.003404   0.000207  -0.005436
    41  H   -0.000001   0.000731  -0.003881   0.005652   0.000223  -0.004308
    42  H    0.000002  -0.000526  -0.000087   0.000102   0.000001  -0.000021
    43  H    0.000000   0.000022   0.000006   0.000002   0.000000   0.000001
    44  H    0.000000  -0.000023  -0.000032   0.000134   0.000000  -0.000007
              19         20         21         22         23         24
     1  C   -0.000308  -0.000021  -0.000001  -0.000012   0.000097  -0.000001
     2  C   -0.000155   0.000066  -0.000013  -0.000026  -0.000192   0.000023
     3  C    0.017450  -0.003651   0.000186   0.003078  -0.002718  -0.000655
     4  C    0.006019   0.000227   0.000021   0.000000  -0.000597   0.000196
     5  C   -0.002346  -0.000016  -0.000004  -0.000005   0.000656   0.000031
     6  H    0.000000   0.000000   0.000000   0.000000  -0.000001   0.000000
     7  H    0.000003   0.000000   0.000000   0.000000   0.000005   0.000000
     8  H   -0.004659  -0.000061   0.000001  -0.000003  -0.002364   0.000660
     9  H   -0.000435   0.000002  -0.000001  -0.000001   0.000232   0.000005
    10  O    0.000073   0.000000   0.000000   0.000000  -0.000022   0.000000
    11  O   -0.001444   0.000000   0.000000   0.000000   0.001902   0.000002
    12  C    0.000021   0.000010   0.000007   0.000025   0.000002   0.000002
    13  C    0.000015   0.000000   0.000000   0.000001   0.000003   0.000000
    14  C   -0.000071   0.000055   0.000008  -0.000211   0.000005   0.000001
    15  O   -0.026558   0.001045   0.001160  -0.000558   0.000537   0.001176
    16  Si   0.324742  -0.035799  -0.032064  -0.038514  -0.036727  -0.022202
    17  C   -0.042791   0.002647   0.001360   0.001380   0.000681  -0.000066
    18  C   -0.053806   0.393470   0.387013   0.393910   0.003319   0.001645
    19  C    5.207198   0.001696   0.002840   0.003267   0.393088   0.381989
    20  H    0.001696   0.513136  -0.018038  -0.019229  -0.000143   0.000192
    21  H    0.002840  -0.018038   0.509018  -0.016200  -0.000165   0.000140
    22  H    0.003267  -0.019229  -0.016200   0.510186  -0.000089  -0.000139
    23  H    0.393088  -0.000143  -0.000165  -0.000089   0.499295  -0.014150
    24  H    0.381989   0.000192   0.000140  -0.000139  -0.014150   0.493275
    25  H    0.395028   0.000533   0.000188  -0.000198  -0.020578  -0.014776
    26  H    0.001087  -0.000100  -0.000151  -0.000174   0.000816   0.000244
    27  H    0.003463  -0.000151   0.000235   0.000908  -0.000179  -0.000141
    28  H    0.001054  -0.000119   0.000328   0.000252   0.000255   0.000434
    29  H    0.000000   0.000012  -0.000001   0.000014   0.000000   0.000000
    30  H    0.000121  -0.000025   0.000001   0.000514  -0.000004  -0.000002
    31  H    0.000001   0.000000   0.000000   0.000002   0.000000   0.000000
    32  H    0.000005  -0.000008  -0.000015   0.000013   0.000027  -0.000008
    33  H    0.000003   0.000000  -0.000001  -0.000004  -0.000003   0.000000
    34  H    0.000000   0.000000   0.000000   0.000000   0.000000   0.000000
    35  H    0.000001   0.000000   0.000000   0.000000  -0.000002   0.000000
    36  H    0.000000   0.000000   0.000000   0.000000   0.000000   0.000000
    37  C   -0.014376   0.003819  -0.000351  -0.003190   0.000965   0.000371
    38  C    0.000809   0.000707  -0.000004  -0.000059  -0.000033  -0.000011
    39  C   -0.000199   0.000019   0.000000   0.000001   0.000008   0.000002
    40  H    0.000943  -0.003383   0.000433   0.000690  -0.000032  -0.000019
    41  H    0.000027   0.000187   0.000064   0.000140  -0.000437   0.000041
    42  H   -0.000007   0.000005   0.000000   0.000000   0.000000   0.000000
    43  H    0.000000   0.000000   0.000000   0.000000   0.000000   0.000000
    44  H   -0.000048   0.000018   0.000000   0.000000   0.000001   0.000001
              25         26         27         28         29         30
     1  C    0.000007   0.000176  -0.000201  -0.000009   0.010875  -0.024970
     2  C    0.000028   0.000105   0.000218   0.000007  -0.019212  -0.049851
     3  C    0.004482   0.000325  -0.000059  -0.000142  -0.032152   0.017584
     4  C   -0.004094  -0.000420   0.000013  -0.000014   0.000279   0.000305
     5  C    0.000455   0.000415   0.000015   0.000020  -0.000252   0.000077
     6  H    0.000000   0.000002  -0.000001   0.000000  -0.000296   0.000580
     7  H    0.000001   0.000001   0.000001   0.000000  -0.007417   0.005064
     8  H   -0.000643   0.000023  -0.000008  -0.000007  -0.000013  -0.000025
     9  H   -0.000082   0.000002   0.000000   0.000000  -0.000021  -0.000045
    10  O   -0.000008  -0.000030   0.000005   0.000000  -0.000175  -0.000014
    11  O   -0.000014   0.000018   0.000000   0.000000  -0.000001   0.000000
    12  C   -0.000003  -0.000732   0.000238  -0.000047   0.000179   0.007069
    13  C    0.000000   0.000030   0.000084   0.000005   0.000038   0.000470
    14  C    0.000006   0.000013  -0.000146   0.000000   0.404406   0.429651
    15  O    0.000367   0.000945   0.000684   0.001128   0.000298   0.004772
    16  Si  -0.040679  -0.036077  -0.037217  -0.037495  -0.000233  -0.002102
    17  C    0.003093   0.392008   0.391314   0.392523  -0.000010   0.000064
    18  C    0.002083   0.003364   0.000749   0.001145   0.000082  -0.000125
    19  C    0.395028   0.001087   0.003463   0.001054   0.000000   0.000121
    20  H    0.000533  -0.000100  -0.000151  -0.000119   0.000012  -0.000025
    21  H    0.000188  -0.000151   0.000235   0.000328  -0.000001   0.000001
    22  H   -0.000198  -0.000174   0.000908   0.000252   0.000014   0.000514
    23  H   -0.020578   0.000816  -0.000179   0.000255   0.000000  -0.000004
    24  H   -0.014776   0.000244  -0.000141   0.000434   0.000000  -0.000002
    25  H    0.508947  -0.000144  -0.000097  -0.000139  -0.000001  -0.000004
    26  H   -0.000144   0.507607  -0.020203  -0.015409   0.000000  -0.000002
    27  H   -0.000097  -0.020203   0.513614  -0.015052  -0.000001   0.000229
    28  H   -0.000139  -0.015409  -0.015052   0.508611   0.000000   0.000001
    29  H   -0.000001   0.000000  -0.000001   0.000000   0.509373  -0.022948
    30  H   -0.000004  -0.000002   0.000229   0.000001  -0.022948   0.496090
    31  H    0.000000   0.000000   0.000003   0.000000  -0.017910  -0.027087
    32  H   -0.000006  -0.000238  -0.001285   0.000263  -0.000093  -0.000508
    33  H    0.000000   0.000051  -0.000004   0.000000   0.000848  -0.007823
    34  H    0.000000   0.000026   0.000015   0.000000   0.000000  -0.000001
    35  H    0.000000   0.000019   0.000000   0.000001   0.000002  -0.000027
    36  H    0.000000  -0.000001  -0.000001   0.000000  -0.000005   0.000010
    37  C   -0.003952   0.000051   0.000104   0.000026   0.025683  -0.010519
    38  C    0.000055   0.000000   0.000004  -0.000001  -0.008400   0.001480
    39  C    0.000034   0.000000   0.000000   0.000000  -0.000084  -0.000003
    40  H    0.000065  -0.000012  -0.000002  -0.000003  -0.008507   0.001859
    41  H    0.003981   0.000002  -0.000013  -0.000006   0.000513  -0.000238
    42  H    0.000003   0.000000   0.000000   0.000000   0.001865  -0.000021
    43  H   -0.000003   0.000000   0.000000   0.000000  -0.000005  -0.000001
    44  H    0.000100   0.000000   0.000000   0.000000  -0.000008   0.000001
              31         32         33         34         35         36
     1  C    0.015552  -0.024949  -0.053324   0.013178  -0.016463   0.001548
     2  C   -0.068887   0.001985  -0.007719  -0.000839  -0.000720   0.001256
     3  C    0.011313   0.009522   0.001091  -0.000078  -0.000085   0.000172
     4  C   -0.000852  -0.001621  -0.000681   0.000065   0.000588  -0.000016
     5  C    0.000121  -0.001043   0.000557   0.000017   0.001387  -0.000245
     6  H    0.001624   0.005515   0.002904  -0.000183   0.001219   0.002466
     7  H   -0.002682  -0.000398  -0.000641   0.000016  -0.000035  -0.000027
     8  H    0.000012   0.000090  -0.000010  -0.000001  -0.000016   0.000000
     9  H    0.000023   0.000025   0.000007   0.000000  -0.000004   0.000001
    10  O    0.000023  -0.004136   0.005120   0.000153   0.007221  -0.000643
    11  O    0.000000  -0.000136  -0.000013   0.000005   0.000451   0.000000
    12  C   -0.011892   0.392140   0.429728  -0.050250  -0.034336  -0.051991
    13  C   -0.000174  -0.039539  -0.032680   0.421701   0.421514   0.413442
    14  C    0.434751  -0.004415  -0.003811   0.000091  -0.000087  -0.000153
    15  O    0.000212  -0.000555  -0.000875   0.000001   0.000027  -0.000068
    16  Si   0.000113  -0.002247  -0.000217  -0.000014   0.000020  -0.000011
    17  C   -0.000003  -0.005292   0.000076   0.000034   0.000019  -0.000009
    18  C   -0.000006   0.000300   0.000013   0.000000   0.000000   0.000000
    19  C    0.000001   0.000005   0.000003   0.000000   0.000001   0.000000
    20  H    0.000000  -0.000008   0.000000   0.000000   0.000000   0.000000
    21  H    0.000000  -0.000015  -0.000001   0.000000   0.000000   0.000000
    22  H    0.000002   0.000013  -0.000004   0.000000   0.000000   0.000000
    23  H    0.000000   0.000027  -0.000003   0.000000  -0.000002   0.000000
    24  H    0.000000  -0.000008   0.000000   0.000000   0.000000   0.000000
    25  H    0.000000  -0.000006   0.000000   0.000000   0.000000   0.000000
    26  H    0.000000  -0.000238   0.000051   0.000026   0.000019  -0.000001
    27  H    0.000003  -0.001285  -0.000004   0.000015   0.000000  -0.000001
    28  H    0.000000   0.000263   0.000000   0.000000   0.000001   0.000000
    29  H   -0.017910  -0.000093   0.000848   0.000000   0.000002  -0.000005
    30  H   -0.027087  -0.000508  -0.007823  -0.000001  -0.000027   0.000010
    31  H    0.492518   0.000681  -0.001002  -0.000003  -0.000009   0.000123
    32  H    0.000681   0.550132  -0.024986  -0.005389  -0.005603   0.008799
    33  H   -0.001002  -0.024986   0.544001  -0.004926   0.006801  -0.004348
    34  H   -0.000003  -0.005389  -0.004926   0.527242  -0.023444  -0.025148
    35  H   -0.000009  -0.005603   0.006801  -0.023444   0.512124  -0.027560
    36  H    0.000123   0.008799  -0.004348  -0.025148  -0.027560   0.543300
    37  C   -0.001657   0.000640   0.000236  -0.000002   0.000004   0.000004
    38  C    0.000347  -0.000039  -0.000011   0.000000   0.000000   0.000000
    39  C    0.000017  -0.000001   0.000000   0.000000   0.000000   0.000000
    40  H    0.000366  -0.000052  -0.000051   0.000000   0.000000   0.000000
    41  H    0.000007  -0.000011   0.000008   0.000000   0.000000   0.000000
    42  H   -0.000064  -0.000004   0.000002   0.000000   0.000000   0.000000
    43  H    0.000000   0.000000   0.000000   0.000000   0.000000   0.000000
    44  H    0.000000   0.000000   0.000000   0.000000   0.000000   0.000000
              37         38         39         40         41         42
     1  C    0.018136  -0.001435  -0.000088  -0.001640  -0.000243   0.000935
     2  C   -0.056287   0.007190   0.000401  -0.016918   0.011011   0.009351
     3  C    0.062019  -0.010976  -0.008279  -0.058036  -0.039790  -0.012352
     4  C   -0.035928  -0.004220  -0.004463   0.007576  -0.020224  -0.000422
     5  C   -0.004398   0.003635   0.000159   0.000030   0.000268   0.000025
     6  H   -0.000204  -0.000004   0.000002  -0.000029   0.000012   0.000002
     7  H   -0.026625   0.009097   0.001401   0.002619  -0.000648  -0.006373
     8  H   -0.008684  -0.001864   0.000149   0.000059   0.002134   0.000030
     9  H   -0.007381   0.003532  -0.000789  -0.000081   0.000885   0.000375
    10  O   -0.002007  -0.000077  -0.000005   0.000020   0.000027   0.000010
    11  O   -0.001054   0.000116  -0.000021   0.000008   0.000011   0.000005
    12  C   -0.001648   0.000234   0.000000   0.000210  -0.000041   0.000003
    13  C    0.000060   0.000000   0.000000  -0.000001  -0.000001   0.000002
    14  C    0.018267  -0.008955  -0.000432  -0.004762   0.000731  -0.000526
    15  O   -0.068424   0.008011  -0.000199   0.002825  -0.003881  -0.000087
    16  Si   0.013210  -0.000928   0.000355  -0.003404   0.005652   0.000102
    17  C   -0.001420   0.000013   0.000000   0.000207   0.000223   0.000001
    18  C    0.010759   0.000809  -0.000063  -0.005436  -0.004308  -0.000021
    19  C   -0.014376   0.000809  -0.000199   0.000943   0.000027  -0.000007
    20  H    0.003819   0.000707   0.000019  -0.003383   0.000187   0.000005
    21  H   -0.000351  -0.000004   0.000000   0.000433   0.000064   0.000000
    22  H   -0.003190  -0.000059   0.000001   0.000690   0.000140   0.000000
    23  H    0.000965  -0.000033   0.000008  -0.000032  -0.000437   0.000000
    24  H    0.000371  -0.000011   0.000002  -0.000019   0.000041   0.000000
    25  H   -0.003952   0.000055   0.000034   0.000065   0.003981   0.000003
    26  H    0.000051   0.000000   0.000000  -0.000012   0.000002   0.000000
    27  H    0.000104   0.000004   0.000000  -0.000002  -0.000013   0.000000
    28  H    0.000026  -0.000001   0.000000  -0.000003  -0.000006   0.000000
    29  H    0.025683  -0.008400  -0.000084  -0.008507   0.000513   0.001865
    30  H   -0.010519   0.001480  -0.000003   0.001859  -0.000238  -0.000021
    31  H   -0.001657   0.000347   0.000017   0.000366   0.000007  -0.000064
    32  H    0.000640  -0.000039  -0.000001  -0.000052  -0.000011  -0.000004
    33  H    0.000236  -0.000011   0.000000  -0.000051   0.000008   0.000002
    34  H   -0.000002   0.000000   0.000000   0.000000   0.000000   0.000000
    35  H    0.000004   0.000000   0.000000   0.000000   0.000000   0.000000
    36  H    0.000004   0.000000   0.000000   0.000000   0.000000   0.000000
    37  C    5.549444   0.172857  -0.039769   0.442654   0.438900  -0.040040
    38  C    0.172857   5.204898   0.537651  -0.029287  -0.034912   0.414477
    39  C   -0.039769   0.537651   4.997047  -0.001757  -0.001614  -0.020973
    40  H    0.442654  -0.029287  -0.001757   0.463382  -0.015052  -0.001073
    41  H    0.438900  -0.034912  -0.001614  -0.015052   0.468005   0.002155
    42  H   -0.040040   0.414477  -0.020973  -0.001073   0.002155   0.492241
    43  H    0.005291  -0.049848   0.424207  -0.000251   0.000332  -0.006117
    44  H    0.011207  -0.070180   0.434334   0.000452  -0.001909   0.004064
              43         44
     1  C    0.000000   0.000001
     2  C   -0.000013   0.000363
     3  C    0.000201  -0.003867
     4  C   -0.000052  -0.000195
     5  C    0.000003  -0.000030
     6  H    0.000000   0.000000
     7  H    0.000007  -0.000041
     8  H    0.000006   0.000092
     9  H    0.000015  -0.000009
    10  O    0.000000   0.000000
    11  O    0.000000   0.000002
    12  C    0.000000   0.000001
    13  C    0.000000   0.000000
    14  C    0.000022  -0.000023
    15  O    0.000006  -0.000032
    16  Si   0.000002   0.000134
    17  C    0.000000   0.000000
    18  C    0.000001  -0.000007
    19  C    0.000000  -0.000048
    20  H    0.000000   0.000018
    21  H    0.000000   0.000000
    22  H    0.000000   0.000000
    23  H    0.000000   0.000001
    24  H    0.000000   0.000001
    25  H   -0.000003   0.000100
    26  H    0.000000   0.000000
    27  H    0.000000   0.000000
    28  H    0.000000   0.000000
    29  H   -0.000005  -0.000008
    30  H   -0.000001   0.000001
    31  H    0.000000   0.000000
    32  H    0.000000   0.000000
    33  H    0.000000   0.000000
    34  H    0.000000   0.000000
    35  H    0.000000   0.000000
    36  H    0.000000   0.000000
    37  C    0.005291   0.011207
    38  C   -0.049848  -0.070180
    39  C    0.424207   0.434334
    40  H   -0.000251   0.000452
    41  H    0.000332  -0.001909
    42  H   -0.006117   0.004064
    43  H    0.497602  -0.022555
    44  H   -0.022555   0.502112
 Mulliken charges:
               1
     1  C   -0.034619
     2  C   -0.138478
     3  C    0.267800
     4  C   -0.410143
     5  C    0.361819
     6  H    0.181665
     7  H    0.189658
     8  H    0.189654
     9  H    0.209915
    10  O   -0.253676
    11  O   -0.383107
    12  C   -0.266848
    13  C   -0.440233
    14  C   -0.522178
    15  O   -0.404162
    16  Si   0.485483
    17  C   -0.599215
    18  C   -0.567136
    19  C   -0.593741
    20  H    0.162899
    21  H    0.164006
    22  H    0.164233
    23  H    0.176539
    24  H    0.171740
    25  H    0.165967
    26  H    0.166363
    27  H    0.162865
    28  H    0.162390
    29  H    0.163280
    30  H    0.180405
    31  H    0.174415
    32  H    0.152440
    33  H    0.151684
    34  H    0.147734
    35  H    0.156992
    36  H    0.139104
    37  C   -0.446789
    38  C   -0.144674
    39  C   -0.317047
    40  H    0.225387
    41  H    0.188011
    42  H    0.162429
    43  H    0.151151
    44  H    0.146020
 Sum of Mulliken charges =   0.00000
 Mulliken charges with hydrogens summed into heavy atoms:
               1
     1  C    0.147046
     2  C    0.051180
     3  C    0.267800
     4  C   -0.010574
     5  C    0.361819
    10  O   -0.253676
    11  O   -0.383107
    12  C    0.037276
    13  C    0.003597
    14  C   -0.004078
    15  O   -0.404162
    16  Si   0.485483
    17  C   -0.107597
    18  C   -0.075999
    19  C   -0.079495
    37  C   -0.033391
    38  C    0.017755
    39  C   -0.019877
 Electronic spatial extent (au):  <R**2>=           5104.9760
 Charge=              0.0000 electrons
 Dipole moment (field-independent basis, Debye):
    X=              3.3300    Y=              1.3771    Z=             -5.0720  Tot=              6.2218
 Quadrupole moment (field-independent basis, Debye-Ang):
   XX=           -122.3372   YY=           -111.8274   ZZ=           -133.1083
   XY=             -2.0275   XZ=             14.6237   YZ=             -1.0345
 Traceless Quadrupole moment (field-independent basis, Debye-Ang):
   XX=              0.0871   YY=             10.5969   ZZ=            -10.6840
   XY=             -2.0275   XZ=             14.6237   YZ=             -1.0345
 Octapole moment (field-independent basis, Debye-Ang**2):
  XXX=              1.2008  YYY=             17.2633  ZZZ=            -49.7309  XYY=              3.3265
  XXY=             -6.1091  XXZ=            -16.3155  XZZ=             20.0961  YZZ=              0.3136
  YYZ=              6.3598  XYZ=              7.1912
 Hexadecapole moment (field-independent basis, Debye-Ang**3):
 XXXX=          -3108.7689 YYYY=          -2480.4545 ZZZZ=          -1556.5040 XXXY=            -47.0705
 XXXZ=             78.5742 YYYX=            -19.1944 YYYZ=              9.8356 ZZZX=             75.3486
 ZZZY=             -4.7781 XXYY=           -914.3642 XXZZ=           -797.1098 YYZZ=           -652.0625
 XXYZ=              6.1257 YYXZ=             21.2776 ZZXY=              4.4946
 N-N= 1.646942074699D+03 E-N=-5.787235467050D+03  KE= 1.059312617900D+03
 1\1\GINC-CPU-E-126\SP\RM062X\def2TZVP\C14H26O3Si1\KE291\26-Jun-2019\0\
 \# m062x/def2tzvp int=ultrafine scrf=(solvent=chloroform)\\IP1_3ginp00
 9\\0,1\C,0,-2.270076,0.471703,-0.50849\C,0,-0.980353,1.190916,-0.96645
 1\C,0,0.257286,0.778432,-0.131918\C,0,-0.075824,1.057927,1.340651\C,0,
 -1.410637,0.529886,1.819683\H,0,-3.112626,1.083097,-0.853848\H,0,-1.14
 4195,2.252478,-0.740132\H,0,0.692227,0.661004,2.006051\H,0,-0.098874,2
 .143466,1.499054\O,0,-2.435053,0.471966,0.944652\O,0,-1.61842,0.245,2.
 981968\C,0,-2.504585,-0.963563,-0.996435\C,0,-3.892955,-1.494834,-0.62
 4794\C,0,-0.784662,1.062951,-2.483411\O,0,0.46383,-0.621024,-0.324357\
 Si,0,1.69529,-1.721831,0.010007\C,0,0.848348,-3.395284,-0.132848\C,0,3
 .078975,-1.60231,-1.268419\C,0,2.411869,-1.514157,1.744528\H,0,3.6369,
 -0.663354,-1.199602\H,0,3.792357,-2.421689,-1.120819\H,0,2.685056,-1.6
 86747,-2.286938\H,0,1.635506,-1.583188,2.513645\H,0,3.135633,-2.315813
 ,1.934234\H,0,2.939905,-0.564063,1.877776\H,0,0.057765,-3.50446,0.6167
 37\H,0,0.395393,-3.528283,-1.120847\H,0,1.56739,-4.208396,0.017382\H,0
 ,-0.055704,1.790708,-2.849432\H,0,-0.431926,0.065602,-2.755808\H,0,-1.
 723297,1.251556,-3.014532\H,0,-1.723261,-1.609874,-0.591344\H,0,-2.391
 847,-0.976161,-2.085703\H,0,-4.028897,-2.514047,-0.9996\H,0,-4.032049,
 -1.510596,0.459207\H,0,-4.686613,-0.8732,-1.055825\C,0,1.53954,1.55852
 8,-0.541407\C,0,1.428267,3.059838,-0.539628\C,0,2.061772,3.868065,0.31
 2843\H,0,1.827036,1.211192,-1.540271\H,0,2.341865,1.260124,0.143479\H,
 0,0.792554,3.503726,-1.305219\H,0,1.954262,4.947444,0.261647\H,0,2.716
 73,3.478987,1.089087\\Version=ES64L-G09RevD.01\State=1-A\HF=-1064.3401
 204\RMSD=1.462e-09\Dipole=1.3101228,0.5418065,-1.9954766\Quadrupole=0.
 0647662,7.8785526,-7.9433188,-1.5074303,10.8723681,-0.7691405\PG=C01 [
 X(C14H26O3Si1)]\\@


 In the race for quality, there is no finish line.
                               -- David T. Kearns
 Job cpu time:       0 days  2 hours 30 minutes 42.9 seconds.
 File lengths (MBytes):  RWF=    408 Int=      0 D2E=      0 Chk=     21 Scr=      1
 Normal termination of Gaussian 09 at Wed Jun 26 13:56:51 2019.
