 Entering Gaussian System, Link 0=/usr/local/Cluster-Apps/gaussian/g09/g09
 Initial command:
 /usr/local/Cluster-Apps/gaussian/g09/l1.exe "/home/ke291/rds/hpc-work/26Jun1304IP1NMR/Gau-297280.inp" -scrdir="/home/ke291/rds/hpc-work/26Jun1304IP1NMR/"
 Entering Link 1 = /usr/local/Cluster-Apps/gaussian/g09/l1.exe PID=    297327.
  
 Copyright (c) 1988,1990,1992,1993,1995,1998,2003,2009,2013,
            Gaussian, Inc.  All Rights Reserved.
  
 This is part of the Gaussian(R) 09 program.  It is based on
 the Gaussian(R) 03 system (copyright 2003, Gaussian, Inc.),
 the Gaussian(R) 98 system (copyright 1998, Gaussian, Inc.),
 the Gaussian(R) 94 system (copyright 1995, Gaussian, Inc.),
 the Gaussian 92(TM) system (copyright 1992, Gaussian, Inc.),
 the Gaussian 90(TM) system (copyright 1990, Gaussian, Inc.),
 the Gaussian 88(TM) system (copyright 1988, Gaussian, Inc.),
 the Gaussian 86(TM) system (copyright 1986, Carnegie Mellon
 University), and the Gaussian 82(TM) system (copyright 1983,
 Carnegie Mellon University). Gaussian is a federally registered
 trademark of Gaussian, Inc.
  
 This software contains proprietary and confidential information,
 including trade secrets, belonging to Gaussian, Inc.
  
 This software is provided under written license and may be
 used, copied, transmitted, or stored only in accord with that
 written license.
  
 The following legend is applicable only to US Government
 contracts under FAR:
  
                    RESTRICTED RIGHTS LEGEND
  
 Use, reproduction and disclosure by the US Government is
 subject to restrictions as set forth in subparagraphs (a)
 and (c) of the Commercial Computer Software - Restricted
 Rights clause in FAR 52.227-19.
  
 Gaussian, Inc.
 340 Quinnipiac St., Bldg. 40, Wallingford CT 06492
  
  
 ---------------------------------------------------------------
 Warning -- This program may not be used in any manner that
 competes with the business of Gaussian, Inc. or will provide
 assistance to any competitor of Gaussian, Inc.  The licensee
 of this program is prohibited from giving any competitor of
 Gaussian, Inc. access to this program.  By using this program,
 the user acknowledges that Gaussian, Inc. is engaged in the
 business of creating and licensing software in the field of
 computational chemistry and represents and warrants to the
 licensee that it is not a competitor of Gaussian, Inc. and that
 it will not use this program in any manner prohibited above.
 ---------------------------------------------------------------
  

 Cite this work as:
 Gaussian 09, Revision D.01,
 M. J. Frisch, G. W. Trucks, H. B. Schlegel, G. E. Scuseria, 
 M. A. Robb, J. R. Cheeseman, G. Scalmani, V. Barone, B. Mennucci, 
 G. A. Petersson, H. Nakatsuji, M. Caricato, X. Li, H. P. Hratchian, 
 A. F. Izmaylov, J. Bloino, G. Zheng, J. L. Sonnenberg, M. Hada, 
 M. Ehara, K. Toyota, R. Fukuda, J. Hasegawa, M. Ishida, T. Nakajima, 
 Y. Honda, O. Kitao, H. Nakai, T. Vreven, J. A. Montgomery, Jr., 
 J. E. Peralta, F. Ogliaro, M. Bearpark, J. J. Heyd, E. Brothers, 
 K. N. Kudin, V. N. Staroverov, T. Keith, R. Kobayashi, J. Normand, 
 K. Raghavachari, A. Rendell, J. C. Burant, S. S. Iyengar, J. Tomasi, 
 M. Cossi, N. Rega, J. M. Millam, M. Klene, J. E. Knox, J. B. Cross, 
 V. Bakken, C. Adamo, J. Jaramillo, R. Gomperts, R. E. Stratmann, 
 O. Yazyev, A. J. Austin, R. Cammi, C. Pomelli, J. W. Ochterski, 
 R. L. Martin, K. Morokuma, V. G. Zakrzewski, G. A. Voth, 
 P. Salvador, J. J. Dannenberg, S. Dapprich, A. D. Daniels, 
 O. Farkas, J. B. Foresman, J. V. Ortiz, J. Cioslowski, 
 and D. J. Fox, Gaussian, Inc., Wallingford CT, 2013.
 
 ******************************************
 Gaussian 09:  ES64L-G09RevD.01 24-Apr-2013
                26-Jun-2019 
 ******************************************
 %nprocshared=4
 Will use up to    4 processors via shared memory.
 %mem=6000MB
 %chk=IP1_2ginp003.chk
 --------------------------------------------------------
 # m062x/def2tzvp int=ultrafine scrf=(solvent=chloroform)
 --------------------------------------------------------
 1/38=1/1;
 2/12=2,17=6,18=5,40=1/2;
 3/5=44,7=101,11=2,16=1,25=1,30=1,70=2201,72=7,74=-55,75=-5/1,2,3;
 4//1;
 5/5=2,38=5,53=7/2;
 6/7=2,8=2,9=2,10=2,28=1/1;
 99/5=1,9=1/99;
 ------------
 IP1_2ginp003
 ------------
 Symbolic Z-matrix:
 Charge =  0 Multiplicity = 1
 C                    -2.40156   0.14188  -0.35012 
 C                    -1.00545   0.3233   -0.96335 
 C                     0.10142   0.03972   0.09227 
 C                    -0.09137  -1.42988   0.50267 
 C                    -1.49436  -1.77834   0.96179 
 H                    -2.60867   0.98299   0.3242 
 H                    -0.87026  -0.4554   -1.72717 
 H                     0.12338  -2.06889  -0.36189 
 H                     0.58815  -1.72974   1.30441 
 O                    -2.52643  -1.05371   0.48734 
 O                    -1.72594  -2.70956   1.70471 
 C                    -3.52754   0.04161  -1.38198 
 C                    -4.9238   -0.07397  -0.76282 
 C                    -0.88      1.68183  -1.66947 
 O                     1.35068   0.22644  -0.56498 
 Si                    2.92033  -0.35234  -0.36553 
 C                     3.06439  -2.15309  -0.91366 
 C                     3.93463   0.74046  -1.51165 
 C                     3.53502  -0.18351   1.41164 
 H                     3.57581   0.66782  -2.54362 
 H                     3.88121   1.79201  -1.21129 
 H                     4.98889   0.44221  -1.50231 
 H                     3.46279   0.84833   1.77103 
 H                     2.98814  -0.82476   2.11098 
 H                     4.59021  -0.4776    1.46032 
 H                     2.55977  -2.84428  -0.23145 
 H                     2.64414  -2.29856  -1.91461 
 H                     4.12053  -2.4449   -0.95311 
 H                    -1.48936   1.70699  -2.57667 
 H                    -1.18878   2.50832  -1.02519 
 H                     0.15869   1.84654  -1.96116 
 H                    -3.32622  -0.82193  -2.02844 
 H                    -3.48519   0.93094  -2.01886 
 H                    -5.68727  -0.1267   -1.54478 
 H                    -5.00877  -0.96922  -0.14238 
 H                    -5.14946   0.79482  -0.13423 
 C                     0.04922   0.92563   1.36855 
 C                     0.31705   2.39526   1.19027 
 C                    -0.38598   3.36959   1.77047 
 H                     0.81479   0.51883   2.0435 
 H                    -0.90844   0.78375   1.88282 
 H                     1.1759    2.64961   0.57206 
 H                    -0.12271   4.41545   1.64234 
 H                    -1.24851   3.15785   2.39868 
 
                          Input orientation:                          
 ---------------------------------------------------------------------
 Center     Atomic      Atomic             Coordinates (Angstroms)
 Number     Number       Type             X           Y           Z
 ---------------------------------------------------------------------
      1          6           0       -2.401560    0.141879   -0.350119
      2          6           0       -1.005449    0.323302   -0.963346
      3          6           0        0.101423    0.039722    0.092271
      4          6           0       -0.091369   -1.429883    0.502673
      5          6           0       -1.494364   -1.778337    0.961789
      6          1           0       -2.608665    0.982993    0.324198
      7          1           0       -0.870255   -0.455399   -1.727172
      8          1           0        0.123382   -2.068892   -0.361889
      9          1           0        0.588149   -1.729736    1.304408
     10          8           0       -2.526426   -1.053705    0.487336
     11          8           0       -1.725936   -2.709556    1.704708
     12          6           0       -3.527540    0.041606   -1.381977
     13          6           0       -4.923801   -0.073971   -0.762819
     14          6           0       -0.879998    1.681826   -1.669469
     15          8           0        1.350682    0.226441   -0.564976
     16         14           0        2.920329   -0.352344   -0.365531
     17          6           0        3.064385   -2.153095   -0.913664
     18          6           0        3.934632    0.740458   -1.511650
     19          6           0        3.535022   -0.183506    1.411644
     20          1           0        3.575814    0.667822   -2.543622
     21          1           0        3.881207    1.792013   -1.211287
     22          1           0        4.988886    0.442214   -1.502306
     23          1           0        3.462791    0.848329    1.771034
     24          1           0        2.988144   -0.824764    2.110977
     25          1           0        4.590208   -0.477599    1.460315
     26          1           0        2.559767   -2.844280   -0.231447
     27          1           0        2.644140   -2.298563   -1.914605
     28          1           0        4.120532   -2.444896   -0.953107
     29          1           0       -1.489359    1.706991   -2.576672
     30          1           0       -1.188779    2.508318   -1.025193
     31          1           0        0.158685    1.846537   -1.961162
     32          1           0       -3.326224   -0.821927   -2.028440
     33          1           0       -3.485187    0.930942   -2.018859
     34          1           0       -5.687271   -0.126700   -1.544782
     35          1           0       -5.008774   -0.969220   -0.142384
     36          1           0       -5.149463    0.794822   -0.134230
     37          6           0        0.049222    0.925627    1.368554
     38          6           0        0.317053    2.395262    1.190265
     39          6           0       -0.385977    3.369590    1.770469
     40          1           0        0.814787    0.518828    2.043500
     41          1           0       -0.908442    0.783753    1.882815
     42          1           0        1.175899    2.649605    0.572061
     43          1           0       -0.122705    4.415450    1.642342
     44          1           0       -1.248506    3.157849    2.398678
 ---------------------------------------------------------------------
                    Distance matrix (angstroms):
                    1          2          3          4          5
     1  C    0.000000
     2  C    1.535607   0.000000
     3  C    2.543830   1.555606   0.000000
     4  C    2.921416   2.461384   1.537965   0.000000
     5  C    2.496265   2.891724   2.570591   1.516774   0.000000
     6  H    1.097756   2.159459   2.878911   3.491504   3.045182
     7  H    2.144274   1.099128   2.121244   2.555091   3.061076
     8  H    3.356036   2.712674   2.157081   1.096320   2.110367
     9  H    3.895993   3.449236   2.199354   1.092902   2.111069
    10  O    1.465040   2.512767   2.873543   2.463990   1.347349
    11  O    3.579031   4.103150   3.673925   2.398804   1.213558
    12  C    1.530561   2.572071   3.916986   4.186222   3.597115
    13  C    2.564881   3.943541   5.098723   5.176134   4.200021
    14  C    2.535207   1.536208   2.600658   3.875935   4.390181
    15  O    3.759340   2.391534   1.423898   2.441883   3.800583
    16  Si   5.344810   4.028103   2.882625   3.314392   4.825427
    17  C    5.954918   4.764300   3.820929   3.533812   4.943679
    18  C    6.469527   4.987891   4.213916   4.997656   6.475819
    19  C    6.201023   5.149108   3.685129   3.940862   5.295336
    20  H    6.388824   4.858388   4.406113   5.208504   6.631614
    21  H    6.552688   5.108620   4.365381   5.394408   6.809289
    22  H    7.485748   6.019690   5.156740   5.773533   7.282523
    23  H    6.276064   5.264756   3.843291   4.408066   5.668125
    24  H    6.003358   5.168975   3.627074   3.526501   4.724702
    25  H    7.248879   6.150362   4.721055   4.872483   6.241992
    26  H    5.791890   4.824937   3.803382   3.093214   4.358443
    27  H    5.819146   4.593318   3.995064   3.752446   5.066704
    28  H    7.042207   5.825694   4.839357   4.570520   5.969773
    29  H    2.870405   2.179813   3.526135   4.612670   4.966713
    30  H    2.743464   2.193566   3.001219   4.364414   4.734648
    31  H    3.472200   2.161270   2.735772   4.107060   4.941247
    32  H    2.144921   2.798566   4.121725   4.152160   3.634818
    33  H    2.140458   2.762686   4.256162   4.842481   4.493087
    34  H    3.506458   4.739201   6.018024   6.099547   5.156673
    35  H    2.841700   4.286164   5.214129   4.980882   3.771597
    36  H    2.832651   4.252366   5.309735   5.562308   4.602407
    37  C    3.094258   2.629236   1.554494   2.513552   3.139990
    38  C    3.852450   3.268038   2.607807   3.907854   4.555476
    39  C    4.356327   4.139730   3.760576   4.972830   5.327630
    40  H    4.026958   3.520314   2.132071   2.644379   3.432090
    41  H    2.761774   2.884798   2.186197   2.733603   2.784941
    42  H    4.465122   3.539412   2.862898   4.272354   5.185447
    43  H    5.237031   4.930976   4.647575   5.955480   6.380251
    44  H    4.240459   4.404196   4.106646   5.097164   5.146944
                    6          7          8          9         10
     6  H    0.000000
     7  H    3.049452   0.000000
     8  H    4.153167   2.335524   0.000000
     9  H    4.305732   3.597409   1.762833   0.000000
    10  O    2.044876   2.829296   2.961971   3.290167   0.000000
    11  O    4.039794   4.194188   2.846270   2.544657   2.205589
    12  C    2.154431   2.725314   4.338665   5.224291   2.386685
    13  C    2.767424   4.184101   5.441922   6.115274   2.875791
    14  C    2.729719   2.138026   4.096880   4.757957   3.853007
    15  O    4.127884   2.597723   2.610759   2.811171   4.216409
    16  Si   5.729627   4.029046   3.281686   3.181976   5.557556
    17  C    6.599307   4.361807   2.993500   3.351242   5.867591
    18  C    6.800287   4.956154   4.872374   5.023046   6.997159
    19  C    6.347295   5.415954   4.282451   3.329623   6.192959
    20  H    6.824332   4.657869   4.916182   5.429711   7.027638
    21  H    6.717936   5.281419   5.454293   5.438352   7.213958
    22  H    7.832710   5.931763   5.592793   5.653450   7.916840
    23  H    6.242920   5.719479   4.920487   3.889438   6.413761
    24  H    6.146937   5.454820   3.983690   2.688774   5.753182
    25  H    7.432891   6.322754   5.079879   4.196264   7.205905
    26  H    6.455188   4.439482   2.560120   2.736482   5.439868
    27  H    6.585804   3.972827   2.969494   3.861698   5.835559
    28  H    7.659244   5.428188   4.058094   4.252712   6.942070
    29  H    3.192501   2.404344   4.665136   5.584793   4.252657
    30  H    2.482650   3.062328   4.807556   5.152244   4.094515
    31  H    3.691450   2.532267   4.229599   4.861904   4.649341
    32  H    3.050825   2.501377   4.028907   5.220566   2.650005
    33  H    2.502182   2.974036   4.976578   5.891976   3.337523
    34  H    3.768597   4.831661   6.239794   7.075910   3.870372
    35  H    3.128795   4.461267   5.253236   5.830707   2.562369
    36  H    2.588671   4.734146   6.004630   6.431428   3.268596
    37  C    2.856280   3.512291   3.459346   2.710260   3.365748
    38  C    3.362202   4.248224   4.730260   4.135472   4.524915
    39  C    3.567616   5.205628   5.863743   5.212414   5.078729
    40  H    3.858947   4.243401   3.600032   2.377743   4.007270
    41  H    2.315112   3.816931   3.773717   2.981940   2.818064
    42  H    4.142699   4.371987   4.923847   4.478885   5.237260
    43  H    4.438385   5.969726   6.791479   6.195387   6.084700
    44  H    3.299015   5.497388   6.068083   5.334718   4.798280
                   11         12         13         14         15
    11  O    0.000000
    12  C    4.510243   0.000000
    13  C    4.823001   1.531750   0.000000
    14  C    5.602224   3.127691   4.500798   0.000000
    15  O    4.820490   4.949617   6.284785   2.883398   0.000000
    16  Si   5.606257   6.539371   7.859116   4.503397   1.684803
    17  C    5.487504   6.963441   8.255703   5.553019   2.953058
    18  C    7.368147   7.495947   8.927255   4.908334   2.799500
    19  C    5.843329   7.598340   8.734528   5.697817   2.974294
    20  H    7.587064   7.224902   8.715789   4.652592   3.010161
    21  H    7.759330   7.614630   9.011725   4.784469   3.045044
    22  H    8.081301   8.526692   9.953625   6.000698   3.763200
    23  H    6.291727   7.710837   8.809425   5.602820   3.210092
    24  H    5.093137   7.443485   8.451110   5.961316   3.308631
    25  H    6.703360   8.616614   9.778630   6.661968   3.884843
    26  H    4.704689   6.834279   7.997547   5.863917   3.316995
    27  H    5.689104   6.621912   7.971772   5.321949   3.141684
    28  H    6.427691   8.053547   9.351869   6.522907   3.867655
    29  H    6.155654   2.890499   4.272854   1.093147   3.782166
    30  H    5.913299   3.417860   4.548345   1.092486   3.444942
    31  H    6.143971   4.145056   5.563815   1.091365   2.448449
    32  H    4.478890   1.097329   2.171057   3.518758   5.011412
    33  H    5.496648   1.094683   2.158031   2.733662   5.098600
    34  H    5.737814   2.172388   1.094136   5.137722   7.114598
    35  H    4.149403   2.180003   1.092534   5.138757   6.484664
    36  H    5.232867   2.180560   1.095832   4.622993   6.539150
    37  C    4.059402   4.597841   5.502082   3.265711   2.433351
    38  C    5.522465   5.190089   6.113771   3.181195   2.975407
    39  C    6.225418   5.557231   6.234381   3.863389   4.283652
    40  H    4.122198   5.551346   6.415468   4.243937   2.678959
    41  H    3.592106   4.250803   4.884483   3.664160   3.377265
    42  H    6.198721   5.722085   6.812203   3.191828   2.682373
    43  H    7.303420   6.314263   6.999302   4.360537   4.958923
    44  H    5.927561   5.403547   5.826450   4.343301   4.912451
                   16         17         18         19         20
    16  Si   0.000000
    17  C    1.887831   0.000000
    18  C    1.880589   3.080189   0.000000
    19  C    1.888043   3.083478   3.091771   0.000000
    20  H    2.492886   3.297862   1.094985   4.046054   0.000000
    21  H    2.497370   4.039759   1.094916   3.301861   1.769799
    22  H    2.490483   3.284179   1.095668   3.316075   1.769749
    23  H    2.510138   4.046588   3.318175   1.095017   4.319909
    24  H    2.522077   3.304350   4.058224   1.095150   4.923257
    25  H    2.477478   3.281950   3.278112   1.096484   4.286315
    26  H    2.521454   1.094439   4.047162   3.275758   4.325895
    27  H    2.502734   1.095285   3.326168   4.041172   3.172242
    28  H    2.482842   1.096426   3.239291   3.323967   3.537721
    29  H    5.345592   6.196971   5.611429   6.687679   5.170778
    30  H    5.050080   6.311150   5.441627   5.958052   5.328639
    31  H    3.873989   5.053454   3.960208   5.186188   3.661338
    32  H    6.481142   6.622282   7.445008   7.701848   7.079752
    33  H    6.738765   7.323226   7.439574   7.892635   7.085361
    34  H    8.690934   9.005336   9.660956   9.684749   9.350598
    35  H    7.956193   8.195873   9.207736   8.719450   9.063167
    36  H    8.154203   8.761566   9.188091   8.875085   9.052721
    37  C    3.589362   4.876295   4.840070   3.658256   5.273370
    38  C    4.092296   5.715059   4.808908   4.129695   5.248379
    39  C    5.417282   7.043410   6.029287   5.303535   6.450327
    40  H    3.315973   4.576536   4.735150   2.879617   5.356039
    41  H    4.583150   5.677035   5.914358   4.571867   6.302011
    42  H    3.596361   5.370259   3.949342   3.781121   4.403923
    43  H    6.001955   7.735405   6.317849   5.880696   6.726519
    44  H    6.110768   7.601234   6.928157   5.917857   7.341705
                   21         22         23         24         25
    21  H    0.000000
    22  H    1.770198   0.000000
    23  H    3.155923   3.634371   0.000000
    24  H    4.322328   4.320187   1.772030   0.000000
    25  H    3.576490   3.127639   1.767965   1.763659   0.000000
    26  H    4.919502   4.279807   4.296597   3.122323   3.547665
    27  H    4.331028   3.630383   4.914983   4.300667   4.300369
    28  H    4.251509   3.064484   4.324222   3.646333   3.148882
    29  H    5.542065   6.687420   6.645573   6.959301   7.617797
    30  H    5.123718   6.531460   5.675522   6.196102   6.963486
    31  H    3.797691   5.051090   5.083584   5.632407   6.061890
    32  H    7.710219   8.427095   7.957165   7.550233   8.657937
    33  H    7.460387   8.503858   7.914829   7.876678   8.905091
    34  H    9.764653  10.691389   9.781051   9.440058  10.713557
    35  H    9.370097  10.187970   8.873109   8.309585   9.744270
    36  H    9.149177  10.236312   8.820647   8.595619   9.951021
    37  C    4.700033   5.733743   3.438084   3.500332   4.753737
    38  C    4.339880   5.735012   3.553303   4.283807   5.156172
    39  C    5.439529   6.940442   4.601062   5.393815   6.297577
    40  H    4.649470   5.477382   2.682300   2.556027   3.948009
    41  H    5.790578   6.808390   4.373139   4.221702   5.657267
    42  H    3.351788   4.869748   3.148334   4.209957   4.714436
    43  H    5.572875   7.197484   5.059318   6.112024   6.796073
    44  H    6.419604   7.842028   5.284330   5.821785   6.941728
                   26         27         28         29         30
    26  H    0.000000
    27  H    1.771425   0.000000
    28  H    1.765301   1.767944   0.000000
    29  H    6.527601   5.793842   7.165543   0.000000
    30  H    6.582700   6.211958   7.261426   1.771880   0.000000
    31  H    5.546249   4.833374   5.926956   1.764759   1.769082
    32  H    6.477962   6.151314   7.697048   3.173335   4.082365
    33  H    7.347694   6.928869   8.389224   2.212857   2.957867
    34  H    8.782011   8.617782  10.095401   4.695709   5.239248
    35  H    7.797858   7.967121   9.283271   5.047192   5.240705
    36  H    8.525535   8.571990   9.853890   4.493766   4.406461
    37  C    4.803648   5.282815   5.772876   4.306108   3.125313
    38  C    5.873996   6.089954   6.518253   4.233988   2.681150
    39  C    7.162210   7.408734   7.844408   4.783233   3.033481
    40  H    4.419370   5.191418   5.356423   5.297812   4.170039
    41  H    5.446210   6.044990   6.614923   4.590954   3.392525
    42  H    5.722193   5.729189   6.078729   4.231624   2.857076
    43  H    7.963066   8.086116   8.473828   5.196496   3.448102
    44  H    7.579317   7.970542   8.452916   5.188170   3.485448
                   31         32         33         34         35
    31  H    0.000000
    32  H    4.389740   0.000000
    33  H    3.757585   1.760088   0.000000
    34  H    6.184031   2.508348   2.488479   0.000000
    35  H    6.159470   2.531773   3.074588   1.771135   0.000000
    36  H    5.711411   3.086440   2.517969   1.768643   1.769662
    37  C    3.456453   5.097759   4.895574   6.519377   5.608627
    38  C    3.202760   5.829566   5.186496   7.063475   6.438954
    39  C    4.067114   6.375388   5.469105   7.163704   6.622275
    40  H    4.269731   5.960394   5.929787   7.454477   6.395798
    41  H    4.128490   4.870502   4.678070   5.951013   4.897659
    42  H    2.845498   6.251660   5.602891   7.700130   7.201146
    43  H    4.434381   7.153132   6.070624   7.858326   7.486894
    44  H    4.765284   6.305149   5.429226   6.785409   6.134273
                   36         37         38         39         40
    36  H    0.000000
    37  C    5.413113   0.000000
    38  C    5.847948   1.504443   0.000000
    39  C    5.740044   2.514734   1.334242   0.000000
    40  H    6.355388   1.098693   2.120555   3.105354   0.000000
    41  H    4.696259   1.096227   2.139725   2.640482   1.750864
    42  H    6.629425   2.208145   1.088340   2.096191   2.614526
    43  H    6.444645   3.504766   2.116346   1.086072   4.027838
    44  H    5.216990   2.779940   2.119617   1.087859   3.368644
                   41         42         43         44
    41  H    0.000000
    42  H    3.089330   0.000000
    43  H    3.723497   2.439279   0.000000
    44  H    2.453180   3.077756   1.849603   0.000000
 Stoichiometry    C14H26O3Si
 Framework group  C1[X(C14H26O3Si)]
 Deg. of freedom   126
 Full point group                 C1      NOp   1
 Largest Abelian subgroup         C1      NOp   1
 Largest concise Abelian subgroup C1      NOp   1
                         Standard orientation:                         
 ---------------------------------------------------------------------
 Center     Atomic      Atomic             Coordinates (Angstroms)
 Number     Number       Type             X           Y           Z
 ---------------------------------------------------------------------
      1          6           0       -2.401560    0.141879   -0.350119
      2          6           0       -1.005449    0.323302   -0.963346
      3          6           0        0.101423    0.039722    0.092271
      4          6           0       -0.091369   -1.429883    0.502673
      5          6           0       -1.494364   -1.778337    0.961789
      6          1           0       -2.608665    0.982993    0.324198
      7          1           0       -0.870255   -0.455399   -1.727172
      8          1           0        0.123382   -2.068892   -0.361889
      9          1           0        0.588149   -1.729736    1.304408
     10          8           0       -2.526426   -1.053705    0.487336
     11          8           0       -1.725936   -2.709556    1.704708
     12          6           0       -3.527540    0.041606   -1.381977
     13          6           0       -4.923801   -0.073971   -0.762819
     14          6           0       -0.879998    1.681826   -1.669469
     15          8           0        1.350682    0.226441   -0.564976
     16         14           0        2.920329   -0.352344   -0.365531
     17          6           0        3.064385   -2.153095   -0.913664
     18          6           0        3.934632    0.740458   -1.511650
     19          6           0        3.535022   -0.183506    1.411644
     20          1           0        3.575814    0.667822   -2.543622
     21          1           0        3.881207    1.792013   -1.211287
     22          1           0        4.988886    0.442214   -1.502306
     23          1           0        3.462791    0.848329    1.771034
     24          1           0        2.988144   -0.824764    2.110977
     25          1           0        4.590208   -0.477599    1.460315
     26          1           0        2.559767   -2.844280   -0.231447
     27          1           0        2.644140   -2.298563   -1.914605
     28          1           0        4.120532   -2.444896   -0.953107
     29          1           0       -1.489359    1.706991   -2.576672
     30          1           0       -1.188779    2.508318   -1.025193
     31          1           0        0.158685    1.846537   -1.961162
     32          1           0       -3.326224   -0.821927   -2.028440
     33          1           0       -3.485187    0.930942   -2.018859
     34          1           0       -5.687271   -0.126700   -1.544782
     35          1           0       -5.008774   -0.969220   -0.142384
     36          1           0       -5.149463    0.794822   -0.134230
     37          6           0        0.049222    0.925627    1.368554
     38          6           0        0.317053    2.395262    1.190265
     39          6           0       -0.385977    3.369590    1.770469
     40          1           0        0.814787    0.518828    2.043500
     41          1           0       -0.908442    0.783753    1.882815
     42          1           0        1.175899    2.649605    0.572061
     43          1           0       -0.122705    4.415450    1.642342
     44          1           0       -1.248506    3.157849    2.398678
 ---------------------------------------------------------------------
 Rotational constants (GHZ):      0.5276037      0.2485199      0.2216601
 Standard basis: def2TZVP (5D, 7F)
 There are   810 symmetry adapted cartesian basis functions of A   symmetry.
 There are   720 symmetry adapted basis functions of A   symmetry.
   720 basis functions,  1144 primitive gaussians,   810 cartesian basis functions
    74 alpha electrons       74 beta electrons
       nuclear repulsion energy      1616.9544452746 Hartrees.
 NAtoms=   44 NActive=   44 NUniq=   44 SFac= 1.00D+00 NAtFMM=   60 NAOKFM=F Big=F
 Integral buffers will be    131072 words long.
 Raffenetti 2 integral format.
 Two-electron integral symmetry is turned on.
 ------------------------------------------------------------------------------
 Polarizable Continuum Model (PCM)
 =================================
 Model                : PCM (using non-symmetric T matrix).
 Atomic radii         : UFF (Universal Force Field).
 Polarization charges : Total charges.
 Charge compensation  : None.
 Solution method      : On-the-fly selection.
 Cavity type          : Scaled VdW (van der Waals Surface) (Alpha=1.100).
 Cavity algorithm     : GePol (No added spheres)
                        Default sphere list used, NSphG=   44.
                        Lebedev-Laikov grids with approx.  5.0 points / Ang**2.
                        Smoothing algorithm: Karplus/York (Gamma=1.0000).
                        Polarization charges: spherical gaussians, with
                                              point-specific exponents (IZeta= 3).
                        Self-potential: point-specific (ISelfS= 7).
                        Self-field    : sphere-specific E.n sum rule (ISelfD= 2).
 Solvent              : Chloroform, Eps=   4.711300 Eps(inf)=   2.090627
 ------------------------------------------------------------------------------
 One-electron integrals computed using PRISM.
   1 Symmetry operations used in ECPInt.
 ECPInt:  NShTT=   46360 NPrTT=  137514 LenC2=   41844 LenP2D=   89690.
 LDataN:  DoStor=T MaxTD1= 6 Len=  172
 NBasis=   720 RedAO= T EigKep=  4.21D-05  NBF=   720
 NBsUse=   720 1.00D-06 EigRej= -1.00D+00 NBFU=   720
 ExpMin= 7.01D-02 ExpMax= 4.48D+04 ExpMxC= 1.53D+03 IAcc=3 IRadAn=         5 AccDes= 0.00D+00
 Harris functional with IExCor= 1009 and IRadAn=       5 diagonalized for initial guess.
 HarFok:  IExCor= 1009 AccDes= 0.00D+00 IRadAn=         5 IDoV= 1 UseB2=F ITyADJ=14
 ICtDFT=  3500011 ScaDFX=  1.000000  1.000000  1.000000  1.000000
 FoFCou: FMM=F IPFlag=           0 FMFlag=      100000 FMFlg1=           0
         NFxFlg=           0 DoJE=T BraDBF=F KetDBF=T FulRan=T
         wScrn=  0.000000 ICntrl=     500 IOpCl=  0 I1Cent=   200000004 NGrid=           0
         NMat0=    1 NMatS0=      1 NMatT0=    0 NMatD0=    1 NMtDS0=    0 NMtDT0=    0
 Petite list used in FoFCou.
 Requested convergence on RMS density matrix=1.00D-08 within 128 cycles.
 Requested convergence on MAX density matrix=1.00D-06.
 Requested convergence on             energy=1.00D-06.
 No special actions if energy rises.
 Inv3:  Mode=1 IEnd=    25614252.
 Iteration    1 A*A^-1 deviation from unit magnitude is 5.33D-15 for   2905.
 Iteration    1 A*A^-1 deviation from orthogonality  is 2.82D-15 for   2671   1261.
 Iteration    1 A^-1*A deviation from unit magnitude is 5.55D-15 for   2901.
 Iteration    1 A^-1*A deviation from orthogonality  is 1.66D-09 for   2307   2305.
 Iteration    2 A*A^-1 deviation from unit magnitude is 7.55D-15 for    724.
 Iteration    2 A*A^-1 deviation from orthogonality  is 2.60D-15 for   2196    303.
 Iteration    2 A^-1*A deviation from unit magnitude is 1.11D-15 for    329.
 Iteration    2 A^-1*A deviation from orthogonality  is 3.45D-16 for   2283   1846.
 Error on total polarization charges =  0.01486
 SCF Done:  E(RM062X) =  -1064.33929451     A.U. after   14 cycles
            NFock= 14  Conv=0.15D-08     -V/T= 2.0047

 **********************************************************************

            Population analysis using the SCF density.

 **********************************************************************

 Orbital symmetries:
       Occupied  (A) (A) (A) (A) (A) (A) (A) (A) (A) (A) (A) (A)
                 (A) (A) (A) (A) (A) (A) (A) (A) (A) (A) (A) (A)
                 (A) (A) (A) (A) (A) (A) (A) (A) (A) (A) (A) (A)
                 (A) (A) (A) (A) (A) (A) (A) (A) (A) (A) (A) (A)
                 (A) (A) (A) (A) (A) (A) (A) (A) (A) (A) (A) (A)
                 (A) (A) (A) (A) (A) (A) (A) (A) (A) (A) (A) (A)
                 (A) (A)
       Virtual   (A) (A) (A) (A) (A) (A) (A) (A) (A) (A) (A) (A)
                 (A) (A) (A) (A) (A) (A) (A) (A) (A) (A) (A) (A)
                 (A) (A) (A) (A) (A) (A) (A) (A) (A) (A) (A) (A)
                 (A) (A) (A) (A) (A) (A) (A) (A) (A) (A) (A) (A)
                 (A) (A) (A) (A) (A) (A) (A) (A) (A) (A) (A) (A)
                 (A) (A) (A) (A) (A) (A) (A) (A) (A) (A) (A) (A)
                 (A) (A) (A) (A) (A) (A) (A) (A) (A) (A) (A) (A)
                 (A) (A) (A) (A) (A) (A) (A) (A) (A) (A) (A) (A)
                 (A) (A) (A) (A) (A) (A) (A) (A) (A) (A) (A) (A)
                 (A) (A) (A) (A) (A) (A) (A) (A) (A) (A) (A) (A)
                 (A) (A) (A) (A) (A) (A) (A) (A) (A) (A) (A) (A)
                 (A) (A) (A) (A) (A) (A) (A) (A) (A) (A) (A) (A)
                 (A) (A) (A) (A) (A) (A) (A) (A) (A) (A) (A) (A)
                 (A) (A) (A) (A) (A) (A) (A) (A) (A) (A) (A) (A)
                 (A) (A) (A) (A) (A) (A) (A) (A) (A) (A) (A) (A)
                 (A) (A) (A) (A) (A) (A) (A) (A) (A) (A) (A) (A)
                 (A) (A) (A) (A) (A) (A) (A) (A) (A) (A) (A) (A)
                 (A) (A) (A) (A) (A) (A) (A) (A) (A) (A) (A) (A)
                 (A) (A) (A) (A) (A) (A) (A) (A) (A) (A) (A) (A)
                 (A) (A) (A) (A) (A) (A) (A) (A) (A) (A) (A) (A)
                 (A) (A) (A) (A) (A) (A) (A) (A) (A) (A) (A) (A)
                 (A) (A) (A) (A) (A) (A) (A) (A) (A) (A) (A) (A)
                 (A) (A) (A) (A) (A) (A) (A) (A) (A) (A) (A) (A)
                 (A) (A) (A) (A) (A) (A) (A) (A) (A) (A) (A) (A)
                 (A) (A) (A) (A) (A) (A) (A) (A) (A) (A) (A) (A)
                 (A) (A) (A) (A) (A) (A) (A) (A) (A) (A) (A) (A)
                 (A) (A) (A) (A) (A) (A) (A) (A) (A) (A) (A) (A)
                 (A) (A) (A) (A) (A) (A) (A) (A) (A) (A) (A) (A)
                 (A) (A) (A) (A) (A) (A) (A) (A) (A) (A) (A) (A)
                 (A) (A) (A) (A) (A) (A) (A) (A) (A) (A) (A) (A)
                 (A) (A) (A) (A) (A) (A) (A) (A) (A) (A) (A) (A)
                 (A) (A) (A) (A) (A) (A) (A) (A) (A) (A) (A) (A)
                 (A) (A) (A) (A) (A) (A) (A) (A) (A) (A) (A) (A)
                 (A) (A) (A) (A) (A) (A) (A) (A) (A) (A) (A) (A)
                 (A) (A) (A) (A) (A) (A) (A) (A) (A) (A) (A) (A)
                 (A) (A) (A) (A) (A) (A) (A) (A) (A) (A) (A) (A)
                 (A) (A) (A) (A) (A) (A) (A) (A) (A) (A) (A) (A)
                 (A) (A) (A) (A) (A) (A) (A) (A) (A) (A) (A) (A)
                 (A) (A) (A) (A) (A) (A) (A) (A) (A) (A) (A) (A)
                 (A) (A) (A) (A) (A) (A) (A) (A) (A) (A) (A) (A)
                 (A) (A) (A) (A) (A) (A) (A) (A) (A) (A) (A) (A)
                 (A) (A) (A) (A) (A) (A) (A) (A) (A) (A) (A) (A)
                 (A) (A) (A) (A) (A) (A) (A) (A) (A) (A) (A) (A)
                 (A) (A) (A) (A) (A) (A) (A) (A) (A) (A) (A) (A)
                 (A) (A) (A) (A) (A) (A) (A) (A) (A) (A) (A) (A)
                 (A) (A) (A) (A) (A) (A) (A) (A) (A) (A) (A) (A)
                 (A) (A) (A) (A) (A) (A) (A) (A) (A) (A) (A) (A)
                 (A) (A) (A) (A) (A) (A) (A) (A) (A) (A) (A) (A)
                 (A) (A) (A) (A) (A) (A) (A) (A) (A) (A) (A) (A)
                 (A) (A) (A) (A) (A) (A) (A) (A) (A) (A) (A) (A)
                 (A) (A) (A) (A) (A) (A) (A) (A) (A) (A) (A) (A)
                 (A) (A) (A) (A) (A) (A) (A) (A) (A) (A) (A) (A)
                 (A) (A) (A) (A) (A) (A) (A) (A) (A) (A) (A) (A)
                 (A) (A) (A) (A) (A) (A) (A) (A) (A) (A)
 The electronic state is 1-A.
 Alpha  occ. eigenvalues --  -67.01770 -19.67306 -19.62116 -19.61685 -10.68365
 Alpha  occ. eigenvalues --  -10.62154 -10.61058 -10.55849 -10.55488 -10.54820
 Alpha  occ. eigenvalues --  -10.54758 -10.54111 -10.53356 -10.52757 -10.52483
 Alpha  occ. eigenvalues --  -10.51275 -10.51082 -10.50889  -5.55218  -3.86405
 Alpha  occ. eigenvalues --   -3.86260  -3.86249  -1.22994  -1.14272  -1.13497
 Alpha  occ. eigenvalues --   -0.93550  -0.90643  -0.88256  -0.84971  -0.80817
 Alpha  occ. eigenvalues --   -0.79716  -0.78621  -0.77029  -0.76876  -0.73276
 Alpha  occ. eigenvalues --   -0.70339  -0.68328  -0.64955  -0.62555  -0.59599
 Alpha  occ. eigenvalues --   -0.58178  -0.56449  -0.55563  -0.54482  -0.53121
 Alpha  occ. eigenvalues --   -0.52107  -0.50676  -0.50419  -0.49562  -0.48950
 Alpha  occ. eigenvalues --   -0.47865  -0.47648  -0.47201  -0.46904  -0.46581
 Alpha  occ. eigenvalues --   -0.46056  -0.45338  -0.45057  -0.44589  -0.44082
 Alpha  occ. eigenvalues --   -0.43706  -0.43155  -0.42094  -0.41608  -0.40979
 Alpha  occ. eigenvalues --   -0.40419  -0.39607  -0.38463  -0.36933  -0.36501
 Alpha  occ. eigenvalues --   -0.35931  -0.34536  -0.33788  -0.31580
 Alpha virt. eigenvalues --    0.03278   0.03612   0.04868   0.06866   0.07145
 Alpha virt. eigenvalues --    0.07672   0.09172   0.09206   0.09885   0.10372
 Alpha virt. eigenvalues --    0.10776   0.11230   0.11562   0.12158   0.12756
 Alpha virt. eigenvalues --    0.13160   0.13941   0.14029   0.14566   0.14781
 Alpha virt. eigenvalues --    0.15177   0.15713   0.16012   0.16112   0.16498
 Alpha virt. eigenvalues --    0.16703   0.17053   0.17175   0.18028   0.18214
 Alpha virt. eigenvalues --    0.18646   0.19162   0.19997   0.20197   0.20470
 Alpha virt. eigenvalues --    0.21292   0.21522   0.22123   0.22885   0.23020
 Alpha virt. eigenvalues --    0.23668   0.23889   0.24593   0.25116   0.25353
 Alpha virt. eigenvalues --    0.26521   0.26986   0.27294   0.27476   0.28317
 Alpha virt. eigenvalues --    0.28442   0.29097   0.29125   0.29739   0.30509
 Alpha virt. eigenvalues --    0.31519   0.31718   0.32719   0.32793   0.33290
 Alpha virt. eigenvalues --    0.34126   0.34735   0.35858   0.36137   0.37078
 Alpha virt. eigenvalues --    0.37653   0.37847   0.38305   0.38985   0.39305
 Alpha virt. eigenvalues --    0.39638   0.40080   0.40228   0.40818   0.41644
 Alpha virt. eigenvalues --    0.42384   0.42430   0.42835   0.43564   0.44490
 Alpha virt. eigenvalues --    0.44829   0.44892   0.45301   0.45592   0.46586
 Alpha virt. eigenvalues --    0.46870   0.47240   0.47484   0.47644   0.48482
 Alpha virt. eigenvalues --    0.48634   0.49031   0.49452   0.49676   0.49860
 Alpha virt. eigenvalues --    0.50281   0.50581   0.50757   0.51188   0.51358
 Alpha virt. eigenvalues --    0.51925   0.52301   0.53031   0.53283   0.53826
 Alpha virt. eigenvalues --    0.54217   0.54884   0.54964   0.55259   0.55933
 Alpha virt. eigenvalues --    0.56501   0.57035   0.57205   0.58194   0.58574
 Alpha virt. eigenvalues --    0.59378   0.59845   0.60550   0.60893   0.61632
 Alpha virt. eigenvalues --    0.62530   0.63217   0.64013   0.64559   0.65481
 Alpha virt. eigenvalues --    0.66051   0.66306   0.66680   0.67592   0.68642
 Alpha virt. eigenvalues --    0.70385   0.71133   0.71374   0.71872   0.72390
 Alpha virt. eigenvalues --    0.74099   0.75712   0.75897   0.76021   0.76835
 Alpha virt. eigenvalues --    0.77482   0.78938   0.79595   0.80608   0.81827
 Alpha virt. eigenvalues --    0.82764   0.83374   0.84234   0.84381   0.85138
 Alpha virt. eigenvalues --    0.85652   0.88019   0.89346   0.89609   0.89752
 Alpha virt. eigenvalues --    0.91087   0.91936   0.92057   0.93234   0.93614
 Alpha virt. eigenvalues --    0.94064   0.95004   0.95104   0.96249   0.97385
 Alpha virt. eigenvalues --    0.98083   0.98886   0.99876   1.00810   1.01661
 Alpha virt. eigenvalues --    1.01877   1.02216   1.03142   1.04461   1.04788
 Alpha virt. eigenvalues --    1.04993   1.05543   1.05840   1.06634   1.07682
 Alpha virt. eigenvalues --    1.08585   1.08949   1.09460   1.09950   1.11144
 Alpha virt. eigenvalues --    1.11363   1.12631   1.13273   1.13377   1.14083
 Alpha virt. eigenvalues --    1.15496   1.16418   1.16997   1.18009   1.18531
 Alpha virt. eigenvalues --    1.19617   1.20691   1.21406   1.23484   1.24002
 Alpha virt. eigenvalues --    1.25764   1.26417   1.27119   1.27368   1.28156
 Alpha virt. eigenvalues --    1.29699   1.30949   1.31135   1.32480   1.33583
 Alpha virt. eigenvalues --    1.34416   1.35261   1.36389   1.37512   1.38433
 Alpha virt. eigenvalues --    1.38647   1.39877   1.41016   1.41167   1.43230
 Alpha virt. eigenvalues --    1.43618   1.44565   1.45321   1.46377   1.46512
 Alpha virt. eigenvalues --    1.47721   1.49189   1.49487   1.51015   1.52951
 Alpha virt. eigenvalues --    1.54403   1.55235   1.55474   1.55964   1.56836
 Alpha virt. eigenvalues --    1.57408   1.57810   1.58002   1.58972   1.59689
 Alpha virt. eigenvalues --    1.60279   1.60398   1.60751   1.61256   1.61460
 Alpha virt. eigenvalues --    1.62376   1.63312   1.63463   1.64329   1.65403
 Alpha virt. eigenvalues --    1.65611   1.65732   1.66233   1.66659   1.67070
 Alpha virt. eigenvalues --    1.67316   1.67463   1.68159   1.68590   1.69268
 Alpha virt. eigenvalues --    1.70108   1.71369   1.71585   1.72507   1.72920
 Alpha virt. eigenvalues --    1.74264   1.74921   1.75856   1.77306   1.77383
 Alpha virt. eigenvalues --    1.78005   1.78882   1.80235   1.82631   1.83142
 Alpha virt. eigenvalues --    1.84146   1.85027   1.85246   1.86938   1.87030
 Alpha virt. eigenvalues --    1.88383   1.89624   1.89955   1.90962   1.92366
 Alpha virt. eigenvalues --    1.93961   1.94174   1.95854   1.97108   1.97459
 Alpha virt. eigenvalues --    1.98426   1.99624   2.00367   2.00898   2.02166
 Alpha virt. eigenvalues --    2.02547   2.03571   2.04238   2.05455   2.06593
 Alpha virt. eigenvalues --    2.06785   2.07516   2.07952   2.08557   2.09767
 Alpha virt. eigenvalues --    2.10571   2.12179   2.12303   2.13663   2.14633
 Alpha virt. eigenvalues --    2.15460   2.16389   2.17497   2.18309   2.20256
 Alpha virt. eigenvalues --    2.21850   2.22273   2.22953   2.23113   2.23919
 Alpha virt. eigenvalues --    2.24867   2.25723   2.26072   2.27049   2.28839
 Alpha virt. eigenvalues --    2.29571   2.30048   2.31406   2.32181   2.32957
 Alpha virt. eigenvalues --    2.34004   2.34245   2.36093   2.36357   2.36899
 Alpha virt. eigenvalues --    2.37454   2.38074   2.38331   2.39134   2.39503
 Alpha virt. eigenvalues --    2.40480   2.40808   2.41050   2.42085   2.42349
 Alpha virt. eigenvalues --    2.42818   2.43621   2.44483   2.44899   2.45031
 Alpha virt. eigenvalues --    2.45715   2.46227   2.47300   2.48395   2.49337
 Alpha virt. eigenvalues --    2.50332   2.51710   2.51823   2.52899   2.53834
 Alpha virt. eigenvalues --    2.54570   2.55895   2.56531   2.57653   2.58395
 Alpha virt. eigenvalues --    2.59266   2.59617   2.60256   2.60550   2.60881
 Alpha virt. eigenvalues --    2.61619   2.61703   2.62766   2.63475   2.63924
 Alpha virt. eigenvalues --    2.64598   2.65502   2.66671   2.67015   2.67418
 Alpha virt. eigenvalues --    2.68142   2.68699   2.69309   2.69991   2.70645
 Alpha virt. eigenvalues --    2.71203   2.71714   2.72068   2.73329   2.73678
 Alpha virt. eigenvalues --    2.74201   2.75330   2.75846   2.76762   2.79252
 Alpha virt. eigenvalues --    2.79317   2.80661   2.81489   2.82399   2.84794
 Alpha virt. eigenvalues --    2.85409   2.86134   2.86604   2.87520   2.88449
 Alpha virt. eigenvalues --    2.89297   2.89816   2.91931   2.92284   2.93110
 Alpha virt. eigenvalues --    2.94168   2.95441   2.96192   2.98553   3.00333
 Alpha virt. eigenvalues --    3.00986   3.02681   3.03358   3.05046   3.05673
 Alpha virt. eigenvalues --    3.06568   3.07357   3.08598   3.09276   3.09896
 Alpha virt. eigenvalues --    3.10845   3.11302   3.12667   3.13079   3.13785
 Alpha virt. eigenvalues --    3.14178   3.14686   3.15123   3.16488   3.16796
 Alpha virt. eigenvalues --    3.17192   3.17435   3.17862   3.19837   3.20389
 Alpha virt. eigenvalues --    3.21296   3.21870   3.22683   3.23027   3.23506
 Alpha virt. eigenvalues --    3.24012   3.24560   3.25477   3.25777   3.26306
 Alpha virt. eigenvalues --    3.27691   3.28688   3.29162   3.29440   3.29848
 Alpha virt. eigenvalues --    3.30755   3.30925   3.31316   3.32097   3.32846
 Alpha virt. eigenvalues --    3.33183   3.34228   3.34965   3.35479   3.35950
 Alpha virt. eigenvalues --    3.36351   3.36939   3.37935   3.38723   3.39391
 Alpha virt. eigenvalues --    3.40106   3.41615   3.41895   3.42255   3.42659
 Alpha virt. eigenvalues --    3.43058   3.43887   3.44582   3.45529   3.46213
 Alpha virt. eigenvalues --    3.46943   3.47632   3.49400   3.50412   3.51065
 Alpha virt. eigenvalues --    3.51642   3.53106   3.54190   3.54612   3.55632
 Alpha virt. eigenvalues --    3.56676   3.56911   3.57139   3.57651   3.58664
 Alpha virt. eigenvalues --    3.59715   3.59954   3.60396   3.61039   3.62197
 Alpha virt. eigenvalues --    3.63075   3.63591   3.64155   3.65217   3.65635
 Alpha virt. eigenvalues --    3.66328   3.66758   3.67942   3.68809   3.69260
 Alpha virt. eigenvalues --    3.71883   3.72641   3.74342   3.75761   3.76905
 Alpha virt. eigenvalues --    3.78094   3.78362   3.78889   3.80576   3.82436
 Alpha virt. eigenvalues --    3.83222   3.86903   3.89417   3.89676   3.92261
 Alpha virt. eigenvalues --    3.92701   3.94055   3.96668   3.98597   3.99948
 Alpha virt. eigenvalues --    4.01030   4.03698   4.04462   4.06527   4.10137
 Alpha virt. eigenvalues --    4.12738   4.13422   4.14290   4.15848   4.17268
 Alpha virt. eigenvalues --    4.20784   4.21130   4.24038   4.26414   4.26919
 Alpha virt. eigenvalues --    4.27176   4.27761   4.28610   4.29573   4.30074
 Alpha virt. eigenvalues --    4.30542   4.30830   4.33601   4.34661   4.35700
 Alpha virt. eigenvalues --    4.36890   4.37272   4.38177   4.38526   4.40634
 Alpha virt. eigenvalues --    4.42023   4.44755   4.45795   4.47370   4.49889
 Alpha virt. eigenvalues --    4.51367   4.54566   4.55893   4.56787   4.59789
 Alpha virt. eigenvalues --    4.60224   4.61381   4.63694   4.69394   4.69911
 Alpha virt. eigenvalues --    4.70941   4.74874   4.78310   4.80393   4.82810
 Alpha virt. eigenvalues --    4.86621   4.89850   4.92679   4.96372   4.98041
 Alpha virt. eigenvalues --    5.06903   5.11039   5.15285   5.18827   5.21920
 Alpha virt. eigenvalues --    5.24693   5.26232   5.27341   5.29165   5.35543
 Alpha virt. eigenvalues --    5.47402   5.48659   5.54131   5.60873   5.81708
 Alpha virt. eigenvalues --    5.85400   5.86594   5.89178   5.91573   6.03841
 Alpha virt. eigenvalues --    6.13271   6.17241   6.23701   6.36814   6.38365
 Alpha virt. eigenvalues --    6.51382   6.61463   6.62166   6.63723   6.65901
 Alpha virt. eigenvalues --    6.69754   6.76969   6.81307   6.86456   6.88599
 Alpha virt. eigenvalues --    6.91668   6.97734   7.04604   7.06310   7.15973
 Alpha virt. eigenvalues --    7.20546   7.34224   7.42759  12.16958  22.33016
 Alpha virt. eigenvalues --   22.37989  22.41457  22.42671  22.44724  22.53493
 Alpha virt. eigenvalues --   22.58151  22.65288  22.68896  22.76671  22.84421
 Alpha virt. eigenvalues --   22.89807  22.91220  23.45913  44.05560  44.49587
 Alpha virt. eigenvalues --   44.50427
          Condensed to atoms (all electrons):
               1          2          3          4          5          6
     1  C    5.423328   0.016390   0.010201   0.008989  -0.040565   0.420297
     2  C    0.016390   5.875877  -0.010628  -0.029389  -0.010162  -0.004993
     3  C    0.010201  -0.010628   5.725812  -0.128976   0.052078  -0.044021
     4  C    0.008989  -0.029389  -0.128976   6.132178   0.126650   0.003622
     5  C   -0.040565  -0.010162   0.052078   0.126650   4.392040  -0.001258
     6  H    0.420297  -0.004993  -0.044021   0.003622  -0.001258   0.518532
     7  H   -0.039967   0.444729  -0.055522  -0.014804   0.002672   0.005332
     8  H    0.005519  -0.024861  -0.037981   0.402566  -0.005936  -0.000176
     9  H   -0.002401   0.017841  -0.021361   0.361325  -0.005874   0.000247
    10  O    0.155681  -0.008304   0.028398  -0.164580   0.402961  -0.040423
    11  O   -0.000155   0.001212   0.012821  -0.159970   0.744664   0.000048
    12  C    0.221866  -0.034817   0.013733  -0.008382   0.001734  -0.042764
    13  C   -0.045375   0.006423   0.000631  -0.000117   0.000059  -0.010307
    14  C   -0.044981   0.185647  -0.008007  -0.001985   0.002952  -0.008636
    15  O    0.013939  -0.074795   0.175471  -0.023218  -0.003356  -0.000050
    16  Si  -0.001149   0.008117  -0.070013   0.016506  -0.002862  -0.000081
    17  C    0.000127  -0.001146  -0.007967   0.013849   0.000892   0.000001
    18  C   -0.000012  -0.000586   0.001192  -0.001140  -0.000088   0.000000
    19  C    0.000255  -0.000259   0.016641  -0.011094   0.000444   0.000005
    20  H    0.000014   0.000283  -0.000311   0.000110   0.000001   0.000000
    21  H    0.000001   0.000044   0.000648   0.000060  -0.000001   0.000000
    22  H    0.000000   0.000016  -0.000010   0.000010   0.000000   0.000000
    23  H    0.000005  -0.000266  -0.002529   0.000915   0.000000  -0.000001
    24  H   -0.000016   0.000031   0.005234  -0.002664  -0.000230  -0.000002
    25  H   -0.000002   0.000019  -0.000674   0.000268  -0.000012   0.000000
    26  H   -0.000016   0.000290  -0.004204   0.003851   0.000544   0.000000
    27  H    0.000023   0.000025   0.003458  -0.003665  -0.000033   0.000000
    28  H    0.000000  -0.000021   0.000181  -0.000404  -0.000021   0.000000
    29  H   -0.009415  -0.040031   0.009359  -0.000468  -0.000050   0.000772
    30  H   -0.002723  -0.026520  -0.020995  -0.000500   0.000223   0.003683
    31  H    0.011667  -0.069021   0.006720   0.001427  -0.000256  -0.000353
    32  H   -0.034183  -0.000702  -0.002631   0.000580  -0.000851   0.006737
    33  H   -0.060272  -0.004000  -0.001566   0.000683   0.000272   0.000857
    34  H    0.014314  -0.000904   0.000065   0.000033  -0.000009  -0.000189
    35  H   -0.018275  -0.000284  -0.000265   0.000685   0.001192   0.001362
    36  H    0.002220   0.001297  -0.000204   0.000054  -0.000240   0.001754
    37  C    0.039549  -0.057859   0.191952  -0.070162   0.002904   0.014447
    38  C   -0.011746   0.020580  -0.016358   0.007114   0.000360   0.001492
    39  C   -0.002350   0.003025  -0.003210  -0.000510   0.000106   0.001405
    40  H   -0.002790   0.014733  -0.064600   0.003040  -0.004455   0.000662
    41  H    0.005881  -0.034071   0.006273  -0.007692   0.001497  -0.012052
    42  H    0.000649  -0.005722   0.006034   0.000240  -0.000055  -0.000117
    43  H    0.000014  -0.000016  -0.000234   0.000017   0.000004  -0.000003
    44  H    0.000078  -0.000379  -0.000756   0.000013  -0.000009   0.000075
               7          8          9         10         11         12
     1  C   -0.039967   0.005519  -0.002401   0.155681  -0.000155   0.221866
     2  C    0.444729  -0.024861   0.017841  -0.008304   0.001212  -0.034817
     3  C   -0.055522  -0.037981  -0.021361   0.028398   0.012821   0.013733
     4  C   -0.014804   0.402566   0.361325  -0.164580  -0.159970  -0.008382
     5  C    0.002672  -0.005936  -0.005874   0.402961   0.744664   0.001734
     6  H    0.005332  -0.000176   0.000247  -0.040423   0.000048  -0.042764
     7  H    0.506565   0.001903   0.000253   0.000541  -0.000203  -0.006342
     8  H    0.001903   0.448246  -0.009570   0.001802   0.003094   0.000107
     9  H    0.000253  -0.009570   0.458270   0.006132   0.012862   0.000087
    10  O    0.000541   0.001802   0.006132   7.998865  -0.101763  -0.038796
    11  O   -0.000203   0.003094   0.012862  -0.101763   7.859055  -0.000091
    12  C   -0.006342   0.000107   0.000087  -0.038796  -0.000091   5.176724
    13  C   -0.000112   0.000031  -0.000015  -0.005047  -0.000002   0.261242
    14  C   -0.032183   0.000301  -0.000092   0.004087   0.000036   0.004359
    15  O    0.005453  -0.001776  -0.002720  -0.000306  -0.000181  -0.000440
    16  Si   0.000284  -0.007438   0.001875  -0.000239  -0.000823   0.000055
    17  C   -0.000241  -0.003922  -0.004223  -0.000011   0.000031  -0.000007
    18  C   -0.000053  -0.000031   0.000060  -0.000001  -0.000001  -0.000001
    19  C    0.000151   0.000964  -0.000191  -0.000006   0.000045  -0.000001
    20  H    0.000029  -0.000011  -0.000012   0.000000   0.000000   0.000000
    21  H   -0.000010  -0.000010  -0.000004   0.000000   0.000000   0.000000
    22  H   -0.000002  -0.000003  -0.000003   0.000000   0.000000   0.000000
    23  H    0.000001  -0.000026  -0.000202   0.000000   0.000000   0.000000
    24  H   -0.000008  -0.000031   0.002069  -0.000003  -0.000064   0.000000
    25  H   -0.000002  -0.000020  -0.000009   0.000000   0.000000   0.000000
    26  H   -0.000062  -0.003337  -0.000329  -0.000003  -0.000024   0.000001
    27  H    0.000325   0.000526   0.000241   0.000001   0.000001   0.000000
    28  H    0.000015   0.000492   0.000050   0.000000  -0.000001   0.000000
    29  H   -0.008800  -0.000010   0.000013  -0.000073   0.000000  -0.001896
    30  H    0.007303  -0.000003   0.000006  -0.000014   0.000001  -0.003632
    31  H   -0.003431  -0.000006  -0.000060  -0.000159   0.000000   0.000453
    32  H    0.002387   0.000030   0.000009   0.000023  -0.000128   0.412504
    33  H    0.001245  -0.000021   0.000000   0.005028   0.000009   0.436552
    34  H   -0.000002  -0.000001   0.000000   0.000255   0.000003  -0.053896
    35  H    0.000096  -0.000016  -0.000004   0.008252   0.000348  -0.035975
    36  H   -0.000043   0.000000   0.000000  -0.001044   0.000003  -0.045538
    37  C    0.008984   0.009855  -0.014955  -0.015854   0.002602  -0.001915
    38  C   -0.000435  -0.000670   0.000583   0.001557  -0.000060   0.000642
    39  C   -0.000182  -0.000006   0.000040  -0.000099   0.000006   0.000156
    40  H   -0.000313  -0.000540   0.003045   0.000106  -0.000059   0.000020
    41  H   -0.000791   0.000161  -0.000712   0.007239  -0.001047   0.000748
    42  H   -0.000206  -0.000007  -0.000022   0.000005   0.000000  -0.000003
    43  H   -0.000001   0.000000   0.000000   0.000000   0.000000   0.000002
    44  H   -0.000001   0.000001   0.000000  -0.000001  -0.000001  -0.000049
              13         14         15         16         17         18
     1  C   -0.045375  -0.044981   0.013939  -0.001149   0.000127  -0.000012
     2  C    0.006423   0.185647  -0.074795   0.008117  -0.001146  -0.000586
     3  C    0.000631  -0.008007   0.175471  -0.070013  -0.007967   0.001192
     4  C   -0.000117  -0.001985  -0.023218   0.016506   0.013849  -0.001140
     5  C    0.000059   0.002952  -0.003356  -0.002862   0.000892  -0.000088
     6  H   -0.010307  -0.008636  -0.000050  -0.000081   0.000001   0.000000
     7  H   -0.000112  -0.032183   0.005453   0.000284  -0.000241  -0.000053
     8  H    0.000031   0.000301  -0.001776  -0.007438  -0.003922  -0.000031
     9  H   -0.000015  -0.000092  -0.002720   0.001875  -0.004223   0.000060
    10  O   -0.005047   0.004087  -0.000306  -0.000239  -0.000011  -0.000001
    11  O   -0.000002   0.000036  -0.000181  -0.000823   0.000031  -0.000001
    12  C    0.261242   0.004359  -0.000440   0.000055  -0.000007  -0.000001
    13  C    5.051974   0.000024   0.000016   0.000001   0.000000   0.000000
    14  C    0.000024   5.178876  -0.022109  -0.000355   0.000009   0.000658
    15  O    0.000016  -0.022109   8.069102   0.380940  -0.018855  -0.018816
    16  Si   0.000001  -0.000355   0.380940  12.427528   0.353804   0.386683
    17  C    0.000000   0.000009  -0.018855   0.353804   5.164798  -0.039495
    18  C    0.000000   0.000658  -0.018816   0.386683  -0.039495   5.105312
    19  C    0.000000  -0.000285  -0.030568   0.328096  -0.054250  -0.049800
    20  H    0.000000  -0.000172   0.000749  -0.032129   0.000053   0.389048
    21  H    0.000000   0.000064   0.000337  -0.034630   0.002927   0.391728
    22  H    0.000000  -0.000025   0.001237  -0.043243   0.002081   0.395462
    23  H    0.000000   0.000030   0.000074  -0.036474   0.003483   0.000752
    24  H    0.000000   0.000004   0.000496  -0.035297   0.000817   0.003435
    25  H    0.000000   0.000002   0.001160  -0.020575   0.001374   0.000483
    26  H    0.000000   0.000002   0.001535  -0.035713   0.393268   0.002630
    27  H    0.000000  -0.000047  -0.000195  -0.039813   0.393249   0.001434
    28  H    0.000000   0.000001   0.001180  -0.030227   0.384253   0.000604
    29  H    0.000313   0.423457   0.000250   0.000003   0.000004  -0.000008
    30  H   -0.000027   0.414684  -0.000008  -0.000175  -0.000001  -0.000008
    31  H    0.000040   0.429746   0.010750  -0.001615   0.000129  -0.000773
    32  H   -0.035797  -0.001570  -0.000003  -0.000003   0.000001   0.000000
    33  H   -0.035719   0.000640  -0.000034  -0.000005   0.000000   0.000000
    34  H    0.422939  -0.000005   0.000000   0.000000   0.000000   0.000000
    35  H    0.421644  -0.000066   0.000000   0.000000   0.000000   0.000000
    36  H    0.409418  -0.000093   0.000000   0.000000   0.000000   0.000000
    37  C   -0.000213  -0.006048  -0.084674  -0.001659   0.000220   0.000575
    38  C    0.000032  -0.020882   0.010031  -0.001690  -0.000011  -0.000748
    39  C   -0.000015  -0.004041   0.003545   0.000094   0.000010  -0.000032
    40  H   -0.000004  -0.000695  -0.003695  -0.000416  -0.000058   0.000245
    41  H    0.000154   0.002408   0.004661   0.000895   0.000028   0.000013
    42  H    0.000001   0.000834   0.006372  -0.001089   0.000159   0.000041
    43  H    0.000000   0.000013  -0.000009   0.000018   0.000000  -0.000001
    44  H    0.000002   0.000332   0.000000  -0.000002   0.000000   0.000000
              19         20         21         22         23         24
     1  C    0.000255   0.000014   0.000001   0.000000   0.000005  -0.000016
     2  C   -0.000259   0.000283   0.000044   0.000016  -0.000266   0.000031
     3  C    0.016641  -0.000311   0.000648  -0.000010  -0.002529   0.005234
     4  C   -0.011094   0.000110   0.000060   0.000010   0.000915  -0.002664
     5  C    0.000444   0.000001  -0.000001   0.000000   0.000000  -0.000230
     6  H    0.000005   0.000000   0.000000   0.000000  -0.000001  -0.000002
     7  H    0.000151   0.000029  -0.000010  -0.000002   0.000001  -0.000008
     8  H    0.000964  -0.000011  -0.000010  -0.000003  -0.000026  -0.000031
     9  H   -0.000191  -0.000012  -0.000004  -0.000003  -0.000202   0.002069
    10  O   -0.000006   0.000000   0.000000   0.000000   0.000000  -0.000003
    11  O    0.000045   0.000000   0.000000   0.000000   0.000000  -0.000064
    12  C   -0.000001   0.000000   0.000000   0.000000   0.000000   0.000000
    13  C    0.000000   0.000000   0.000000   0.000000   0.000000   0.000000
    14  C   -0.000285  -0.000172   0.000064  -0.000025   0.000030   0.000004
    15  O   -0.030568   0.000749   0.000337   0.001237   0.000074   0.000496
    16  Si   0.328096  -0.032129  -0.034630  -0.043243  -0.036474  -0.035297
    17  C   -0.054250   0.000053   0.002927   0.002081   0.003483   0.000817
    18  C   -0.049800   0.389048   0.391728   0.395462   0.000752   0.003435
    19  C    5.204645   0.003512   0.001044   0.002631   0.392667   0.392518
    20  H    0.003512   0.514812  -0.018348  -0.018228  -0.000195  -0.000089
    21  H    0.001044  -0.018348   0.516287  -0.018471   0.000685  -0.000129
    22  H    0.002631  -0.018228  -0.018471   0.521947   0.000212  -0.000158
    23  H    0.392667  -0.000195   0.000685   0.000212   0.507599  -0.021042
    24  H    0.392518  -0.000089  -0.000129  -0.000158  -0.021042   0.508084
    25  H    0.380863  -0.000138   0.000232   0.000189  -0.015279  -0.015097
    26  H    0.001209  -0.000143  -0.000097  -0.000159  -0.000152   0.000796
    27  H    0.003671   0.000939  -0.000179   0.000221  -0.000096  -0.000208
    28  H    0.002774   0.000328  -0.000117   0.000063  -0.000164   0.000195
    29  H   -0.000002   0.000002   0.000002   0.000000   0.000000   0.000000
    30  H    0.000014   0.000001  -0.000005   0.000000   0.000002   0.000000
    31  H    0.000236   0.000271   0.000028   0.000057  -0.000008  -0.000008
    32  H    0.000000   0.000000   0.000000   0.000000   0.000000   0.000000
    33  H    0.000000   0.000000   0.000000   0.000000   0.000000   0.000000
    34  H    0.000000   0.000000   0.000000   0.000000   0.000000   0.000000
    35  H    0.000000   0.000000   0.000000   0.000000   0.000000   0.000000
    36  H    0.000000   0.000000   0.000000   0.000000   0.000000   0.000000
    37  C   -0.000103  -0.000029  -0.000470  -0.000069   0.004744  -0.006088
    38  C   -0.000848   0.000074  -0.000129   0.000034  -0.001742   0.000901
    39  C   -0.000142   0.000001   0.000005   0.000002   0.000303  -0.000015
    40  H   -0.003141  -0.000009   0.000018  -0.000002  -0.003521   0.000709
    41  H   -0.000384  -0.000001   0.000003   0.000000   0.000086   0.000042
    42  H   -0.000418  -0.000049   0.001109   0.000021   0.000204   0.000094
    43  H   -0.000005   0.000000  -0.000003   0.000000   0.000005   0.000000
    44  H   -0.000002   0.000000   0.000001   0.000000  -0.000007   0.000002
              25         26         27         28         29         30
     1  C   -0.000002  -0.000016   0.000023   0.000000  -0.009415  -0.002723
     2  C    0.000019   0.000290   0.000025  -0.000021  -0.040031  -0.026520
     3  C   -0.000674  -0.004204   0.003458   0.000181   0.009359  -0.020995
     4  C    0.000268   0.003851  -0.003665  -0.000404  -0.000468  -0.000500
     5  C   -0.000012   0.000544  -0.000033  -0.000021  -0.000050   0.000223
     6  H    0.000000   0.000000   0.000000   0.000000   0.000772   0.003683
     7  H   -0.000002  -0.000062   0.000325   0.000015  -0.008800   0.007303
     8  H   -0.000020  -0.003337   0.000526   0.000492  -0.000010  -0.000003
     9  H   -0.000009  -0.000329   0.000241   0.000050   0.000013   0.000006
    10  O    0.000000  -0.000003   0.000001   0.000000  -0.000073  -0.000014
    11  O    0.000000  -0.000024   0.000001  -0.000001   0.000000   0.000001
    12  C    0.000000   0.000001   0.000000   0.000000  -0.001896  -0.003632
    13  C    0.000000   0.000000   0.000000   0.000000   0.000313  -0.000027
    14  C    0.000002   0.000002  -0.000047   0.000001   0.423457   0.414684
    15  O    0.001160   0.001535  -0.000195   0.001180   0.000250  -0.000008
    16  Si  -0.020575  -0.035713  -0.039813  -0.030227   0.000003  -0.000175
    17  C    0.001374   0.393268   0.393249   0.384253   0.000004  -0.000001
    18  C    0.000483   0.002630   0.001434   0.000604  -0.000008  -0.000008
    19  C    0.380863   0.001209   0.003671   0.002774  -0.000002   0.000014
    20  H   -0.000138  -0.000143   0.000939   0.000328   0.000002   0.000001
    21  H    0.000232  -0.000097  -0.000179  -0.000117   0.000002  -0.000005
    22  H    0.000189  -0.000159   0.000221   0.000063   0.000000   0.000000
    23  H   -0.015279  -0.000152  -0.000096  -0.000164   0.000000   0.000002
    24  H   -0.015097   0.000796  -0.000208   0.000195   0.000000   0.000000
    25  H    0.494398   0.000199  -0.000148   0.000088   0.000000   0.000000
    26  H    0.000199   0.508991  -0.019454  -0.016869   0.000000   0.000000
    27  H   -0.000148  -0.019454   0.507424  -0.014422  -0.000001   0.000001
    28  H    0.000088  -0.016869  -0.014422   0.506649   0.000000   0.000000
    29  H    0.000000   0.000000  -0.000001   0.000000   0.511974  -0.027566
    30  H    0.000000   0.000000   0.000001   0.000000  -0.027566   0.516466
    31  H   -0.000003  -0.000007   0.000007  -0.000004  -0.019111  -0.023662
    32  H    0.000000   0.000000   0.000000   0.000000   0.000450   0.000310
    33  H    0.000000   0.000000   0.000000   0.000000  -0.005389  -0.000643
    34  H    0.000000   0.000000   0.000000   0.000000   0.000008  -0.000004
    35  H    0.000000   0.000000   0.000000   0.000000  -0.000036   0.000003
    36  H    0.000000   0.000000   0.000000   0.000000   0.000066   0.000041
    37  C    0.000286   0.000457  -0.000128   0.000044  -0.000109   0.003234
    38  C   -0.000046  -0.000019   0.000018  -0.000006   0.000779  -0.002878
    39  C   -0.000001   0.000000   0.000000   0.000000   0.000397  -0.003801
    40  H    0.000513  -0.000081   0.000003  -0.000005   0.000037  -0.000095
    41  H    0.000005   0.000003  -0.000003  -0.000001   0.000011  -0.000558
    42  H    0.000015  -0.000005  -0.000006  -0.000005   0.000119  -0.001372
    43  H    0.000000   0.000000   0.000000   0.000000  -0.000008  -0.000163
    44  H    0.000000   0.000000   0.000000   0.000000   0.000002   0.000069
              31         32         33         34         35         36
     1  C    0.011667  -0.034183  -0.060272   0.014314  -0.018275   0.002220
     2  C   -0.069021  -0.000702  -0.004000  -0.000904  -0.000284   0.001297
     3  C    0.006720  -0.002631  -0.001566   0.000065  -0.000265  -0.000204
     4  C    0.001427   0.000580   0.000683   0.000033   0.000685   0.000054
     5  C   -0.000256  -0.000851   0.000272  -0.000009   0.001192  -0.000240
     6  H   -0.000353   0.006737   0.000857  -0.000189   0.001362   0.001754
     7  H   -0.003431   0.002387   0.001245  -0.000002   0.000096  -0.000043
     8  H   -0.000006   0.000030  -0.000021  -0.000001  -0.000016   0.000000
     9  H   -0.000060   0.000009   0.000000   0.000000  -0.000004   0.000000
    10  O   -0.000159   0.000023   0.005028   0.000255   0.008252  -0.001044
    11  O    0.000000  -0.000128   0.000009   0.000003   0.000348   0.000003
    12  C    0.000453   0.412504   0.436552  -0.053896  -0.035975  -0.045538
    13  C    0.000040  -0.035797  -0.035719   0.422939   0.421644   0.409418
    14  C    0.429746  -0.001570   0.000640  -0.000005  -0.000066  -0.000093
    15  O    0.010750  -0.000003  -0.000034   0.000000   0.000000   0.000000
    16  Si  -0.001615  -0.000003  -0.000005   0.000000   0.000000   0.000000
    17  C    0.000129   0.000001   0.000000   0.000000   0.000000   0.000000
    18  C   -0.000773   0.000000   0.000000   0.000000   0.000000   0.000000
    19  C    0.000236   0.000000   0.000000   0.000000   0.000000   0.000000
    20  H    0.000271   0.000000   0.000000   0.000000   0.000000   0.000000
    21  H    0.000028   0.000000   0.000000   0.000000   0.000000   0.000000
    22  H    0.000057   0.000000   0.000000   0.000000   0.000000   0.000000
    23  H   -0.000008   0.000000   0.000000   0.000000   0.000000   0.000000
    24  H   -0.000008   0.000000   0.000000   0.000000   0.000000   0.000000
    25  H   -0.000003   0.000000   0.000000   0.000000   0.000000   0.000000
    26  H   -0.000007   0.000000   0.000000   0.000000   0.000000   0.000000
    27  H    0.000007   0.000000   0.000000   0.000000   0.000000   0.000000
    28  H   -0.000004   0.000000   0.000000   0.000000   0.000000   0.000000
    29  H   -0.019111   0.000450  -0.005389   0.000008  -0.000036   0.000066
    30  H   -0.023662   0.000310  -0.000643  -0.000004   0.000003   0.000041
    31  H    0.487045  -0.000127   0.000357  -0.000001   0.000001  -0.000003
    32  H   -0.000127   0.528185  -0.024896  -0.003889  -0.003403   0.006214
    33  H    0.000357  -0.024896   0.540171  -0.004526   0.006598  -0.003951
    34  H   -0.000001  -0.003889  -0.004526   0.524102  -0.023411  -0.024576
    35  H    0.000001  -0.003403   0.006598  -0.023411   0.509835  -0.026229
    36  H   -0.000003   0.006214  -0.003951  -0.024576  -0.026229   0.539678
    37  C   -0.004338   0.000224   0.000255  -0.000003   0.000003   0.000068
    38  C   -0.000292  -0.000020  -0.000125   0.000001  -0.000003  -0.000016
    39  C    0.000325  -0.000003   0.000033   0.000000   0.000000   0.000005
    40  H   -0.000080   0.000003   0.000000   0.000000   0.000000   0.000001
    41  H   -0.000164  -0.000070  -0.000036   0.000004  -0.000008  -0.000019
    42  H   -0.000744   0.000000  -0.000003   0.000000   0.000000   0.000000
    43  H    0.000014   0.000000   0.000000   0.000000   0.000000   0.000000
    44  H   -0.000012   0.000001  -0.000001   0.000000   0.000000   0.000006
              37         38         39         40         41         42
     1  C    0.039549  -0.011746  -0.002350  -0.002790   0.005881   0.000649
     2  C   -0.057859   0.020580   0.003025   0.014733  -0.034071  -0.005722
     3  C    0.191952  -0.016358  -0.003210  -0.064600   0.006273   0.006034
     4  C   -0.070162   0.007114  -0.000510   0.003040  -0.007692   0.000240
     5  C    0.002904   0.000360   0.000106  -0.004455   0.001497  -0.000055
     6  H    0.014447   0.001492   0.001405   0.000662  -0.012052  -0.000117
     7  H    0.008984  -0.000435  -0.000182  -0.000313  -0.000791  -0.000206
     8  H    0.009855  -0.000670  -0.000006  -0.000540   0.000161  -0.000007
     9  H   -0.014955   0.000583   0.000040   0.003045  -0.000712  -0.000022
    10  O   -0.015854   0.001557  -0.000099   0.000106   0.007239   0.000005
    11  O    0.002602  -0.000060   0.000006  -0.000059  -0.001047   0.000000
    12  C   -0.001915   0.000642   0.000156   0.000020   0.000748  -0.000003
    13  C   -0.000213   0.000032  -0.000015  -0.000004   0.000154   0.000001
    14  C   -0.006048  -0.020882  -0.004041  -0.000695   0.002408   0.000834
    15  O   -0.084674   0.010031   0.003545  -0.003695   0.004661   0.006372
    16  Si  -0.001659  -0.001690   0.000094  -0.000416   0.000895  -0.001089
    17  C    0.000220  -0.000011   0.000010  -0.000058   0.000028   0.000159
    18  C    0.000575  -0.000748  -0.000032   0.000245   0.000013   0.000041
    19  C   -0.000103  -0.000848  -0.000142  -0.003141  -0.000384  -0.000418
    20  H   -0.000029   0.000074   0.000001  -0.000009  -0.000001  -0.000049
    21  H   -0.000470  -0.000129   0.000005   0.000018   0.000003   0.001109
    22  H   -0.000069   0.000034   0.000002  -0.000002   0.000000   0.000021
    23  H    0.004744  -0.001742   0.000303  -0.003521   0.000086   0.000204
    24  H   -0.006088   0.000901  -0.000015   0.000709   0.000042   0.000094
    25  H    0.000286  -0.000046  -0.000001   0.000513   0.000005   0.000015
    26  H    0.000457  -0.000019   0.000000  -0.000081   0.000003  -0.000005
    27  H   -0.000128   0.000018   0.000000   0.000003  -0.000003  -0.000006
    28  H    0.000044  -0.000006   0.000000  -0.000005  -0.000001  -0.000005
    29  H   -0.000109   0.000779   0.000397   0.000037   0.000011   0.000119
    30  H    0.003234  -0.002878  -0.003801  -0.000095  -0.000558  -0.001372
    31  H   -0.004338  -0.000292   0.000325  -0.000080  -0.000164  -0.000744
    32  H    0.000224  -0.000020  -0.000003   0.000003  -0.000070   0.000000
    33  H    0.000255  -0.000125   0.000033   0.000000  -0.000036  -0.000003
    34  H   -0.000003   0.000001   0.000000   0.000000   0.000004   0.000000
    35  H    0.000003  -0.000003   0.000000   0.000000  -0.000008   0.000000
    36  H    0.000068  -0.000016   0.000005   0.000001  -0.000019   0.000000
    37  C    5.458388   0.145732  -0.043963   0.429927   0.408843  -0.049127
    38  C    0.145732   5.286397   0.520895  -0.040852  -0.048820   0.404171
    39  C   -0.043963   0.520895   5.015162  -0.007992   0.005533  -0.015798
    40  H    0.429927  -0.040852  -0.007992   0.505880  -0.013969   0.002090
    41  H    0.408843  -0.048820   0.005533  -0.013969   0.476022   0.002979
    42  H   -0.049127   0.404171  -0.015798   0.002090   0.002979   0.478283
    43  H    0.007078  -0.054049   0.427409  -0.000352   0.000117  -0.006137
    44  H    0.004595  -0.071905   0.438156   0.000780   0.000423   0.004059
              43         44
     1  C    0.000014   0.000078
     2  C   -0.000016  -0.000379
     3  C   -0.000234  -0.000756
     4  C    0.000017   0.000013
     5  C    0.000004  -0.000009
     6  H   -0.000003   0.000075
     7  H   -0.000001  -0.000001
     8  H    0.000000   0.000001
     9  H    0.000000   0.000000
    10  O    0.000000  -0.000001
    11  O    0.000000  -0.000001
    12  C    0.000002  -0.000049
    13  C    0.000000   0.000002
    14  C    0.000013   0.000332
    15  O   -0.000009   0.000000
    16  Si   0.000018  -0.000002
    17  C    0.000000   0.000000
    18  C   -0.000001   0.000000
    19  C   -0.000005  -0.000002
    20  H    0.000000   0.000000
    21  H   -0.000003   0.000001
    22  H    0.000000   0.000000
    23  H    0.000005  -0.000007
    24  H    0.000000   0.000002
    25  H    0.000000   0.000000
    26  H    0.000000   0.000000
    27  H    0.000000   0.000000
    28  H    0.000000   0.000000
    29  H   -0.000008   0.000002
    30  H   -0.000163   0.000069
    31  H    0.000014  -0.000012
    32  H    0.000000   0.000001
    33  H    0.000000  -0.000001
    34  H    0.000000   0.000000
    35  H    0.000000   0.000000
    36  H    0.000000   0.000006
    37  C    0.007078   0.004595
    38  C   -0.054049  -0.071905
    39  C    0.427409   0.438156
    40  H   -0.000352   0.000780
    41  H    0.000117   0.000423
    42  H   -0.006137   0.004059
    43  H    0.500611  -0.022893
    44  H   -0.022893   0.504030
 Mulliken charges:
               1
     1  C   -0.034617
     2  C   -0.156841
     3  C    0.236122
     4  C   -0.455065
     5  C    0.342078
     6  H    0.184097
     7  H    0.175449
     8  H    0.220808
     9  H    0.197750
    10  O   -0.244207
    11  O   -0.372269
    12  C   -0.256443
    13  C   -0.442192
    14  C   -0.496890
    15  O   -0.401489
    16  Si   0.492814
    17  C   -0.585382
    18  C   -0.568763
    19  C   -0.580888
    20  H    0.159634
    21  H    0.157379
    22  H    0.156191
    23  H    0.169937
    24  H    0.165721
    25  H    0.171916
    26  H    0.166898
    27  H    0.166830
    28  H    0.165347
    29  H    0.164955
    30  H    0.169309
    31  H    0.174965
    32  H    0.150622
    33  H    0.148484
    34  H    0.149693
    35  H    0.157955
    36  H    0.141129
    37  C   -0.377202
    38  C   -0.127041
    39  C   -0.334454
    40  H    0.185916
    41  H    0.196370
    42  H    0.173406
    43  H    0.148574
    44  H    0.143394
 Sum of Mulliken charges =   0.00000
 Mulliken charges with hydrogens summed into heavy atoms:
               1
     1  C    0.149480
     2  C    0.018608
     3  C    0.236122
     4  C   -0.036506
     5  C    0.342078
    10  O   -0.244207
    11  O   -0.372269
    12  C    0.042663
    13  C    0.006585
    14  C    0.012339
    15  O   -0.401489
    16  Si   0.492814
    17  C   -0.086307
    18  C   -0.095559
    19  C   -0.073314
    37  C    0.005084
    38  C    0.046366
    39  C   -0.042487
 Electronic spatial extent (au):  <R**2>=           5697.2620
 Charge=              0.0000 electrons
 Dipole moment (field-independent basis, Debye):
    X=              2.4105    Y=              3.3468    Z=             -2.7975  Tot=              4.9837
 Quadrupole moment (field-independent basis, Debye-Ang):
   XX=           -117.3918   YY=           -129.8167   ZZ=           -123.7271
   XY=            -12.4396   XZ=              8.2473   YZ=              9.0779
 Traceless Quadrupole moment (field-independent basis, Debye-Ang):
   XX=              6.2534   YY=             -6.1715   ZZ=             -0.0819
   XY=            -12.4396   XZ=              8.2473   YZ=              9.0779
 Octapole moment (field-independent basis, Debye-Ang**2):
  XXX=             18.0083  YYY=             35.3234  ZZZ=            -15.3281  XYY=             19.9855
  XXY=             14.1504  XXZ=            -20.3744  XZZ=             -4.8973  YZZ=              7.7017
  YYZ=            -22.0154  XYZ=            -20.5042
 Hexadecapole moment (field-independent basis, Debye-Ang**3):
 XXXX=          -4725.6004 YYYY=          -1866.7035 ZZZZ=          -1190.9251 XXXY=            -70.3649
 XXXZ=             53.0194 YYYX=            -33.9864 YYYZ=             70.7018 ZZZX=              0.0137
 ZZZY=              0.7035 XXYY=          -1161.1651 XXZZ=          -1019.6321 YYZZ=           -549.8397
 XXYZ=             36.5642 YYXZ=             38.6896 ZZXY=            -41.9108
 N-N= 1.616954445275D+03 E-N=-5.726958498541D+03  KE= 1.059313768224D+03
 1\1\GINC-CPU-E-68\SP\RM062X\def2TZVP\C14H26O3Si1\KE291\26-Jun-2019\0\\
 # m062x/def2tzvp int=ultrafine scrf=(solvent=chloroform)\\IP1_2ginp003
 \\0,1\C,0,-2.40156,0.141879,-0.350119\C,0,-1.005449,0.323302,-0.963346
 \C,0,0.101423,0.039722,0.092271\C,0,-0.091369,-1.429883,0.502673\C,0,-
 1.494364,-1.778337,0.961789\H,0,-2.608665,0.982993,0.324198\H,0,-0.870
 255,-0.455399,-1.727172\H,0,0.123382,-2.068892,-0.361889\H,0,0.588149,
 -1.729736,1.304408\O,0,-2.526426,-1.053705,0.487336\O,0,-1.725936,-2.7
 09556,1.704708\C,0,-3.52754,0.041606,-1.381977\C,0,-4.923801,-0.073971
 ,-0.762819\C,0,-0.879998,1.681826,-1.669469\O,0,1.350682,0.226441,-0.5
 64976\Si,0,2.920329,-0.352344,-0.365531\C,0,3.064385,-2.153095,-0.9136
 64\C,0,3.934632,0.740458,-1.51165\C,0,3.535022,-0.183506,1.411644\H,0,
 3.575814,0.667822,-2.543622\H,0,3.881207,1.792013,-1.211287\H,0,4.9888
 86,0.442214,-1.502306\H,0,3.462791,0.848329,1.771034\H,0,2.988144,-0.8
 24764,2.110977\H,0,4.590208,-0.477599,1.460315\H,0,2.559767,-2.84428,-
 0.231447\H,0,2.64414,-2.298563,-1.914605\H,0,4.120532,-2.444896,-0.953
 107\H,0,-1.489359,1.706991,-2.576672\H,0,-1.188779,2.508318,-1.025193\
 H,0,0.158685,1.846537,-1.961162\H,0,-3.326224,-0.821927,-2.02844\H,0,-
 3.485187,0.930942,-2.018859\H,0,-5.687271,-0.1267,-1.544782\H,0,-5.008
 774,-0.96922,-0.142384\H,0,-5.149463,0.794822,-0.13423\C,0,0.049222,0.
 925627,1.368554\C,0,0.317053,2.395262,1.190265\C,0,-0.385977,3.36959,1
 .770469\H,0,0.814787,0.518828,2.0435\H,0,-0.908442,0.783753,1.882815\H
 ,0,1.175899,2.649605,0.572061\H,0,-0.122705,4.41545,1.642342\H,0,-1.24
 8506,3.157849,2.398678\\Version=ES64L-G09RevD.01\State=1-A\HF=-1064.33
 92945\RMSD=1.510e-09\Dipole=0.948374,1.3167195,-1.100626\Quadrupole=4.
 6492428,-4.5883517,-0.060891,-9.2485618,6.1316687,6.7491683\PG=C01 [X(
 C14H26O3Si1)]\\@


 THAT'S WHAT MAKES US A GREAT COUNTRY.
 THE LITTLE THINGS ARE SERIOUS AND THE BIG ONES ARE NOT.
           WILL ROGERS
 Job cpu time:       0 days  2 hours 17 minutes 47.2 seconds.
 File lengths (MBytes):  RWF=    412 Int=      0 D2E=      0 Chk=     21 Scr=      1
 Normal termination of Gaussian 09 at Wed Jun 26 13:53:37 2019.
