 Entering Gaussian System, Link 0=/usr/local/Cluster-Apps/gaussian/g09/g09
 Initial command:
 /usr/local/Cluster-Apps/gaussian/g09/l1.exe "/home/ke291/rds/hpc-work/26Jun1304IP1NMR/Gau-429745.inp" -scrdir="/home/ke291/rds/hpc-work/26Jun1304IP1NMR/"
 Entering Link 1 = /usr/local/Cluster-Apps/gaussian/g09/l1.exe PID=    429795.
  
 Copyright (c) 1988,1990,1992,1993,1995,1998,2003,2009,2013,
            Gaussian, Inc.  All Rights Reserved.
  
 This is part of the Gaussian(R) 09 program.  It is based on
 the Gaussian(R) 03 system (copyright 2003, Gaussian, Inc.),
 the Gaussian(R) 98 system (copyright 1998, Gaussian, Inc.),
 the Gaussian(R) 94 system (copyright 1995, Gaussian, Inc.),
 the Gaussian 92(TM) system (copyright 1992, Gaussian, Inc.),
 the Gaussian 90(TM) system (copyright 1990, Gaussian, Inc.),
 the Gaussian 88(TM) system (copyright 1988, Gaussian, Inc.),
 the Gaussian 86(TM) system (copyright 1986, Carnegie Mellon
 University), and the Gaussian 82(TM) system (copyright 1983,
 Carnegie Mellon University). Gaussian is a federally registered
 trademark of Gaussian, Inc.
  
 This software contains proprietary and confidential information,
 including trade secrets, belonging to Gaussian, Inc.
  
 This software is provided under written license and may be
 used, copied, transmitted, or stored only in accord with that
 written license.
  
 The following legend is applicable only to US Government
 contracts under FAR:
  
                    RESTRICTED RIGHTS LEGEND
  
 Use, reproduction and disclosure by the US Government is
 subject to restrictions as set forth in subparagraphs (a)
 and (c) of the Commercial Computer Software - Restricted
 Rights clause in FAR 52.227-19.
  
 Gaussian, Inc.
 340 Quinnipiac St., Bldg. 40, Wallingford CT 06492
  
  
 ---------------------------------------------------------------
 Warning -- This program may not be used in any manner that
 competes with the business of Gaussian, Inc. or will provide
 assistance to any competitor of Gaussian, Inc.  The licensee
 of this program is prohibited from giving any competitor of
 Gaussian, Inc. access to this program.  By using this program,
 the user acknowledges that Gaussian, Inc. is engaged in the
 business of creating and licensing software in the field of
 computational chemistry and represents and warrants to the
 licensee that it is not a competitor of Gaussian, Inc. and that
 it will not use this program in any manner prohibited above.
 ---------------------------------------------------------------
  

 Cite this work as:
 Gaussian 09, Revision D.01,
 M. J. Frisch, G. W. Trucks, H. B. Schlegel, G. E. Scuseria, 
 M. A. Robb, J. R. Cheeseman, G. Scalmani, V. Barone, B. Mennucci, 
 G. A. Petersson, H. Nakatsuji, M. Caricato, X. Li, H. P. Hratchian, 
 A. F. Izmaylov, J. Bloino, G. Zheng, J. L. Sonnenberg, M. Hada, 
 M. Ehara, K. Toyota, R. Fukuda, J. Hasegawa, M. Ishida, T. Nakajima, 
 Y. Honda, O. Kitao, H. Nakai, T. Vreven, J. A. Montgomery, Jr., 
 J. E. Peralta, F. Ogliaro, M. Bearpark, J. J. Heyd, E. Brothers, 
 K. N. Kudin, V. N. Staroverov, T. Keith, R. Kobayashi, J. Normand, 
 K. Raghavachari, A. Rendell, J. C. Burant, S. S. Iyengar, J. Tomasi, 
 M. Cossi, N. Rega, J. M. Millam, M. Klene, J. E. Knox, J. B. Cross, 
 V. Bakken, C. Adamo, J. Jaramillo, R. Gomperts, R. E. Stratmann, 
 O. Yazyev, A. J. Austin, R. Cammi, C. Pomelli, J. W. Ochterski, 
 R. L. Martin, K. Morokuma, V. G. Zakrzewski, G. A. Voth, 
 P. Salvador, J. J. Dannenberg, S. Dapprich, A. D. Daniels, 
 O. Farkas, J. B. Foresman, J. V. Ortiz, J. Cioslowski, 
 and D. J. Fox, Gaussian, Inc., Wallingford CT, 2013.
 
 ******************************************
 Gaussian 09:  ES64L-G09RevD.01 24-Apr-2013
                26-Jun-2019 
 ******************************************
 %nprocshared=4
 Will use up to    4 processors via shared memory.
 %mem=6000MB
 %chk=IP1_3ginp007.chk
 --------------------------------------------------------
 # m062x/def2tzvp int=ultrafine scrf=(solvent=chloroform)
 --------------------------------------------------------
 1/38=1/1;
 2/12=2,17=6,18=5,40=1/2;
 3/5=44,7=101,11=2,16=1,25=1,30=1,70=2201,72=7,74=-55,75=-5/1,2,3;
 4//1;
 5/5=2,38=5,53=7/2;
 6/7=2,8=2,9=2,10=2,28=1/1;
 99/5=1,9=1/99;
 ------------
 IP1_3ginp007
 ------------
 Symbolic Z-matrix:
 Charge =  0 Multiplicity = 1
 C                     2.44334   0.34657   0.2721 
 C                     1.07427   0.32143   0.96776 
 C                    -0.04132   0.14094  -0.10117 
 C                     0.21645  -1.20003  -0.81107 
 C                     1.6528   -1.45376  -1.24117 
 H                     2.49364   1.21917  -0.38963 
 H                     0.93619   1.31028   1.41905 
 H                    -0.03729  -2.01959  -0.12993 
 H                    -0.41113  -1.32137  -1.69783 
 O                     2.65179  -0.81608  -0.59343 
 O                     1.93642  -2.26947  -2.09329 
 C                     3.64915   0.39861   1.20896 
 C                     4.97531   0.62582   0.47693 
 C                     0.99113  -0.72042   2.09639 
 O                    -1.2844    0.13983   0.5877 
 Si                   -2.83513  -0.44456   0.29999 
 C                    -3.45587  -0.06517  -1.44258 
 C                    -2.91693  -2.30851   0.59137 
 C                    -3.89262   0.45053   1.57106 
 H                    -3.95971  -2.64629   0.56419 
 H                    -2.37057  -2.87614  -0.16892 
 H                    -2.50838  -2.5774    1.57144 
 H                    -3.85443   1.53423   1.42074 
 H                    -4.9398    0.13626   1.49843 
 H                    -3.55036   0.24102   2.58982 
 H                    -4.48417  -0.43034  -1.55037 
 H                    -3.46523   1.01054  -1.64517 
 H                    -2.85686  -0.5517   -2.21968 
 H                    -0.03419  -0.79474   2.46109 
 H                     1.31434  -1.714     1.77028 
 H                     1.62681  -0.42988   2.93639 
 H                     3.69542  -0.53087   1.78575 
 H                     3.47494   1.20999   1.92671 
 H                     5.80794   0.65709   1.18594 
 H                     5.16953  -0.1764   -0.23977 
 H                     4.9674    1.57419  -0.07196 
 C                    -0.06155   1.28263  -1.16143 
 C                    -0.22596   2.67681  -0.62141 
 C                    -1.23484   3.49391  -0.92734 
 H                    -0.87945   1.06498  -1.85531 
 H                     0.85977   1.23088  -1.75784 
 H                     0.55544   3.04389   0.04328 
 H                    -1.2945    4.50146  -0.5264 
 H                    -2.03408   3.1882   -1.5984 
 
                          Input orientation:                          
 ---------------------------------------------------------------------
 Center     Atomic      Atomic             Coordinates (Angstroms)
 Number     Number       Type             X           Y           Z
 ---------------------------------------------------------------------
      1          6           0        2.443338    0.346571    0.272099
      2          6           0        1.074265    0.321428    0.967763
      3          6           0       -0.041324    0.140935   -0.101173
      4          6           0        0.216452   -1.200027   -0.811066
      5          6           0        1.652797   -1.453763   -1.241170
      6          1           0        2.493636    1.219172   -0.389632
      7          1           0        0.936194    1.310283    1.419054
      8          1           0       -0.037290   -2.019589   -0.129930
      9          1           0       -0.411127   -1.321372   -1.697828
     10          8           0        2.651793   -0.816078   -0.593431
     11          8           0        1.936422   -2.269465   -2.093290
     12          6           0        3.649148    0.398612    1.208963
     13          6           0        4.975305    0.625819    0.476929
     14          6           0        0.991125   -0.720416    2.096393
     15          8           0       -1.284402    0.139829    0.587699
     16         14           0       -2.835125   -0.444564    0.299988
     17          6           0       -3.455866   -0.065174   -1.442577
     18          6           0       -2.916934   -2.308509    0.591374
     19          6           0       -3.892623    0.450528    1.571055
     20          1           0       -3.959709   -2.646289    0.564192
     21          1           0       -2.370574   -2.876137   -0.168918
     22          1           0       -2.508376   -2.577402    1.571438
     23          1           0       -3.854431    1.534227    1.420737
     24          1           0       -4.939803    0.136263    1.498428
     25          1           0       -3.550358    0.241019    2.589820
     26          1           0       -4.484173   -0.430341   -1.550370
     27          1           0       -3.465233    1.010540   -1.645170
     28          1           0       -2.856857   -0.551702   -2.219677
     29          1           0       -0.034191   -0.794739    2.461086
     30          1           0        1.314343   -1.713995    1.770280
     31          1           0        1.626814   -0.429879    2.936388
     32          1           0        3.695416   -0.530870    1.785748
     33          1           0        3.474938    1.209992    1.926710
     34          1           0        5.807935    0.657094    1.185941
     35          1           0        5.169530   -0.176399   -0.239768
     36          1           0        4.967402    1.574186   -0.071963
     37          6           0       -0.061550    1.282633   -1.161429
     38          6           0       -0.225959    2.676810   -0.621413
     39          6           0       -1.234844    3.493910   -0.927341
     40          1           0       -0.879451    1.064976   -1.855314
     41          1           0        0.859766    1.230881   -1.757835
     42          1           0        0.555443    3.043886    0.043278
     43          1           0       -1.294503    4.501462   -0.526396
     44          1           0       -2.034084    3.188196   -1.598397
 ---------------------------------------------------------------------
                    Distance matrix (angstroms):
                    1          2          3          4          5
     1  C    0.000000
     2  C    1.535885   0.000000
     3  C    2.520945   1.555552   0.000000
     4  C    2.919629   2.492970   1.539018   0.000000
     5  C    2.481157   2.892298   2.590888   1.520677   0.000000
     6  H    1.096289   2.159416   2.769806   3.348985   2.928602
     7  H    2.125025   1.095701   2.152674   3.434111   3.902597
     8  H    3.451645   2.814400   2.160719   1.095451   2.100335
     9  H    3.848456   3.465625   2.196452   1.093127   2.117982
    10  O    1.464359   2.493961   2.900185   2.475009   1.350630
    11  O    3.563099   4.101961   3.700005   2.397101   1.213228
    12  C    1.527874   2.587307   3.924594   4.291802   3.663313
    13  C    2.555541   3.943562   5.073054   5.257312   4.279671
    14  C    2.564261   1.538232   2.576271   3.046878   3.480651
    15  O    3.746784   2.395983   1.421193   2.450371   3.809388
    16  Si   5.337494   4.039307   2.882545   3.334260   4.851298
    17  C    6.157130   5.145997   3.674363   3.895204   5.297847
    18  C    5.990317   4.794571   3.840382   3.607448   4.997124
    19  C    6.468578   5.005058   4.210071   5.028253   6.502816
    20  H    7.074005   5.857568   4.854387   4.628534   6.015120
    21  H    5.809827   4.835637   3.812180   3.148714   4.400044
    22  H    5.895538   4.647898   4.034021   3.872748   5.146716
    23  H    6.510898   5.095892   4.335580   5.387873   6.807598
    24  H    7.487248   6.040274   5.153042   5.805721   7.314093
    25  H    6.427080   4.901497   4.423209   5.275557   6.679940
    26  H    7.205234   6.148364   4.708018   4.820255   6.229398
    27  H    6.247238   5.282929   3.855294   4.374602   5.694755
    28  H    5.925193   5.135742   3.590965   3.442345   4.701932
    29  H    3.497485   2.168990   2.727766   3.306669   4.121522
    30  H    2.786594   2.201049   2.963264   2.851820   3.041563
    31  H    2.892753   2.178361   3.512163   4.077458   4.301279
    32  H    2.151450   2.875055   4.239696   4.392540   3.766465
    33  H    2.132471   2.733561   4.197534   4.890945   4.522306
    34  H    3.500292   4.750569   6.011399   6.221062   5.254689
    35  H    2.822699   4.298507   5.222347   5.089909   3.873225
    36  H    2.827776   4.219828   5.209837   5.551041   4.639195
    37  C    3.034086   2.597585   1.558213   2.522626   3.230048
    38  C    3.654247   3.124722   2.595265   3.906605   4.579897
    39  C    4.987326   4.357527   3.653695   4.914552   5.737284
    40  H    4.010351   3.512781   2.152515   2.724279   3.624017
    41  H    2.722193   2.881319   2.178181   2.686920   2.846604
    42  H    3.300305   2.921579   2.967174   4.342305   4.804460
    43  H    5.645544   5.031526   4.556914   5.905167   6.682977
    44  H    5.623246   4.946248   3.936823   4.994127   5.938728
                    6          7          8          9         10
     6  H    0.000000
     7  H    2.388571   0.000000
     8  H    4.118568   3.799351   0.000000
     9  H    4.074726   4.296026   1.756578   0.000000
    10  O    2.051534   3.393345   2.982355   3.294919   0.000000
    11  O    3.922184   5.113865   2.795131   2.562471   2.207638
    12  C    2.136360   2.869739   4.607619   5.281440   2.391404
    13  C    2.694750   4.203630   5.700225   6.126563   2.936570
    14  C    3.492830   2.141388   2.775248   4.089446   3.162613
    15  O    4.048917   2.644269   2.594873   2.849798   4.219296
    16  Si   5.624881   4.307510   3.239354   3.261262   5.571579
    17  C    6.176958   5.419502   4.150836   3.303577   6.211957
    18  C    6.533083   5.350449   2.982634   3.534679   5.885731
    19  C    6.724538   4.907113   4.884508   5.093726   7.008471
    20  H    7.582693   6.352568   4.032360   4.411867   6.957135
    21  H    6.362453   5.566191   2.485842   2.931602   5.445018
    22  H    6.578746   5.196381   3.051569   4.082176   5.866538
    23  H    6.608680   4.795857   5.441024   5.453094   7.204981
    24  H    7.745546   5.992659   5.597667   5.731462   7.931908
    25  H    6.809095   4.758484   4.984881   5.538932   7.051044
    26  H    7.263472   6.420874   4.931341   4.171976   7.210169
    27  H    6.093277   5.371394   4.819588   3.842935   6.469984
    28  H    5.925608   5.576252   3.804168   2.616546   5.749765
    29  H    4.309564   2.541377   2.865943   4.209037   4.067559
    30  H    3.828762   3.067998   2.351829   3.893478   2.860447
    31  H    3.812238   2.409859   3.833892   5.140420   3.695856
    32  H    3.039605   3.337307   4.451876   5.442783   2.613615
    33  H    2.515647   2.590945   5.195739   5.886135   3.336711
    34  H    3.712538   4.920859   6.562226   7.134927   3.911219
    35  H    3.021669   4.783623   5.524526   5.880530   2.621692
    36  H    2.519219   4.306207   6.161617   6.321097   3.368581
    37  C    2.669958   2.766794   3.459660   2.681561   3.476987
    38  C    3.094290   2.716892   4.725814   4.144685   4.525760
    39  C    4.400583   3.871331   5.698129   4.945614   5.813213
    40  H    3.680994   3.752096   3.633280   2.436962   4.195283
    41  H    2.131114   3.178800   3.744374   2.851800   2.959263
    42  H    2.696958   2.245687   5.100991   4.798040   4.438401
    43  H    5.014193   4.352517   6.652960   6.004832   6.622234
    44  H    5.083150   4.631859   5.767548   4.793754   6.245127
                   11         12         13         14         15
    11  O    0.000000
    12  C    4.577875   0.000000
    13  C    4.921738   1.531728   0.000000
    14  C    4.565806   3.017423   4.506518   0.000000
    15  O    4.833850   4.979242   6.279521   2.862552   0.000000
    16  Si   5.641427   6.601741   7.885420   4.235960   1.681973
    17  C    5.861663   7.597828   8.674481   5.720960   2.979816
    18  C    5.546531   7.129050   8.420856   4.478844   2.942708
    19  C    7.402942   7.550637   8.936889   5.049563   2.804700
    20  H    6.478315   8.220818   9.515712   5.528778   3.862677
    21  H    4.756204   6.989964   8.163501   4.591273   3.293674
    22  H    5.768993   6.848587   8.213651   3.996309   3.138343
    23  H    7.768554   7.591980   8.926378   5.386960   3.040287
    24  H    8.122219   8.597831   9.979604   6.022239   3.767147
    25  H    7.637984   7.332427   8.792003   4.668286   3.025440
    26  H    6.700834   8.628557   9.731759   6.584976   3.890369
    27  H    6.335386   7.689925   8.711716   6.070801   3.240350
    28  H    5.093349   7.415306   8.366660   5.784798   3.291229
    29  H    5.176917   4.069261   5.572245   1.090779   2.438447
    30  H    3.952556   3.198359   4.533225   1.094540   3.404209
    31  H    5.364475   2.785719   4.286704   1.092751   3.783660
    32  H    4.600403   1.094878   2.165422   2.728666   5.165631
    33  H    5.534804   1.097200   2.166616   3.150332   5.058608
    34  H    5.857194   2.174328   1.094052   5.091966   7.136295
    35  H    4.274278   2.177388   1.093129   4.817953   6.514441
    36  H    5.295872   2.181866   1.095785   5.077179   6.448068
    37  C    4.180629   4.491050   5.337184   3.966577   2.420912
    38  C    5.595351   4.853547   5.697900   4.517622   3.003086
    39  C    6.680783   6.164255   6.983113   5.644329   3.680715
    40  H    4.370843   5.508361   6.317467   4.722570   2.643519
    41  H    3.677518   4.156346   4.722069   4.322024   3.359967
    42  H    5.890987   4.234065   5.056707   4.309880   3.480657
    43  H    7.664169   6.654663   7.438936   6.274642   4.501683
    44  H    6.767267   6.925473   7.746243   6.170949   3.825386
                   16         17         18         19         20
    16  Si   0.000000
    17  C    1.888330   0.000000
    18  C    1.888356   3.075704   0.000000
    19  C    1.880187   3.088476   3.086103   0.000000
    20  H    2.486380   3.308041   1.096455   3.257077   0.000000
    21  H    2.519569   3.271327   1.094877   4.051029   1.765115
    22  H    2.504466   4.036498   1.095330   3.329339   1.767953
    23  H    2.492123   3.303862   4.041456   1.094741   4.268661
    24  H    2.490640   3.300327   3.300251   1.095729   3.094508
    25  H    2.494978   4.045109   3.300773   1.094953   3.550674
    26  H    2.478586   1.096532   3.251280   3.296840   3.107549
    27  H    2.509582   1.094665   4.039659   3.292473   4.300952
    28  H    2.522035   1.095174   3.315417   4.055481   3.654245
    29  H    3.555024   5.242014   3.754668   4.150945   4.736680
    30  H    4.581626   5.982972   4.432490   5.642459   5.489940
    31  H    5.182636   6.718778   5.447384   5.753559   6.461349
    32  H    6.697977   7.860012   6.950518   7.654252   8.035430
    33  H    6.723145   7.811158   7.417479   7.415135   8.485360
    34  H    8.757914   9.656541   9.234265   9.710397  10.329849
    35  H    8.027313   8.709568   8.404022   9.262545   9.491560
    36  H    8.068031   8.690082   8.813517   9.080868   9.894969
    37  C    3.579339   3.662924   4.911399   4.778701   5.797399
    38  C    4.171295   4.315679   5.793583   4.817434   6.609231
    39  C    4.424795   4.226758   6.229285   4.750573   6.881250
    40  H    3.278521   2.843502   4.638752   4.603994   5.395877
    41  H    4.549063   4.517059   5.684147   5.854542   6.606935
    42  H    4.871461   5.288158   6.403588   5.370745   7.282585
    43  H    5.245913   5.134690   7.089245   5.249723   7.706040
    44  H    4.176419   3.553894   5.982331   4.581967   6.513527
                   21         22         23         24         25
    21  H    0.000000
    22  H    1.771178   0.000000
    23  H    4.917331   4.328980   0.000000
    24  H    4.295990   3.644331   1.771545   0.000000
    25  H    4.326568   3.172747   1.769633   1.769934   0.000000
    26  H    3.515342   4.273094   3.617123   3.134295   4.296965
    27  H    4.299286   4.912786   3.134567   3.580632   4.305177
    28  H    3.137687   4.312476   4.312640   4.316974   4.923476
    29  H    4.087521   3.176626   4.593544   5.085126   3.667806
    30  H    4.323156   3.924053   6.114683   6.527764   5.306509
    31  H    5.621940   4.855383   6.016557   6.746014   5.231952
    32  H    6.790967   6.536150   7.835691   8.665716   7.331002
    33  H    7.433580   7.090178   7.353964   8.493773   7.122739
    34  H    9.011513   8.931495   9.704937  10.764887   9.472151
    35  H    8.009168   8.245940   9.333563  10.262441   9.176996
    36  H    8.582579   8.707681   8.947317  10.133433   9.023007
    37  C    4.859222   5.324978   4.595305   5.673302   5.227677
    38  C    5.969870   6.133903   4.317601   5.759204   5.224627
    39  C    6.514798   6.687796   4.026917   5.557416   5.321027
    40  H    4.538695   5.259557   4.450080   5.347574   5.250892
    41  H    5.461442   6.077126   5.693768   6.740656   6.271453
    42  H    6.607063   6.581880   4.860396   6.385097   5.585565
    43  H    7.464227   7.482293   4.375962   6.036811   5.740301
    44  H    6.239613   6.596585   3.894155   5.229515   5.340983
                   26         27         28         29         30
    26  H    0.000000
    27  H    1.767304   0.000000
    28  H    1.763762   1.772225   0.000000
    29  H    6.002242   5.647337   5.471385   0.000000
    30  H    6.804210   6.475549   5.888089   1.772227   0.000000
    31  H    7.581237   6.999602   6.833970   1.765778   1.762498
    32  H    8.834334   8.088389   7.679593   3.799431   2.658859
    33  H    8.839017   7.807950   7.770954   4.076578   3.639003
    34  H   10.705018   9.702152   9.388186   6.153393   5.114282
    35  H    9.745571   8.828540   8.275493   5.895394   4.611612
    36  H    9.774256   8.596628   8.387557   6.086384   5.248889
    37  C    4.758692   3.448637   3.506910   4.175983   4.412231
    38  C    5.352545   3.783838   4.460870   4.646529   5.231816
    39  C    5.132840   3.414241   4.546211   5.596027   6.395138
    40  H    3.914458   2.594878   2.580028   4.775386   5.067578
    41  H    5.600034   4.332073   4.147793   4.764619   4.618066
    42  H    6.325164   4.811568   5.449129   4.574768   5.118193
    43  H    5.961979   4.260312   5.553613   6.209926   7.121285
    44  H    4.370246   2.606254   3.879405   6.028494   6.825791
                   31         32         33         34         35
    31  H    0.000000
    32  H    2.369237   0.000000
    33  H    2.669118   1.760421   0.000000
    34  H    4.661260   2.496751   2.509444   0.000000
    35  H    4.764772   2.530094   3.080154   1.770570   0.000000
    36  H    4.921989   3.082256   2.520869   1.769146   1.770187
    37  C    4.751355   5.107782   4.695597   6.352346   5.508396
    38  C    5.073680   5.608994   4.726640   6.614655   6.115370
    39  C    6.205933   6.918610   5.961873   7.881258   7.413497
    40  H    5.610380   6.060814   5.769353   7.357767   6.382881
    41  H    5.038077   4.868435   4.518344   5.786141   4.781112
    42  H    4.645962   5.067002   3.928605   5.881422   5.633840
    43  H    6.696498   7.454506   6.292779   8.255658   7.984251
    44  H    6.859804   7.623061   6.832934   8.698062   8.065880
                   36         37         38         39         40
    36  H    0.000000
    37  C    5.153862   0.000000
    38  C    5.337478   1.504120   0.000000
    39  C    6.548654   2.514192   1.333827   0.000000
    40  H    6.133949   1.094446   2.132504   2.624340   0.000000
    41  H    4.453392   1.098727   2.135641   3.193495   1.749829
    42  H    4.651740   2.221263   1.089563   2.085606   3.095102
    43  H    6.927258   3.504897   2.116641   1.086037   3.707793
    44  H    7.345464   2.777229   2.117860   1.087457   2.430483
                   41         42         43         44
    41  H    0.000000
    42  H    2.573637   0.000000
    43  H    4.105364   2.423088   0.000000
    44  H    3.497266   3.069458   1.849550   0.000000
 Stoichiometry    C14H26O3Si
 Framework group  C1[X(C14H26O3Si)]
 Deg. of freedom   126
 Full point group                 C1      NOp   1
 Largest Abelian subgroup         C1      NOp   1
 Largest concise Abelian subgroup C1      NOp   1
                         Standard orientation:                         
 ---------------------------------------------------------------------
 Center     Atomic      Atomic             Coordinates (Angstroms)
 Number     Number       Type             X           Y           Z
 ---------------------------------------------------------------------
      1          6           0        2.443338    0.346571    0.272099
      2          6           0        1.074265    0.321428    0.967763
      3          6           0       -0.041324    0.140935   -0.101173
      4          6           0        0.216452   -1.200027   -0.811066
      5          6           0        1.652797   -1.453763   -1.241170
      6          1           0        2.493636    1.219172   -0.389632
      7          1           0        0.936194    1.310283    1.419054
      8          1           0       -0.037290   -2.019589   -0.129930
      9          1           0       -0.411127   -1.321372   -1.697828
     10          8           0        2.651793   -0.816078   -0.593431
     11          8           0        1.936422   -2.269465   -2.093290
     12          6           0        3.649148    0.398612    1.208963
     13          6           0        4.975305    0.625819    0.476929
     14          6           0        0.991125   -0.720416    2.096393
     15          8           0       -1.284402    0.139829    0.587699
     16         14           0       -2.835125   -0.444564    0.299988
     17          6           0       -3.455866   -0.065174   -1.442577
     18          6           0       -2.916934   -2.308509    0.591374
     19          6           0       -3.892623    0.450528    1.571055
     20          1           0       -3.959709   -2.646289    0.564192
     21          1           0       -2.370574   -2.876137   -0.168918
     22          1           0       -2.508376   -2.577402    1.571438
     23          1           0       -3.854431    1.534227    1.420737
     24          1           0       -4.939803    0.136263    1.498428
     25          1           0       -3.550358    0.241019    2.589820
     26          1           0       -4.484173   -0.430341   -1.550370
     27          1           0       -3.465233    1.010540   -1.645170
     28          1           0       -2.856857   -0.551702   -2.219677
     29          1           0       -0.034191   -0.794739    2.461086
     30          1           0        1.314343   -1.713995    1.770280
     31          1           0        1.626814   -0.429879    2.936388
     32          1           0        3.695416   -0.530870    1.785748
     33          1           0        3.474938    1.209992    1.926710
     34          1           0        5.807935    0.657094    1.185941
     35          1           0        5.169530   -0.176399   -0.239768
     36          1           0        4.967402    1.574186   -0.071963
     37          6           0       -0.061550    1.282633   -1.161429
     38          6           0       -0.225959    2.676810   -0.621413
     39          6           0       -1.234844    3.493910   -0.927341
     40          1           0       -0.879451    1.064976   -1.855314
     41          1           0        0.859766    1.230881   -1.757835
     42          1           0        0.555443    3.043886    0.043278
     43          1           0       -1.294503    4.501462   -0.526396
     44          1           0       -2.034084    3.188196   -1.598397
 ---------------------------------------------------------------------
 Rotational constants (GHZ):      0.5544456      0.2454775      0.2224019
 Standard basis: def2TZVP (5D, 7F)
 There are   810 symmetry adapted cartesian basis functions of A   symmetry.
 There are   720 symmetry adapted basis functions of A   symmetry.
   720 basis functions,  1144 primitive gaussians,   810 cartesian basis functions
    74 alpha electrons       74 beta electrons
       nuclear repulsion energy      1621.6153147563 Hartrees.
 NAtoms=   44 NActive=   44 NUniq=   44 SFac= 1.00D+00 NAtFMM=   60 NAOKFM=F Big=F
 Integral buffers will be    131072 words long.
 Raffenetti 2 integral format.
 Two-electron integral symmetry is turned on.
 ------------------------------------------------------------------------------
 Polarizable Continuum Model (PCM)
 =================================
 Model                : PCM (using non-symmetric T matrix).
 Atomic radii         : UFF (Universal Force Field).
 Polarization charges : Total charges.
 Charge compensation  : None.
 Solution method      : On-the-fly selection.
 Cavity type          : Scaled VdW (van der Waals Surface) (Alpha=1.100).
 Cavity algorithm     : GePol (No added spheres)
                        Default sphere list used, NSphG=   44.
                        Lebedev-Laikov grids with approx.  5.0 points / Ang**2.
                        Smoothing algorithm: Karplus/York (Gamma=1.0000).
                        Polarization charges: spherical gaussians, with
                                              point-specific exponents (IZeta= 3).
                        Self-potential: point-specific (ISelfS= 7).
                        Self-field    : sphere-specific E.n sum rule (ISelfD= 2).
 Solvent              : Chloroform, Eps=   4.711300 Eps(inf)=   2.090627
 ------------------------------------------------------------------------------
 One-electron integrals computed using PRISM.
   1 Symmetry operations used in ECPInt.
 ECPInt:  NShTT=   46360 NPrTT=  137514 LenC2=   41887 LenP2D=   89854.
 LDataN:  DoStor=T MaxTD1= 6 Len=  172
 NBasis=   720 RedAO= T EigKep=  4.27D-05  NBF=   720
 NBsUse=   720 1.00D-06 EigRej= -1.00D+00 NBFU=   720
 ExpMin= 7.01D-02 ExpMax= 4.48D+04 ExpMxC= 1.53D+03 IAcc=3 IRadAn=         5 AccDes= 0.00D+00
 Harris functional with IExCor= 1009 and IRadAn=       5 diagonalized for initial guess.
 HarFok:  IExCor= 1009 AccDes= 0.00D+00 IRadAn=         5 IDoV= 1 UseB2=F ITyADJ=14
 ICtDFT=  3500011 ScaDFX=  1.000000  1.000000  1.000000  1.000000
 FoFCou: FMM=F IPFlag=           0 FMFlag=      100000 FMFlg1=           0
         NFxFlg=           0 DoJE=T BraDBF=F KetDBF=T FulRan=T
         wScrn=  0.000000 ICntrl=     500 IOpCl=  0 I1Cent=   200000004 NGrid=           0
         NMat0=    1 NMatS0=      1 NMatT0=    0 NMatD0=    1 NMtDS0=    0 NMtDT0=    0
 Petite list used in FoFCou.
 Requested convergence on RMS density matrix=1.00D-08 within 128 cycles.
 Requested convergence on MAX density matrix=1.00D-06.
 Requested convergence on             energy=1.00D-06.
 No special actions if energy rises.
 Inv3:  Mode=1 IEnd=    24779628.
 Iteration    1 A*A^-1 deviation from unit magnitude is 5.77D-15 for    662.
 Iteration    1 A*A^-1 deviation from orthogonality  is 4.08D-15 for   2843   1266.
 Iteration    1 A^-1*A deviation from unit magnitude is 5.55D-15 for    682.
 Iteration    1 A^-1*A deviation from orthogonality  is 3.34D-09 for   2268   2263.
 Iteration    2 A*A^-1 deviation from unit magnitude is 7.77D-15 for   1436.
 Iteration    2 A*A^-1 deviation from orthogonality  is 5.54D-15 for   2801    682.
 Iteration    2 A^-1*A deviation from unit magnitude is 1.11D-15 for      6.
 Iteration    2 A^-1*A deviation from orthogonality  is 4.23D-16 for   2496   1432.
 Error on total polarization charges =  0.01483
 SCF Done:  E(RM062X) =  -1064.33963429     A.U. after   14 cycles
            NFock= 14  Conv=0.15D-08     -V/T= 2.0047

 **********************************************************************

            Population analysis using the SCF density.

 **********************************************************************

 Orbital symmetries:
       Occupied  (A) (A) (A) (A) (A) (A) (A) (A) (A) (A) (A) (A)
                 (A) (A) (A) (A) (A) (A) (A) (A) (A) (A) (A) (A)
                 (A) (A) (A) (A) (A) (A) (A) (A) (A) (A) (A) (A)
                 (A) (A) (A) (A) (A) (A) (A) (A) (A) (A) (A) (A)
                 (A) (A) (A) (A) (A) (A) (A) (A) (A) (A) (A) (A)
                 (A) (A) (A) (A) (A) (A) (A) (A) (A) (A) (A) (A)
                 (A) (A)
       Virtual   (A) (A) (A) (A) (A) (A) (A) (A) (A) (A) (A) (A)
                 (A) (A) (A) (A) (A) (A) (A) (A) (A) (A) (A) (A)
                 (A) (A) (A) (A) (A) (A) (A) (A) (A) (A) (A) (A)
                 (A) (A) (A) (A) (A) (A) (A) (A) (A) (A) (A) (A)
                 (A) (A) (A) (A) (A) (A) (A) (A) (A) (A) (A) (A)
                 (A) (A) (A) (A) (A) (A) (A) (A) (A) (A) (A) (A)
                 (A) (A) (A) (A) (A) (A) (A) (A) (A) (A) (A) (A)
                 (A) (A) (A) (A) (A) (A) (A) (A) (A) (A) (A) (A)
                 (A) (A) (A) (A) (A) (A) (A) (A) (A) (A) (A) (A)
                 (A) (A) (A) (A) (A) (A) (A) (A) (A) (A) (A) (A)
                 (A) (A) (A) (A) (A) (A) (A) (A) (A) (A) (A) (A)
                 (A) (A) (A) (A) (A) (A) (A) (A) (A) (A) (A) (A)
                 (A) (A) (A) (A) (A) (A) (A) (A) (A) (A) (A) (A)
                 (A) (A) (A) (A) (A) (A) (A) (A) (A) (A) (A) (A)
                 (A) (A) (A) (A) (A) (A) (A) (A) (A) (A) (A) (A)
                 (A) (A) (A) (A) (A) (A) (A) (A) (A) (A) (A) (A)
                 (A) (A) (A) (A) (A) (A) (A) (A) (A) (A) (A) (A)
                 (A) (A) (A) (A) (A) (A) (A) (A) (A) (A) (A) (A)
                 (A) (A) (A) (A) (A) (A) (A) (A) (A) (A) (A) (A)
                 (A) (A) (A) (A) (A) (A) (A) (A) (A) (A) (A) (A)
                 (A) (A) (A) (A) (A) (A) (A) (A) (A) (A) (A) (A)
                 (A) (A) (A) (A) (A) (A) (A) (A) (A) (A) (A) (A)
                 (A) (A) (A) (A) (A) (A) (A) (A) (A) (A) (A) (A)
                 (A) (A) (A) (A) (A) (A) (A) (A) (A) (A) (A) (A)
                 (A) (A) (A) (A) (A) (A) (A) (A) (A) (A) (A) (A)
                 (A) (A) (A) (A) (A) (A) (A) (A) (A) (A) (A) (A)
                 (A) (A) (A) (A) (A) (A) (A) (A) (A) (A) (A) (A)
                 (A) (A) (A) (A) (A) (A) (A) (A) (A) (A) (A) (A)
                 (A) (A) (A) (A) (A) (A) (A) (A) (A) (A) (A) (A)
                 (A) (A) (A) (A) (A) (A) (A) (A) (A) (A) (A) (A)
                 (A) (A) (A) (A) (A) (A) (A) (A) (A) (A) (A) (A)
                 (A) (A) (A) (A) (A) (A) (A) (A) (A) (A) (A) (A)
                 (A) (A) (A) (A) (A) (A) (A) (A) (A) (A) (A) (A)
                 (A) (A) (A) (A) (A) (A) (A) (A) (A) (A) (A) (A)
                 (A) (A) (A) (A) (A) (A) (A) (A) (A) (A) (A) (A)
                 (A) (A) (A) (A) (A) (A) (A) (A) (A) (A) (A) (A)
                 (A) (A) (A) (A) (A) (A) (A) (A) (A) (A) (A) (A)
                 (A) (A) (A) (A) (A) (A) (A) (A) (A) (A) (A) (A)
                 (A) (A) (A) (A) (A) (A) (A) (A) (A) (A) (A) (A)
                 (A) (A) (A) (A) (A) (A) (A) (A) (A) (A) (A) (A)
                 (A) (A) (A) (A) (A) (A) (A) (A) (A) (A) (A) (A)
                 (A) (A) (A) (A) (A) (A) (A) (A) (A) (A) (A) (A)
                 (A) (A) (A) (A) (A) (A) (A) (A) (A) (A) (A) (A)
                 (A) (A) (A) (A) (A) (A) (A) (A) (A) (A) (A) (A)
                 (A) (A) (A) (A) (A) (A) (A) (A) (A) (A) (A) (A)
                 (A) (A) (A) (A) (A) (A) (A) (A) (A) (A) (A) (A)
                 (A) (A) (A) (A) (A) (A) (A) (A) (A) (A) (A) (A)
                 (A) (A) (A) (A) (A) (A) (A) (A) (A) (A) (A) (A)
                 (A) (A) (A) (A) (A) (A) (A) (A) (A) (A) (A) (A)
                 (A) (A) (A) (A) (A) (A) (A) (A) (A) (A) (A) (A)
                 (A) (A) (A) (A) (A) (A) (A) (A) (A) (A) (A) (A)
                 (A) (A) (A) (A) (A) (A) (A) (A) (A) (A) (A) (A)
                 (A) (A) (A) (A) (A) (A) (A) (A) (A) (A) (A) (A)
                 (A) (A) (A) (A) (A) (A) (A) (A) (A) (A)
 The electronic state is 1-A.
 Alpha  occ. eigenvalues --  -67.01651 -19.67373 -19.61903 -19.61803 -10.68450
 Alpha  occ. eigenvalues --  -10.62174 -10.61048 -10.55911 -10.55496 -10.54934
 Alpha  occ. eigenvalues --  -10.54815 -10.54203 -10.53647 -10.52942 -10.52596
 Alpha  occ. eigenvalues --  -10.51239 -10.50995 -10.50752  -5.55097  -3.86284
 Alpha  occ. eigenvalues --   -3.86142  -3.86129  -1.23009  -1.14368  -1.13411
 Alpha  occ. eigenvalues --   -0.93632  -0.90600  -0.88428  -0.84743  -0.80936
 Alpha  occ. eigenvalues --   -0.80159  -0.78278  -0.76983  -0.76771  -0.73287
 Alpha  occ. eigenvalues --   -0.70516  -0.69045  -0.64722  -0.60972  -0.59664
 Alpha  occ. eigenvalues --   -0.59087  -0.57120  -0.55726  -0.54579  -0.53670
 Alpha  occ. eigenvalues --   -0.52392  -0.50717  -0.50225  -0.49538  -0.48695
 Alpha  occ. eigenvalues --   -0.47936  -0.47795  -0.47601  -0.47120  -0.46190
 Alpha  occ. eigenvalues --   -0.45748  -0.45418  -0.44767  -0.44506  -0.44170
 Alpha  occ. eigenvalues --   -0.44048  -0.42465  -0.42187  -0.41771  -0.41454
 Alpha  occ. eigenvalues --   -0.40625  -0.39472  -0.38464  -0.36628  -0.36565
 Alpha  occ. eigenvalues --   -0.35910  -0.34540  -0.33654  -0.32133
 Alpha virt. eigenvalues --    0.02760   0.03871   0.04978   0.06341   0.07666
 Alpha virt. eigenvalues --    0.08012   0.08944   0.09555   0.09792   0.10010
 Alpha virt. eigenvalues --    0.10386   0.11113   0.11679   0.12256   0.12427
 Alpha virt. eigenvalues --    0.13363   0.13783   0.13851   0.14902   0.15252
 Alpha virt. eigenvalues --    0.15451   0.15732   0.15964   0.16236   0.16499
 Alpha virt. eigenvalues --    0.16969   0.17515   0.17629   0.18094   0.18306
 Alpha virt. eigenvalues --    0.18833   0.19654   0.19864   0.20301   0.20896
 Alpha virt. eigenvalues --    0.21105   0.21490   0.22434   0.22640   0.23328
 Alpha virt. eigenvalues --    0.23465   0.23990   0.24634   0.25044   0.25430
 Alpha virt. eigenvalues --    0.26143   0.27099   0.27367   0.27524   0.28269
 Alpha virt. eigenvalues --    0.28606   0.29537   0.30104   0.30340   0.30437
 Alpha virt. eigenvalues --    0.30850   0.32182   0.33018   0.33290   0.33671
 Alpha virt. eigenvalues --    0.34161   0.35157   0.35564   0.36554   0.36981
 Alpha virt. eigenvalues --    0.37559   0.38094   0.38266   0.38851   0.39011
 Alpha virt. eigenvalues --    0.39279   0.40001   0.40720   0.41097   0.41388
 Alpha virt. eigenvalues --    0.41782   0.42411   0.42820   0.43336   0.44021
 Alpha virt. eigenvalues --    0.44442   0.44687   0.45145   0.45894   0.46362
 Alpha virt. eigenvalues --    0.46439   0.47425   0.47581   0.47939   0.48166
 Alpha virt. eigenvalues --    0.48555   0.48851   0.49095   0.49355   0.49776
 Alpha virt. eigenvalues --    0.49918   0.50273   0.51031   0.51489   0.51689
 Alpha virt. eigenvalues --    0.51952   0.52613   0.52939   0.53403   0.53852
 Alpha virt. eigenvalues --    0.54028   0.54869   0.55094   0.55750   0.56160
 Alpha virt. eigenvalues --    0.56765   0.56956   0.57554   0.58379   0.58637
 Alpha virt. eigenvalues --    0.59890   0.60314   0.61111   0.61286   0.62084
 Alpha virt. eigenvalues --    0.62670   0.62979   0.63735   0.64350   0.65324
 Alpha virt. eigenvalues --    0.66078   0.66638   0.67492   0.67728   0.68438
 Alpha virt. eigenvalues --    0.69008   0.70392   0.71517   0.72184   0.72935
 Alpha virt. eigenvalues --    0.73784   0.74189   0.75147   0.76370   0.77412
 Alpha virt. eigenvalues --    0.77758   0.78825   0.79035   0.79710   0.81044
 Alpha virt. eigenvalues --    0.81738   0.83235   0.84261   0.84771   0.85085
 Alpha virt. eigenvalues --    0.86523   0.87865   0.89044   0.89827   0.90447
 Alpha virt. eigenvalues --    0.91265   0.92023   0.92134   0.93352   0.93758
 Alpha virt. eigenvalues --    0.94220   0.95094   0.95507   0.96175   0.96638
 Alpha virt. eigenvalues --    0.98476   0.98826   0.99472   0.99913   1.00392
 Alpha virt. eigenvalues --    1.01579   1.02709   1.03844   1.04317   1.05023
 Alpha virt. eigenvalues --    1.05803   1.06676   1.06971   1.07265   1.07472
 Alpha virt. eigenvalues --    1.08389   1.08485   1.08857   1.09832   1.10710
 Alpha virt. eigenvalues --    1.11519   1.12494   1.13803   1.14310   1.15143
 Alpha virt. eigenvalues --    1.16165   1.17031   1.18001   1.18586   1.19489
 Alpha virt. eigenvalues --    1.20158   1.22092   1.22448   1.23392   1.24027
 Alpha virt. eigenvalues --    1.24660   1.25260   1.26499   1.28053   1.28749
 Alpha virt. eigenvalues --    1.29883   1.30994   1.31405   1.32826   1.33704
 Alpha virt. eigenvalues --    1.34723   1.36117   1.36738   1.37618   1.38495
 Alpha virt. eigenvalues --    1.39129   1.39507   1.40725   1.41954   1.42189
 Alpha virt. eigenvalues --    1.43307   1.44835   1.45303   1.45729   1.46280
 Alpha virt. eigenvalues --    1.47045   1.48278   1.49752   1.51270   1.52862
 Alpha virt. eigenvalues --    1.53666   1.54657   1.55886   1.56173   1.56522
 Alpha virt. eigenvalues --    1.57464   1.57974   1.58172   1.58794   1.59061
 Alpha virt. eigenvalues --    1.59227   1.59281   1.60275   1.60942   1.61285
 Alpha virt. eigenvalues --    1.62113   1.62679   1.63066   1.63689   1.64514
 Alpha virt. eigenvalues --    1.64634   1.65351   1.66078   1.66202   1.66993
 Alpha virt. eigenvalues --    1.67216   1.67508   1.67936   1.69123   1.69754
 Alpha virt. eigenvalues --    1.70257   1.70789   1.71888   1.72259   1.74026
 Alpha virt. eigenvalues --    1.74457   1.75076   1.75917   1.76893   1.77121
 Alpha virt. eigenvalues --    1.78786   1.80031   1.80749   1.81982   1.82137
 Alpha virt. eigenvalues --    1.83614   1.85596   1.86085   1.86177   1.87448
 Alpha virt. eigenvalues --    1.88204   1.89314   1.90414   1.91318   1.92021
 Alpha virt. eigenvalues --    1.93659   1.95484   1.96739   1.97600   1.97890
 Alpha virt. eigenvalues --    1.98988   1.99980   2.00510   2.00603   2.01905
 Alpha virt. eigenvalues --    2.03414   2.03942   2.05263   2.05891   2.06903
 Alpha virt. eigenvalues --    2.07091   2.07646   2.08399   2.08876   2.09413
 Alpha virt. eigenvalues --    2.10660   2.11275   2.12377   2.13820   2.14203
 Alpha virt. eigenvalues --    2.15122   2.15729   2.17179   2.17276   2.18636
 Alpha virt. eigenvalues --    2.20950   2.21842   2.22267   2.23066   2.23972
 Alpha virt. eigenvalues --    2.25449   2.25745   2.26602   2.27131   2.27934
 Alpha virt. eigenvalues --    2.30414   2.30587   2.31355   2.31615   2.32859
 Alpha virt. eigenvalues --    2.33519   2.34242   2.35199   2.35917   2.37105
 Alpha virt. eigenvalues --    2.38109   2.38349   2.38555   2.38785   2.39503
 Alpha virt. eigenvalues --    2.40393   2.41248   2.41551   2.41813   2.42267
 Alpha virt. eigenvalues --    2.43505   2.43612   2.44445   2.44622   2.45694
 Alpha virt. eigenvalues --    2.46078   2.46571   2.46814   2.47994   2.48964
 Alpha virt. eigenvalues --    2.49928   2.51416   2.52232   2.52993   2.54209
 Alpha virt. eigenvalues --    2.55340   2.56175   2.57662   2.58279   2.58415
 Alpha virt. eigenvalues --    2.58932   2.59866   2.60358   2.60717   2.61374
 Alpha virt. eigenvalues --    2.61813   2.62727   2.63510   2.63760   2.64213
 Alpha virt. eigenvalues --    2.65421   2.65787   2.66251   2.67229   2.67950
 Alpha virt. eigenvalues --    2.68686   2.68849   2.69769   2.69846   2.70581
 Alpha virt. eigenvalues --    2.71137   2.72328   2.72589   2.73126   2.74182
 Alpha virt. eigenvalues --    2.74316   2.74433   2.75760   2.76706   2.77296
 Alpha virt. eigenvalues --    2.79456   2.80665   2.81676   2.82749   2.84497
 Alpha virt. eigenvalues --    2.85374   2.85627   2.86320   2.86978   2.88895
 Alpha virt. eigenvalues --    2.89625   2.90579   2.92307   2.92519   2.93867
 Alpha virt. eigenvalues --    2.94793   2.96727   2.97719   2.99136   3.00110
 Alpha virt. eigenvalues --    3.00778   3.01729   3.03635   3.04464   3.05809
 Alpha virt. eigenvalues --    3.06503   3.07681   3.08282   3.08609   3.09814
 Alpha virt. eigenvalues --    3.10665   3.11156   3.12130   3.12950   3.13228
 Alpha virt. eigenvalues --    3.14050   3.15100   3.15245   3.16067   3.16974
 Alpha virt. eigenvalues --    3.17313   3.17624   3.18355   3.19059   3.19076
 Alpha virt. eigenvalues --    3.19982   3.21709   3.22098   3.23705   3.24107
 Alpha virt. eigenvalues --    3.24613   3.24806   3.25754   3.26170   3.27027
 Alpha virt. eigenvalues --    3.27800   3.27960   3.28739   3.28870   3.29717
 Alpha virt. eigenvalues --    3.30122   3.30868   3.32032   3.32319   3.32611
 Alpha virt. eigenvalues --    3.33173   3.34231   3.34336   3.34637   3.35482
 Alpha virt. eigenvalues --    3.36231   3.36596   3.36988   3.38265   3.39025
 Alpha virt. eigenvalues --    3.39429   3.40682   3.41083   3.42318   3.42891
 Alpha virt. eigenvalues --    3.43473   3.44316   3.44548   3.45149   3.45563
 Alpha virt. eigenvalues --    3.47279   3.47888   3.49060   3.49626   3.50715
 Alpha virt. eigenvalues --    3.52243   3.52676   3.53858   3.54356   3.55422
 Alpha virt. eigenvalues --    3.56903   3.57309   3.57362   3.58071   3.58296
 Alpha virt. eigenvalues --    3.59956   3.60137   3.60427   3.61798   3.63456
 Alpha virt. eigenvalues --    3.63851   3.63998   3.64634   3.65367   3.66436
 Alpha virt. eigenvalues --    3.66708   3.67500   3.68355   3.68687   3.69390
 Alpha virt. eigenvalues --    3.70305   3.71324   3.74374   3.75035   3.75558
 Alpha virt. eigenvalues --    3.77725   3.78442   3.79505   3.82216   3.82991
 Alpha virt. eigenvalues --    3.84540   3.86303   3.89100   3.90527   3.91462
 Alpha virt. eigenvalues --    3.92405   3.95736   3.97637   3.98380   4.00679
 Alpha virt. eigenvalues --    4.01563   4.05087   4.07058   4.07879   4.10765
 Alpha virt. eigenvalues --    4.11327   4.11639   4.14696   4.15182   4.18530
 Alpha virt. eigenvalues --    4.21698   4.24449   4.24875   4.25286   4.25539
 Alpha virt. eigenvalues --    4.26791   4.27625   4.28183   4.29232   4.30094
 Alpha virt. eigenvalues --    4.31132   4.32260   4.33871   4.35067   4.36850
 Alpha virt. eigenvalues --    4.37160   4.37768   4.38661   4.39435   4.39638
 Alpha virt. eigenvalues --    4.41807   4.43156   4.43355   4.47523   4.48789
 Alpha virt. eigenvalues --    4.50885   4.52714   4.54149   4.55262   4.56715
 Alpha virt. eigenvalues --    4.59690   4.63275   4.64356   4.66607   4.69183
 Alpha virt. eigenvalues --    4.70869   4.73962   4.79128   4.81104   4.84493
 Alpha virt. eigenvalues --    4.85509   4.89074   4.92814   4.96782   5.00473
 Alpha virt. eigenvalues --    5.08042   5.12879   5.13842   5.16548   5.21537
 Alpha virt. eigenvalues --    5.24543   5.25877   5.26856   5.28856   5.37788
 Alpha virt. eigenvalues --    5.48093   5.49130   5.53767   5.60396   5.80977
 Alpha virt. eigenvalues --    5.86080   5.87179   5.89331   5.91403   6.01585
 Alpha virt. eigenvalues --    6.14033   6.17540   6.22646   6.36393   6.38494
 Alpha virt. eigenvalues --    6.51161   6.61110   6.63580   6.66181   6.66524
 Alpha virt. eigenvalues --    6.69528   6.76168   6.81365   6.84685   6.89332
 Alpha virt. eigenvalues --    6.92032   6.98113   7.04881   7.06037   7.16324
 Alpha virt. eigenvalues --    7.21292   7.35014   7.42126  12.17253  22.29171
 Alpha virt. eigenvalues --   22.38284  22.41626  22.42480  22.44686  22.52609
 Alpha virt. eigenvalues --   22.60764  22.63857  22.70325  22.77355  22.82058
 Alpha virt. eigenvalues --   22.89610  22.92069  23.45187  44.05476  44.50103
 Alpha virt. eigenvalues --   44.53426
          Condensed to atoms (all electrons):
               1          2          3          4          5          6
     1  C    5.499469  -0.016120  -0.015060  -0.004223  -0.036860   0.448028
     2  C   -0.016120   5.924143   0.024257   0.021684  -0.020648  -0.039891
     3  C   -0.015060   0.024257   5.816749  -0.237162   0.084954  -0.036371
     4  C   -0.004223   0.021684  -0.237162   6.210610   0.101484   0.003296
     5  C   -0.036860  -0.020648   0.084954   0.101484   4.422564  -0.005270
     6  H    0.448028  -0.039891  -0.036371   0.003296  -0.005270   0.525192
     7  H   -0.045235   0.442921  -0.049453   0.010150   0.000965   0.000815
     8  H    0.003373  -0.021164  -0.028217   0.395602  -0.007303  -0.000286
     9  H   -0.002159   0.013839  -0.027604   0.373373  -0.006103   0.000261
    10  O    0.136628   0.016763   0.020062  -0.158766   0.396306  -0.041943
    11  O    0.000024   0.001081   0.013980  -0.157891   0.741618   0.000343
    12  C    0.187364  -0.026900   0.016057  -0.004263   0.001470  -0.037150
    13  C   -0.045130   0.006686   0.000511  -0.000501   0.000468  -0.012794
    14  C   -0.026431   0.142123  -0.025526   0.008294  -0.007676   0.006574
    15  O    0.013129  -0.077185   0.157256  -0.021742  -0.003219  -0.000069
    16  Si  -0.001503   0.005632  -0.075584   0.014343  -0.002351  -0.000052
    17  C    0.000216  -0.000812   0.015574  -0.009974   0.000554   0.000000
    18  C    0.000246   0.000444  -0.004694   0.012490   0.000662   0.000001
    19  C   -0.000051  -0.000040   0.000741  -0.001688  -0.000075   0.000002
    20  H   -0.000002  -0.000043   0.000038  -0.000288  -0.000015   0.000000
    21  H   -0.000010   0.000150  -0.003358   0.002358   0.000540   0.000000
    22  H   -0.000013  -0.000040   0.003467  -0.003018  -0.000025   0.000000
    23  H    0.000006   0.000015   0.000833   0.000124  -0.000001   0.000000
    24  H    0.000001   0.000009  -0.000009   0.000023   0.000000   0.000000
    25  H    0.000011   0.000127  -0.000069   0.000102   0.000000   0.000000
    26  H   -0.000003   0.000029  -0.000702   0.000259  -0.000009   0.000000
    27  H    0.000015  -0.000256  -0.003639   0.001089  -0.000020  -0.000001
    28  H   -0.000039   0.000145   0.005339  -0.003087  -0.000145  -0.000003
    29  H    0.009263  -0.063397   0.019027  -0.010221   0.000298  -0.000116
    30  H    0.009214  -0.040839  -0.030776   0.024677  -0.005582   0.000355
    31  H   -0.019085  -0.038958   0.009562  -0.001099   0.000143  -0.000132
    32  H   -0.023436  -0.019689  -0.001870   0.000293  -0.000958   0.006015
    33  H   -0.074347   0.016789  -0.001826   0.000730   0.000094   0.000394
    34  H    0.013756  -0.000806   0.000057   0.000021   0.000005  -0.000049
    35  H   -0.019339   0.000645  -0.000330   0.000651   0.000914   0.001115
    36  H    0.001332   0.000435  -0.000132   0.000053  -0.000220   0.002388
    37  C    0.055441  -0.141676   0.211296  -0.067143  -0.003825   0.014104
    38  C   -0.011775   0.025960  -0.031698   0.001906   0.001863  -0.003216
    39  C   -0.000017  -0.000480  -0.006162   0.000142  -0.000025   0.000408
    40  H   -0.002177   0.016108  -0.033751  -0.003872  -0.001970   0.000781
    41  H    0.004603  -0.028088  -0.039179   0.003141   0.000788  -0.012117
    42  H   -0.006277   0.016767  -0.011342  -0.000634   0.000030   0.001285
    43  H   -0.000022   0.000106  -0.000224   0.000025   0.000000   0.000003
    44  H   -0.000044   0.000280  -0.002624  -0.000062   0.000007  -0.000001
               7          8          9         10         11         12
     1  C   -0.045235   0.003373  -0.002159   0.136628   0.000024   0.187364
     2  C    0.442921  -0.021164   0.013839   0.016763   0.001081  -0.026900
     3  C   -0.049453  -0.028217  -0.027604   0.020062   0.013980   0.016057
     4  C    0.010150   0.395602   0.373373  -0.158766  -0.157891  -0.004263
     5  C    0.000965  -0.007303  -0.006103   0.396306   0.741618   0.001470
     6  H    0.000815  -0.000286   0.000261  -0.041943   0.000343  -0.037150
     7  H    0.492452  -0.000450  -0.000003   0.002795   0.000041  -0.009622
     8  H   -0.000450   0.451214  -0.010519   0.000498   0.003177   0.000285
     9  H   -0.000003  -0.010519   0.454253   0.006349   0.011611   0.000001
    10  O    0.002795   0.000498   0.006349   8.002954  -0.102470  -0.039363
    11  O    0.000041   0.003177   0.011611  -0.102470   7.856334  -0.000095
    12  C   -0.009622   0.000285   0.000001  -0.039363  -0.000095   5.224397
    13  C   -0.000312   0.000031  -0.000014  -0.002638  -0.000074   0.252147
    14  C   -0.026962  -0.004466   0.000660  -0.007312  -0.000100   0.009986
    15  O    0.003318  -0.002856  -0.001617  -0.000297  -0.000197  -0.000389
    16  Si  -0.000247  -0.005370   0.001815  -0.000256  -0.000686   0.000080
    17  C   -0.000004   0.000913  -0.000755  -0.000003   0.000043  -0.000001
    18  C    0.000086  -0.003990  -0.003058  -0.000002   0.000015  -0.000003
    19  C   -0.000097   0.000095   0.000047  -0.000001  -0.000001  -0.000001
    20  H   -0.000002   0.000428   0.000041   0.000000  -0.000001   0.000000
    21  H    0.000005  -0.002742  -0.000424  -0.000002  -0.000003   0.000000
    22  H   -0.000015   0.000266   0.000163   0.000001   0.000003   0.000001
    23  H    0.000022  -0.000014  -0.000003   0.000000   0.000000   0.000000
    24  H    0.000004  -0.000004  -0.000003   0.000000   0.000000   0.000000
    25  H   -0.000019  -0.000002  -0.000010   0.000000   0.000000   0.000000
    26  H    0.000000  -0.000028   0.000017   0.000000   0.000000   0.000000
    27  H    0.000010  -0.000033  -0.000214   0.000000   0.000000   0.000000
    28  H   -0.000005  -0.000099   0.002126  -0.000005  -0.000071   0.000000
    29  H   -0.002960   0.001169  -0.000255  -0.000264  -0.000007  -0.000439
    30  H    0.006074  -0.007354   0.000445   0.004948  -0.000051  -0.011208
    31  H   -0.006925   0.000338   0.000020   0.000661  -0.000007   0.007714
    32  H    0.001300  -0.000054   0.000005  -0.000122  -0.000068   0.419020
    33  H   -0.000622  -0.000025  -0.000003   0.004801   0.000013   0.435210
    34  H   -0.000020   0.000000   0.000000   0.000185   0.000001  -0.052922
    35  H   -0.000059  -0.000010  -0.000006   0.008744   0.000302  -0.035720
    36  H    0.000143  -0.000001   0.000000  -0.000914   0.000003  -0.046461
    37  C   -0.008530   0.008399  -0.013665  -0.012213   0.002231  -0.002020
    38  C    0.000166  -0.000348   0.000148   0.001121  -0.000012   0.000697
    39  C    0.000660   0.000005  -0.000008  -0.000007   0.000001   0.000007
    40  H   -0.000492  -0.000249   0.002857  -0.000079  -0.000071   0.000020
    41  H    0.001912  -0.000112  -0.000267   0.003896  -0.000701   0.000880
    42  H   -0.005427   0.000007  -0.000003   0.000033   0.000000   0.000394
    43  H    0.000047  -0.000001   0.000001   0.000000   0.000000   0.000000
    44  H   -0.000074   0.000003  -0.000012   0.000001   0.000000   0.000000
              13         14         15         16         17         18
     1  C   -0.045130  -0.026431   0.013129  -0.001503   0.000216   0.000246
     2  C    0.006686   0.142123  -0.077185   0.005632  -0.000812   0.000444
     3  C    0.000511  -0.025526   0.157256  -0.075584   0.015574  -0.004694
     4  C   -0.000501   0.008294  -0.021742   0.014343  -0.009974   0.012490
     5  C    0.000468  -0.007676  -0.003219  -0.002351   0.000554   0.000662
     6  H   -0.012794   0.006574  -0.000069  -0.000052   0.000000   0.000001
     7  H   -0.000312  -0.026962   0.003318  -0.000247  -0.000004   0.000086
     8  H    0.000031  -0.004466  -0.002856  -0.005370   0.000913  -0.003990
     9  H   -0.000014   0.000660  -0.001617   0.001815  -0.000755  -0.003058
    10  O   -0.002638  -0.007312  -0.000297  -0.000256  -0.000003  -0.000002
    11  O   -0.000074  -0.000100  -0.000197  -0.000686   0.000043   0.000015
    12  C    0.252147   0.009986  -0.000389   0.000080  -0.000001  -0.000003
    13  C    5.053346  -0.000458   0.000014  -0.000001   0.000000   0.000000
    14  C   -0.000458   5.189579  -0.010473   0.003677  -0.000176  -0.002569
    15  O    0.000014  -0.010473   8.064404   0.387724  -0.027267  -0.022398
    16  Si  -0.000001   0.003677   0.387724  12.434149   0.333226   0.347425
    17  C    0.000000  -0.000176  -0.027267   0.333226   5.188503  -0.043342
    18  C    0.000000  -0.002569  -0.022398   0.347425  -0.043342   5.168533
    19  C    0.000000  -0.000003  -0.020484   0.386660  -0.048186  -0.048438
    20  H    0.000000   0.000043   0.001260  -0.027191   0.001466   0.384105
    21  H    0.000000   0.000102   0.001464  -0.036008   0.001253   0.393577
    22  H    0.000000  -0.000417  -0.001250  -0.040188   0.003060   0.394096
    23  H    0.000000   0.000011   0.000501  -0.032306   0.000582   0.003109
    24  H    0.000000  -0.000014   0.001291  -0.042997   0.002941   0.003534
    25  H    0.000000  -0.000193   0.000649  -0.033346   0.003172   0.000759
    26  H    0.000000   0.000002   0.001171  -0.022466   0.383632   0.000364
    27  H    0.000000  -0.000001   0.000568  -0.041831   0.396587   0.003547
    28  H    0.000000   0.000021   0.000554  -0.033480   0.388966   0.000366
    29  H    0.000047   0.424741   0.004793  -0.002223   0.000260  -0.000291
    30  H   -0.000231   0.417021  -0.000005  -0.000604   0.000011   0.000263
    31  H    0.000389   0.426892   0.000541  -0.000001   0.000002  -0.000002
    32  H   -0.034389   0.005938  -0.000004   0.000000   0.000000   0.000000
    33  H   -0.030443  -0.007657  -0.000011  -0.000003   0.000000   0.000000
    34  H    0.422806   0.000030   0.000000   0.000000   0.000000   0.000000
    35  H    0.421419  -0.000108   0.000000   0.000000   0.000000   0.000000
    36  H    0.411642   0.000017   0.000000   0.000000   0.000000   0.000000
    37  C   -0.000109   0.010584  -0.066647  -0.002195   0.004118  -0.000209
    38  C    0.000059   0.000386   0.011535   0.000158  -0.002328   0.000239
    39  C   -0.000003   0.000003  -0.000340   0.003968  -0.001220   0.000041
    40  H   -0.000007  -0.000087  -0.005079  -0.003689  -0.003372  -0.000047
    41  H    0.000253  -0.001012   0.005317   0.001237  -0.000415   0.000036
    42  H   -0.000019   0.000941   0.000085  -0.000186  -0.000059   0.000000
    43  H    0.000000  -0.000003  -0.000015   0.000013   0.000047   0.000000
    44  H    0.000000   0.000010  -0.000096  -0.000237  -0.001198   0.000004
              19         20         21         22         23         24
     1  C   -0.000051  -0.000002  -0.000010  -0.000013   0.000006   0.000001
     2  C   -0.000040  -0.000043   0.000150  -0.000040   0.000015   0.000009
     3  C    0.000741   0.000038  -0.003358   0.003467   0.000833  -0.000009
     4  C   -0.001688  -0.000288   0.002358  -0.003018   0.000124   0.000023
     5  C   -0.000075  -0.000015   0.000540  -0.000025  -0.000001   0.000000
     6  H    0.000002   0.000000   0.000000   0.000000   0.000000   0.000000
     7  H   -0.000097  -0.000002   0.000005  -0.000015   0.000022   0.000004
     8  H    0.000095   0.000428  -0.002742   0.000266  -0.000014  -0.000004
     9  H    0.000047   0.000041  -0.000424   0.000163  -0.000003  -0.000003
    10  O   -0.000001   0.000000  -0.000002   0.000001   0.000000   0.000000
    11  O   -0.000001  -0.000001  -0.000003   0.000003   0.000000   0.000000
    12  C   -0.000001   0.000000   0.000000   0.000001   0.000000   0.000000
    13  C    0.000000   0.000000   0.000000   0.000000   0.000000   0.000000
    14  C   -0.000003   0.000043   0.000102  -0.000417   0.000011  -0.000014
    15  O   -0.020484   0.001260   0.001464  -0.001250   0.000501   0.001291
    16  Si   0.386660  -0.027191  -0.036008  -0.040188  -0.032306  -0.042997
    17  C   -0.048186   0.001466   0.001253   0.003060   0.000582   0.002941
    18  C   -0.048438   0.384105   0.393577   0.394096   0.003109   0.003534
    19  C    5.107458   0.001647   0.002683   0.001921   0.390438   0.391321
    20  H    0.001647   0.504891  -0.017085  -0.015311  -0.000135  -0.000109
    21  H    0.002683  -0.017085   0.510208  -0.019629  -0.000096  -0.000154
    22  H    0.001921  -0.015311  -0.019629   0.509424  -0.000171   0.000232
    23  H    0.390438  -0.000135  -0.000096  -0.000171   0.514637  -0.019335
    24  H    0.391321  -0.000109  -0.000154   0.000232  -0.019335   0.529177
    25  H    0.391287   0.000276  -0.000143   0.000803  -0.017899  -0.019347
    26  H    0.000629   0.000186   0.000224  -0.000116   0.000262   0.000116
    27  H    0.000827  -0.000184  -0.000164  -0.000087   0.000643   0.000299
    28  H    0.003468   0.000171   0.000800  -0.000194  -0.000119  -0.000165
    29  H   -0.000086   0.000014  -0.000047   0.000885   0.000002   0.000014
    30  H   -0.000013  -0.000008   0.000043   0.000021   0.000000   0.000000
    31  H    0.000007   0.000001  -0.000001   0.000011   0.000000   0.000000
    32  H    0.000000   0.000000   0.000000   0.000000   0.000000   0.000000
    33  H    0.000000   0.000000   0.000000   0.000000   0.000000   0.000000
    34  H    0.000000   0.000000   0.000000   0.000000   0.000000   0.000000
    35  H    0.000000   0.000000   0.000000   0.000000   0.000000   0.000000
    36  H    0.000000   0.000000   0.000000   0.000000   0.000000   0.000000
    37  C    0.000625   0.000026   0.000305  -0.000052  -0.000499  -0.000029
    38  C   -0.000994  -0.000005  -0.000004   0.000006   0.000310   0.000039
    39  C   -0.001012   0.000000  -0.000001   0.000000   0.000614   0.000009
    40  H    0.000362  -0.000004  -0.000082   0.000005   0.000015  -0.000004
    41  H   -0.000016  -0.000001   0.000009  -0.000001   0.000005   0.000000
    42  H    0.000025   0.000000   0.000000   0.000000  -0.000010   0.000000
    43  H   -0.000001   0.000000   0.000000   0.000000   0.000009   0.000000
    44  H    0.000020   0.000000   0.000000   0.000000  -0.000080  -0.000002
              25         26         27         28         29         30
     1  C    0.000011  -0.000003   0.000015  -0.000039   0.009263   0.009214
     2  C    0.000127   0.000029  -0.000256   0.000145  -0.063397  -0.040839
     3  C   -0.000069  -0.000702  -0.003639   0.005339   0.019027  -0.030776
     4  C    0.000102   0.000259   0.001089  -0.003087  -0.010221   0.024677
     5  C    0.000000  -0.000009  -0.000020  -0.000145   0.000298  -0.005582
     6  H    0.000000   0.000000  -0.000001  -0.000003  -0.000116   0.000355
     7  H   -0.000019   0.000000   0.000010  -0.000005  -0.002960   0.006074
     8  H   -0.000002  -0.000028  -0.000033  -0.000099   0.001169  -0.007354
     9  H   -0.000010   0.000017  -0.000214   0.002126  -0.000255   0.000445
    10  O    0.000000   0.000000   0.000000  -0.000005  -0.000264   0.004948
    11  O    0.000000   0.000000   0.000000  -0.000071  -0.000007  -0.000051
    12  C    0.000000   0.000000   0.000000   0.000000  -0.000439  -0.011208
    13  C    0.000000   0.000000   0.000000   0.000000   0.000047  -0.000231
    14  C   -0.000193   0.000002  -0.000001   0.000021   0.424741   0.417021
    15  O    0.000649   0.001171   0.000568   0.000554   0.004793  -0.000005
    16  Si  -0.033346  -0.022466  -0.041831  -0.033480  -0.002223  -0.000604
    17  C    0.003172   0.383632   0.396587   0.388966   0.000260   0.000011
    18  C    0.000759   0.000364   0.003547   0.000366  -0.000291   0.000263
    19  C    0.391287   0.000629   0.000827   0.003468  -0.000086  -0.000013
    20  H    0.000276   0.000186  -0.000184   0.000171   0.000014  -0.000008
    21  H   -0.000143   0.000224  -0.000164   0.000800  -0.000047   0.000043
    22  H    0.000803  -0.000116  -0.000087  -0.000194   0.000885   0.000021
    23  H   -0.017899   0.000262   0.000643  -0.000119   0.000002   0.000000
    24  H   -0.019347   0.000116   0.000299  -0.000165   0.000014   0.000000
    25  H    0.515975  -0.000143  -0.000204  -0.000090   0.000612   0.000001
    26  H   -0.000143   0.492006  -0.014538  -0.014473  -0.000006   0.000000
    27  H   -0.000204  -0.014538   0.516308  -0.021574  -0.000007   0.000000
    28  H   -0.000090  -0.014473  -0.021574   0.510547  -0.000005  -0.000004
    29  H    0.000612  -0.000006  -0.000007  -0.000005   0.487729  -0.022445
    30  H    0.000001   0.000000   0.000000  -0.000004  -0.022445   0.508215
    31  H    0.000002   0.000000   0.000000   0.000000  -0.018383  -0.023962
    32  H    0.000000   0.000000   0.000000   0.000000   0.000397   0.000311
    33  H    0.000000   0.000000   0.000000   0.000000  -0.000150   0.000786
    34  H    0.000000   0.000000   0.000000   0.000000  -0.000002  -0.000007
    35  H    0.000000   0.000000   0.000000   0.000000   0.000000   0.000019
    36  H    0.000000   0.000000   0.000000   0.000000   0.000001   0.000007
    37  C    0.000039   0.000291   0.004767  -0.005757   0.000965   0.000037
    38  C    0.000008  -0.000011  -0.001813   0.000837   0.000130  -0.000070
    39  C    0.000001   0.000084   0.002237  -0.000115  -0.000041  -0.000001
    40  H   -0.000011   0.000568  -0.003869   0.000929  -0.000050   0.000007
    41  H    0.000000   0.000010   0.000227   0.000012  -0.000039  -0.000034
    42  H   -0.000002   0.000002  -0.000035   0.000007  -0.000028  -0.000017
    43  H    0.000000  -0.000001   0.000008  -0.000003   0.000000   0.000000
    44  H   -0.000002   0.000081   0.000005   0.000073   0.000000   0.000000
              31         32         33         34         35         36
     1  C   -0.019085  -0.023436  -0.074347   0.013756  -0.019339   0.001332
     2  C   -0.038958  -0.019689   0.016789  -0.000806   0.000645   0.000435
     3  C    0.009562  -0.001870  -0.001826   0.000057  -0.000330  -0.000132
     4  C   -0.001099   0.000293   0.000730   0.000021   0.000651   0.000053
     5  C    0.000143  -0.000958   0.000094   0.000005   0.000914  -0.000220
     6  H   -0.000132   0.006015   0.000394  -0.000049   0.001115   0.002388
     7  H   -0.006925   0.001300  -0.000622  -0.000020  -0.000059   0.000143
     8  H    0.000338  -0.000054  -0.000025   0.000000  -0.000010  -0.000001
     9  H    0.000020   0.000005  -0.000003   0.000000  -0.000006   0.000000
    10  O    0.000661  -0.000122   0.004801   0.000185   0.008744  -0.000914
    11  O   -0.000007  -0.000068   0.000013   0.000001   0.000302   0.000003
    12  C    0.007714   0.419020   0.435210  -0.052922  -0.035720  -0.046461
    13  C    0.000389  -0.034389  -0.030443   0.422806   0.421419   0.411642
    14  C    0.426892   0.005938  -0.007657   0.000030  -0.000108   0.000017
    15  O    0.000541  -0.000004  -0.000011   0.000000   0.000000   0.000000
    16  Si  -0.000001   0.000000  -0.000003   0.000000   0.000000   0.000000
    17  C    0.000002   0.000000   0.000000   0.000000   0.000000   0.000000
    18  C   -0.000002   0.000000   0.000000   0.000000   0.000000   0.000000
    19  C    0.000007   0.000000   0.000000   0.000000   0.000000   0.000000
    20  H    0.000001   0.000000   0.000000   0.000000   0.000000   0.000000
    21  H   -0.000001   0.000000   0.000000   0.000000   0.000000   0.000000
    22  H    0.000011   0.000000   0.000000   0.000000   0.000000   0.000000
    23  H    0.000000   0.000000   0.000000   0.000000   0.000000   0.000000
    24  H    0.000000   0.000000   0.000000   0.000000   0.000000   0.000000
    25  H    0.000002   0.000000   0.000000   0.000000   0.000000   0.000000
    26  H    0.000000   0.000000   0.000000   0.000000   0.000000   0.000000
    27  H    0.000000   0.000000   0.000000   0.000000   0.000000   0.000000
    28  H    0.000000   0.000000   0.000000   0.000000   0.000000   0.000000
    29  H   -0.018383   0.000397  -0.000150  -0.000002   0.000000   0.000001
    30  H   -0.023962   0.000311   0.000786  -0.000007   0.000019   0.000007
    31  H    0.497545  -0.007621  -0.001114   0.000006  -0.000007  -0.000039
    32  H   -0.007621   0.516061  -0.023634  -0.004162  -0.003105   0.006242
    33  H   -0.001114  -0.023634   0.525502  -0.003777   0.006159  -0.004547
    34  H    0.000006  -0.004162  -0.003777   0.521626  -0.022835  -0.024582
    35  H   -0.000007  -0.003105   0.006159  -0.022835   0.509577  -0.026590
    36  H   -0.000039   0.006242  -0.004547  -0.024582  -0.026590   0.540537
    37  C   -0.000476   0.000175   0.000263   0.000000   0.000007   0.000039
    38  C   -0.000001  -0.000035  -0.000119  -0.000001  -0.000005  -0.000014
    39  C    0.000006   0.000001   0.000001   0.000000   0.000000   0.000001
    40  H    0.000010   0.000002   0.000002   0.000000   0.000000   0.000002
    41  H    0.000000  -0.000048  -0.000072   0.000002  -0.000016   0.000003
    42  H    0.000008   0.000008   0.000127  -0.000001   0.000002   0.000027
    43  H    0.000000   0.000000   0.000000   0.000000   0.000000   0.000000
    44  H    0.000000   0.000000   0.000000   0.000000   0.000000   0.000000
              37         38         39         40         41         42
     1  C    0.055441  -0.011775  -0.000017  -0.002177   0.004603  -0.006277
     2  C   -0.141676   0.025960  -0.000480   0.016108  -0.028088   0.016767
     3  C    0.211296  -0.031698  -0.006162  -0.033751  -0.039179  -0.011342
     4  C   -0.067143   0.001906   0.000142  -0.003872   0.003141  -0.000634
     5  C   -0.003825   0.001863  -0.000025  -0.001970   0.000788   0.000030
     6  H    0.014104  -0.003216   0.000408   0.000781  -0.012117   0.001285
     7  H   -0.008530   0.000166   0.000660  -0.000492   0.001912  -0.005427
     8  H    0.008399  -0.000348   0.000005  -0.000249  -0.000112   0.000007
     9  H   -0.013665   0.000148  -0.000008   0.002857  -0.000267  -0.000003
    10  O   -0.012213   0.001121  -0.000007  -0.000079   0.003896   0.000033
    11  O    0.002231  -0.000012   0.000001  -0.000071  -0.000701   0.000000
    12  C   -0.002020   0.000697   0.000007   0.000020   0.000880   0.000394
    13  C   -0.000109   0.000059  -0.000003  -0.000007   0.000253  -0.000019
    14  C    0.010584   0.000386   0.000003  -0.000087  -0.001012   0.000941
    15  O   -0.066647   0.011535  -0.000340  -0.005079   0.005317   0.000085
    16  Si  -0.002195   0.000158   0.003968  -0.003689   0.001237  -0.000186
    17  C    0.004118  -0.002328  -0.001220  -0.003372  -0.000415  -0.000059
    18  C   -0.000209   0.000239   0.000041  -0.000047   0.000036   0.000000
    19  C    0.000625  -0.000994  -0.001012   0.000362  -0.000016   0.000025
    20  H    0.000026  -0.000005   0.000000  -0.000004  -0.000001   0.000000
    21  H    0.000305  -0.000004  -0.000001  -0.000082   0.000009   0.000000
    22  H   -0.000052   0.000006   0.000000   0.000005  -0.000001   0.000000
    23  H   -0.000499   0.000310   0.000614   0.000015   0.000005  -0.000010
    24  H   -0.000029   0.000039   0.000009  -0.000004   0.000000   0.000000
    25  H    0.000039   0.000008   0.000001  -0.000011   0.000000  -0.000002
    26  H    0.000291  -0.000011   0.000084   0.000568   0.000010   0.000002
    27  H    0.004767  -0.001813   0.002237  -0.003869   0.000227  -0.000035
    28  H   -0.005757   0.000837  -0.000115   0.000929   0.000012   0.000007
    29  H    0.000965   0.000130  -0.000041  -0.000050  -0.000039  -0.000028
    30  H    0.000037  -0.000070  -0.000001   0.000007  -0.000034  -0.000017
    31  H   -0.000476  -0.000001   0.000006   0.000010   0.000000   0.000008
    32  H    0.000175  -0.000035   0.000001   0.000002  -0.000048   0.000008
    33  H    0.000263  -0.000119   0.000001   0.000002  -0.000072   0.000127
    34  H    0.000000  -0.000001   0.000000   0.000000   0.000002  -0.000001
    35  H    0.000007  -0.000005   0.000000   0.000000  -0.000016   0.000002
    36  H    0.000039  -0.000014   0.000001   0.000002   0.000003   0.000027
    37  C    5.409364   0.208186  -0.036015   0.419480   0.437585  -0.042998
    38  C    0.208186   5.149219   0.530580  -0.041441  -0.051794   0.407837
    39  C   -0.036015   0.530580   5.013544   0.000515  -0.002308  -0.018910
    40  H    0.419480  -0.041441   0.000515   0.484564  -0.014714   0.002816
    41  H    0.437585  -0.051794  -0.002308  -0.014714   0.494593  -0.000404
    42  H   -0.042998   0.407837  -0.018910   0.002816  -0.000404   0.501070
    43  H    0.005962  -0.047016   0.421490   0.000237  -0.000287  -0.006196
    44  H    0.007982  -0.075861   0.438217   0.000566   0.000303   0.004227
              43         44
     1  C   -0.000022  -0.000044
     2  C    0.000106   0.000280
     3  C   -0.000224  -0.002624
     4  C    0.000025  -0.000062
     5  C    0.000000   0.000007
     6  H    0.000003  -0.000001
     7  H    0.000047  -0.000074
     8  H   -0.000001   0.000003
     9  H    0.000001  -0.000012
    10  O    0.000000   0.000001
    11  O    0.000000   0.000000
    12  C    0.000000   0.000000
    13  C    0.000000   0.000000
    14  C   -0.000003   0.000010
    15  O   -0.000015  -0.000096
    16  Si   0.000013  -0.000237
    17  C    0.000047  -0.001198
    18  C    0.000000   0.000004
    19  C   -0.000001   0.000020
    20  H    0.000000   0.000000
    21  H    0.000000   0.000000
    22  H    0.000000   0.000000
    23  H    0.000009  -0.000080
    24  H    0.000000  -0.000002
    25  H    0.000000  -0.000002
    26  H   -0.000001   0.000081
    27  H    0.000008   0.000005
    28  H   -0.000003   0.000073
    29  H    0.000000   0.000000
    30  H    0.000000   0.000000
    31  H    0.000000   0.000000
    32  H    0.000000   0.000000
    33  H    0.000000   0.000000
    34  H    0.000000   0.000000
    35  H    0.000000   0.000000
    36  H    0.000000   0.000000
    37  C    0.005962   0.007982
    38  C   -0.047016  -0.075861
    39  C    0.421490   0.438217
    40  H    0.000237   0.000566
    41  H   -0.000287   0.000303
    42  H   -0.006196   0.004227
    43  H    0.500884  -0.022866
    44  H   -0.022866   0.509380
 Mulliken charges:
               1
     1  C   -0.032757
     2  C   -0.140107
     3  C    0.267604
     4  C   -0.501284
     5  C    0.346571
     6  H    0.178102
     7  H    0.193652
     8  H    0.229893
     9  H    0.198673
    10  O   -0.240087
    11  O   -0.368314
    12  C   -0.289174
    13  C   -0.442694
    14  C   -0.525989
    15  O   -0.393934
    16  Si   0.484894
    17  C   -0.586014
    18  C   -0.584899
    19  C   -0.559074
    20  H    0.165791
    21  H    0.166231
    22  H    0.166160
    23  H    0.158531
    24  H    0.153161
    25  H    0.157659
    26  H    0.172565
    27  H    0.161332
    28  H    0.165073
    29  H    0.171117
    30  H    0.170758
    31  H    0.173959
    32  H    0.163428
    33  H    0.157479
    34  H    0.150668
    35  H    0.158575
    36  H    0.140630
    37  C   -0.398214
    38  C   -0.072831
    39  C   -0.345871
    40  H    0.185272
    41  H    0.196814
    42  H    0.156846
    43  H    0.147803
    44  H    0.142002
 Sum of Mulliken charges =   0.00000
 Mulliken charges with hydrogens summed into heavy atoms:
               1
     1  C    0.145345
     2  C    0.053544
     3  C    0.267604
     4  C   -0.072718
     5  C    0.346571
    10  O   -0.240087
    11  O   -0.368314
    12  C    0.031733
    13  C    0.007178
    14  C   -0.010154
    15  O   -0.393934
    16  Si   0.484894
    17  C   -0.087043
    18  C   -0.086717
    19  C   -0.089723
    37  C   -0.016128
    38  C    0.084015
    39  C   -0.056066
 Electronic spatial extent (au):  <R**2>=           5665.8616
 Charge=              0.0000 electrons
 Dipole moment (field-independent basis, Debye):
    X=             -2.2892    Y=              3.1584    Z=              2.9586  Tot=              4.8958
 Quadrupole moment (field-independent basis, Debye-Ang):
   XX=           -118.8526   YY=           -125.5755   ZZ=           -126.1125
   XY=             11.8602   XZ=             12.7715   YZ=             -8.0220
 Traceless Quadrupole moment (field-independent basis, Debye-Ang):
   XX=              4.6610   YY=             -2.0620   ZZ=             -2.5990
   XY=             11.8602   XZ=             12.7715   YZ=             -8.0220
 Octapole moment (field-independent basis, Debye-Ang**2):
  XXX=            -15.4228  YYY=             22.8103  ZZZ=             18.3809  XYY=            -16.2865
  XXY=             18.1430  XXZ=             22.6684  XZZ=             -5.8580  YZZ=             11.9962
  YYZ=             24.1087  XYZ=            -13.5409
 Hexadecapole moment (field-independent basis, Debye-Ang**3):
 XXXX=          -4819.9409 YYYY=          -1728.9189 ZZZZ=          -1169.6429 XXXY=             81.3615
 XXXZ=             84.2851 YYYX=            -10.6441 YYYZ=             -9.0995 ZZZX=             28.3126
 ZZZY=            -20.3632 XXYY=          -1137.0501 XXZZ=          -1044.4245 YYZZ=           -541.1067
 XXYZ=            -44.9267 YYXZ=             56.2994 ZZXY=             42.3181
 N-N= 1.621615314756D+03 E-N=-5.736315689710D+03  KE= 1.059311019574D+03
 1\1\GINC-CPU-E-126\SP\RM062X\def2TZVP\C14H26O3Si1\KE291\26-Jun-2019\0\
 \# m062x/def2tzvp int=ultrafine scrf=(solvent=chloroform)\\IP1_3ginp00
 7\\0,1\C,0,2.443338,0.346571,0.272099\C,0,1.074265,0.321428,0.967763\C
 ,0,-0.041324,0.140935,-0.101173\C,0,0.216452,-1.200027,-0.811066\C,0,1
 .652797,-1.453763,-1.24117\H,0,2.493636,1.219172,-0.389632\H,0,0.93619
 4,1.310283,1.419054\H,0,-0.03729,-2.019589,-0.12993\H,0,-0.411127,-1.3
 21372,-1.697828\O,0,2.651793,-0.816078,-0.593431\O,0,1.936422,-2.26946
 5,-2.09329\C,0,3.649148,0.398612,1.208963\C,0,4.975305,0.625819,0.4769
 29\C,0,0.991125,-0.720416,2.096393\O,0,-1.284402,0.139829,0.587699\Si,
 0,-2.835125,-0.444564,0.299988\C,0,-3.455866,-0.065174,-1.442577\C,0,-
 2.916934,-2.308509,0.591374\C,0,-3.892623,0.450528,1.571055\H,0,-3.959
 709,-2.646289,0.564192\H,0,-2.370574,-2.876137,-0.168918\H,0,-2.508376
 ,-2.577402,1.571438\H,0,-3.854431,1.534227,1.420737\H,0,-4.939803,0.13
 6263,1.498428\H,0,-3.550358,0.241019,2.58982\H,0,-4.484173,-0.430341,-
 1.55037\H,0,-3.465233,1.01054,-1.64517\H,0,-2.856857,-0.551702,-2.2196
 77\H,0,-0.034191,-0.794739,2.461086\H,0,1.314343,-1.713995,1.77028\H,0
 ,1.626814,-0.429879,2.936388\H,0,3.695416,-0.53087,1.785748\H,0,3.4749
 38,1.209992,1.92671\H,0,5.807935,0.657094,1.185941\H,0,5.16953,-0.1763
 99,-0.239768\H,0,4.967402,1.574186,-0.071963\C,0,-0.06155,1.282633,-1.
 161429\C,0,-0.225959,2.67681,-0.621413\C,0,-1.234844,3.49391,-0.927341
 \H,0,-0.879451,1.064976,-1.855314\H,0,0.859766,1.230881,-1.757835\H,0,
 0.555443,3.043886,0.043278\H,0,-1.294503,4.501462,-0.526396\H,0,-2.034
 084,3.188196,-1.598397\\Version=ES64L-G09RevD.01\State=1-A\HF=-1064.33
 96343\RMSD=1.525e-09\Dipole=-0.9006514,1.2425926,1.1640121\Quadrupole=
 3.4653021,-1.5330265,-1.9322757,8.8177342,9.495274,-5.9641939\PG=C01 [
 X(C14H26O3Si1)]\\@


 IT IS IMPOSSIBLE TO MEDITATE ON TIME AND THE MYSTERY 
 OF NATURE WITHOUT AN OVERWHELMING EMOTION AT THE
 LIMITATIONS OF HUMAN INTELLIGENCE.

                                         -- ALFRED NORTH WHITEHEAD
 Job cpu time:       0 days  2 hours 25 minutes 53.9 seconds.
 File lengths (MBytes):  RWF=    408 Int=      0 D2E=      0 Chk=     21 Scr=      1
 Normal termination of Gaussian 09 at Wed Jun 26 13:55:40 2019.
