 Entering Gaussian System, Link 0=/usr/local/Cluster-Apps/gaussian/g09/g09
 Initial command:
 /usr/local/Cluster-Apps/gaussian/g09/l1.exe "/home/ke291/rds/hpc-work/26Jun1304IP1NMR/Gau-202925.inp" -scrdir="/home/ke291/rds/hpc-work/26Jun1304IP1NMR/"
 Entering Link 1 = /usr/local/Cluster-Apps/gaussian/g09/l1.exe PID=    202931.
  
 Copyright (c) 1988,1990,1992,1993,1995,1998,2003,2009,2013,
            Gaussian, Inc.  All Rights Reserved.
  
 This is part of the Gaussian(R) 09 program.  It is based on
 the Gaussian(R) 03 system (copyright 2003, Gaussian, Inc.),
 the Gaussian(R) 98 system (copyright 1998, Gaussian, Inc.),
 the Gaussian(R) 94 system (copyright 1995, Gaussian, Inc.),
 the Gaussian 92(TM) system (copyright 1992, Gaussian, Inc.),
 the Gaussian 90(TM) system (copyright 1990, Gaussian, Inc.),
 the Gaussian 88(TM) system (copyright 1988, Gaussian, Inc.),
 the Gaussian 86(TM) system (copyright 1986, Carnegie Mellon
 University), and the Gaussian 82(TM) system (copyright 1983,
 Carnegie Mellon University). Gaussian is a federally registered
 trademark of Gaussian, Inc.
  
 This software contains proprietary and confidential information,
 including trade secrets, belonging to Gaussian, Inc.
  
 This software is provided under written license and may be
 used, copied, transmitted, or stored only in accord with that
 written license.
  
 The following legend is applicable only to US Government
 contracts under FAR:
  
                    RESTRICTED RIGHTS LEGEND
  
 Use, reproduction and disclosure by the US Government is
 subject to restrictions as set forth in subparagraphs (a)
 and (c) of the Commercial Computer Software - Restricted
 Rights clause in FAR 52.227-19.
  
 Gaussian, Inc.
 340 Quinnipiac St., Bldg. 40, Wallingford CT 06492
  
  
 ---------------------------------------------------------------
 Warning -- This program may not be used in any manner that
 competes with the business of Gaussian, Inc. or will provide
 assistance to any competitor of Gaussian, Inc.  The licensee
 of this program is prohibited from giving any competitor of
 Gaussian, Inc. access to this program.  By using this program,
 the user acknowledges that Gaussian, Inc. is engaged in the
 business of creating and licensing software in the field of
 computational chemistry and represents and warrants to the
 licensee that it is not a competitor of Gaussian, Inc. and that
 it will not use this program in any manner prohibited above.
 ---------------------------------------------------------------
  

 Cite this work as:
 Gaussian 09, Revision D.01,
 M. J. Frisch, G. W. Trucks, H. B. Schlegel, G. E. Scuseria, 
 M. A. Robb, J. R. Cheeseman, G. Scalmani, V. Barone, B. Mennucci, 
 G. A. Petersson, H. Nakatsuji, M. Caricato, X. Li, H. P. Hratchian, 
 A. F. Izmaylov, J. Bloino, G. Zheng, J. L. Sonnenberg, M. Hada, 
 M. Ehara, K. Toyota, R. Fukuda, J. Hasegawa, M. Ishida, T. Nakajima, 
 Y. Honda, O. Kitao, H. Nakai, T. Vreven, J. A. Montgomery, Jr., 
 J. E. Peralta, F. Ogliaro, M. Bearpark, J. J. Heyd, E. Brothers, 
 K. N. Kudin, V. N. Staroverov, T. Keith, R. Kobayashi, J. Normand, 
 K. Raghavachari, A. Rendell, J. C. Burant, S. S. Iyengar, J. Tomasi, 
 M. Cossi, N. Rega, J. M. Millam, M. Klene, J. E. Knox, J. B. Cross, 
 V. Bakken, C. Adamo, J. Jaramillo, R. Gomperts, R. E. Stratmann, 
 O. Yazyev, A. J. Austin, R. Cammi, C. Pomelli, J. W. Ochterski, 
 R. L. Martin, K. Morokuma, V. G. Zakrzewski, G. A. Voth, 
 P. Salvador, J. J. Dannenberg, S. Dapprich, A. D. Daniels, 
 O. Farkas, J. B. Foresman, J. V. Ortiz, J. Cioslowski, 
 and D. J. Fox, Gaussian, Inc., Wallingford CT, 2013.
 
 ******************************************
 Gaussian 09:  ES64L-G09RevD.01 24-Apr-2013
                26-Jun-2019 
 ******************************************
 %nprocshared=4
 Will use up to    4 processors via shared memory.
 %mem=6000MB
 %chk=IP1_1ginp006.chk
 --------------------------------------------------------
 # m062x/def2tzvp int=ultrafine scrf=(solvent=chloroform)
 --------------------------------------------------------
 1/38=1/1;
 2/12=2,17=6,18=5,40=1/2;
 3/5=44,7=101,11=2,16=1,25=1,30=1,70=2201,72=7,74=-55,75=-5/1,2,3;
 4//1;
 5/5=2,38=5,53=7/2;
 6/7=2,8=2,9=2,10=2,28=1/1;
 99/5=1,9=1/99;
 ------------
 IP1_1ginp006
 ------------
 Symbolic Z-matrix:
 Charge =  0 Multiplicity = 1
 C                    -2.35673   0.41571   0.11847 
 C                    -1.18205   0.20374  -0.85312 
 C                     0.12624   0.84095  -0.26868 
 C                     0.02958   0.88746   1.28457 
 C                    -0.83418  -0.18776   1.89612 
 H                    -2.44998   1.48118   0.37086 
 H                    -0.99799  -0.87566  -0.85985 
 H                     1.01897   0.85985   1.73712 
 H                    -0.42266   1.84445   1.57374 
 O                    -2.06488  -0.31451   1.35194 
 O                    -0.51863  -0.89157   2.8344 
 C                    -3.72832  -0.08746  -0.33706 
 C                    -3.80164  -1.58296  -0.66267 
 C                    -1.4922    0.62513  -2.29495 
 O                     1.24937   0.08251  -0.71229 
 Si                    2.01086  -1.36239  -0.29322 
 C                     2.81972  -1.25691   1.40715 
 C                     0.83701  -2.84117  -0.32458 
 C                     3.31995  -1.56087  -1.62941 
 H                     1.41035  -3.75688  -0.1359 
 H                     0.06232  -2.78183   0.44656 
 H                     0.34595  -2.95578  -1.29678 
 H                     3.9091   -2.46957  -1.46216 
 H                     2.86499  -1.63487  -2.62263 
 H                     4.011    -0.71157  -1.63907 
 H                     3.46412  -0.37555   1.49516 
 H                     2.07722  -1.22386   2.21049 
 H                     3.4459   -2.14212   1.5706 
 H                    -1.82033   1.66668  -2.36548 
 H                    -0.60431   0.50565  -2.92169 
 H                    -2.2797   -0.00036  -2.72191 
 H                    -4.03775   0.51044  -1.20114 
 H                    -4.43805   0.14465   0.46517 
 H                    -3.16122  -1.85449  -1.50765 
 H                    -3.49644  -2.18427   0.19768 
 H                    -4.82656  -1.86262  -0.92375 
 C                     0.36763   2.28303  -0.78874 
 C                     1.55192   2.96796  -0.16489 
 C                     1.5057    4.13488   0.47983 
 H                    -0.53525   2.88396  -0.62724 
 H                     0.52756   2.21557  -1.87036 
 H                     2.50585   2.45491  -0.27566 
 H                     2.39828   4.59162   0.89742 
 H                     0.57406   4.68219   0.60714 
 
                          Input orientation:                          
 ---------------------------------------------------------------------
 Center     Atomic      Atomic             Coordinates (Angstroms)
 Number     Number       Type             X           Y           Z
 ---------------------------------------------------------------------
      1          6           0       -2.356733    0.415705    0.118469
      2          6           0       -1.182054    0.203736   -0.853124
      3          6           0        0.126236    0.840953   -0.268684
      4          6           0        0.029576    0.887458    1.284568
      5          6           0       -0.834184   -0.187755    1.896119
      6          1           0       -2.449982    1.481178    0.370862
      7          1           0       -0.997991   -0.875664   -0.859849
      8          1           0        1.018973    0.859848    1.737118
      9          1           0       -0.422659    1.844449    1.573735
     10          8           0       -2.064883   -0.314514    1.351941
     11          8           0       -0.518626   -0.891573    2.834397
     12          6           0       -3.728324   -0.087456   -0.337063
     13          6           0       -3.801644   -1.582960   -0.662666
     14          6           0       -1.492197    0.625125   -2.294953
     15          8           0        1.249373    0.082506   -0.712290
     16         14           0        2.010860   -1.362388   -0.293222
     17          6           0        2.819721   -1.256914    1.407146
     18          6           0        0.837014   -2.841171   -0.324583
     19          6           0        3.319948   -1.560870   -1.629412
     20          1           0        1.410354   -3.756880   -0.135897
     21          1           0        0.062315   -2.781829    0.446562
     22          1           0        0.345950   -2.955775   -1.296782
     23          1           0        3.909102   -2.469567   -1.462157
     24          1           0        2.864988   -1.634871   -2.622627
     25          1           0        4.010998   -0.711572   -1.639074
     26          1           0        3.464121   -0.375552    1.495161
     27          1           0        2.077220   -1.223864    2.210490
     28          1           0        3.445899   -2.142119    1.570595
     29          1           0       -1.820331    1.666681   -2.365477
     30          1           0       -0.604307    0.505647   -2.921694
     31          1           0       -2.279703   -0.000357   -2.721911
     32          1           0       -4.037753    0.510442   -1.201141
     33          1           0       -4.438048    0.144651    0.465167
     34          1           0       -3.161218   -1.854491   -1.507654
     35          1           0       -3.496442   -2.184268    0.197681
     36          1           0       -4.826557   -1.862616   -0.923749
     37          6           0        0.367633    2.283028   -0.788743
     38          6           0        1.551915    2.967962   -0.164887
     39          6           0        1.505695    4.134885    0.479826
     40          1           0       -0.535254    2.883958   -0.627244
     41          1           0        0.527564    2.215570   -1.870355
     42          1           0        2.505853    2.454909   -0.275658
     43          1           0        2.398284    4.591615    0.897417
     44          1           0        0.574057    4.682188    0.607136
 ---------------------------------------------------------------------
                    Distance matrix (angstroms):
                    1          2          3          4          5
     1  C    0.000000
     2  C    1.539089   0.000000
     3  C    2.548697   1.568196   0.000000
     4  C    2.697556   2.550539   1.556951   0.000000
     5  C    2.417097   2.798681   2.582057   1.508694   0.000000
     6  H    1.098922   2.176612   2.730532   2.708426   2.778948
     7  H    2.114455   1.095002   2.135448   2.960239   2.845244
     8  H    3.769971   3.461843   2.195581   1.088334   2.134700
     9  H    2.810650   3.026262   2.168593   1.097254   2.098365
    10  O    1.462822   2.431107   2.960157   2.415789   1.351598
    11  O    3.530422   3.903543   3.612008   2.422281   1.214620
    12  C    1.530341   2.614307   3.965382   4.207369   3.656940
    13  C    2.587006   3.176603   4.632366   4.957109   4.159302
    14  C    2.572136   1.533828   2.602244   3.898408   4.319588
    15  O    3.715533   2.438518   1.425996   2.474529   3.349336
    16  Si   4.733600   3.600130   2.899504   3.387730   3.777202
    17  C    5.590529   4.822502   3.803198   3.521117   3.838387
    18  C    4.582964   3.691538   3.750516   4.140531   3.842530
    19  C    6.259924   4.897395   4.221390   5.031117   5.618863
    20  H    5.627265   4.787638   4.775632   5.049173   4.680352
    21  H    4.022892   3.485862   3.693266   3.763907   3.103892
    22  H    4.546901   3.537533   3.939594   4.640463   4.387399
    23  H    7.076995   5.782503   5.166623   5.819350   6.243672
    24  H    6.243784   4.784367   4.378529   5.446823   6.016401
    25  H    6.701321   5.331350   4.402236   5.191946   6.020611
    26  H    6.033549   5.238030   3.966423   3.665466   4.321049
    27  H    5.169592   4.695385   3.770426   3.083481   3.106223
    28  H    6.505511   5.726727   4.827197   4.575086   4.716420
    29  H    2.832429   2.198822   2.977833   4.165594   4.751065
    30  H    3.510225   2.168853   2.772108   4.270858   4.872881
    31  H    2.871724   2.176890   3.537608   4.708807   4.842607
    32  H    2.139199   2.893130   4.279897   4.781637   4.510361
    33  H    2.127332   3.513243   4.675047   4.602482   3.891780
    34  H    2.906073   2.929471   4.428072   5.049352   4.447333
    35  H    2.839907   3.487570   4.742705   4.801003   3.736091
    36  H    3.518095   4.190131   5.680542   6.001800   5.166803
    37  C    3.425215   2.594057   1.551874   2.522006   3.841564
    38  C    4.676733   3.948316   2.562714   2.957521   4.460915
    39  C    5.374126   4.945168   3.648721   3.656818   5.115285
    40  H    3.156920   2.766399   2.177155   2.821360   3.986495
    41  H    3.938795   2.829316   2.148485   3.459106   4.670830
    42  H    5.287573   4.359117   2.875323   3.320114   4.780809
    43  H    6.376141   5.927621   4.537561   4.413779   5.855650
    44  H    5.199154   5.027208   3.965185   3.892987   5.230771
                    6          7          8          9         10
     6  H    0.000000
     7  H    3.029461   0.000000
     8  H    3.779730   3.718116   0.000000
     9  H    2.385143   3.694909   1.753407   0.000000
    10  O    2.082145   2.518961   3.322297   2.721620   0.000000
    11  O    3.927988   3.725251   2.575987   3.014016   2.218464
    12  C    2.143812   2.889515   5.266540   4.279115   2.381455
    13  C    3.504870   2.898210   5.913089   5.307180   2.946852
    14  C    2.959180   2.134509   4.755909   4.194927   3.809295
    15  O    4.100577   2.447552   2.580105   3.335573   3.924661
    16  Si   5.331603   3.100186   3.169299   4.437493   4.518438
    17  C    6.028333   4.456405   2.798617   4.489903   4.974990
    18  C    5.474549   2.741709   4.240432   5.210127   4.197110
    19  C    6.822554   4.439181   4.742139   5.988610   6.279990
    20  H    6.526580   3.824348   4.997554   6.136584   5.112809
    21  H    4.948797   2.542523   3.980269   4.786248   3.381172
    22  H    5.503165   2.514746   4.921025   5.645598   4.450181
    23  H    7.707548   5.194503   5.447312   6.825799   6.946359
    24  H    6.849792   4.313512   5.351520   6.365826   6.468706
    25  H    7.112823   5.071892   4.777054   6.042574   6.783816
    26  H    6.299850   5.070170   2.750183   4.476789   5.531195
    27  H    5.585431   4.359489   2.384496   4.008665   4.326782
    28  H    7.023464   5.221027   3.863872   5.555041   5.810049
    29  H    2.813969   3.067031   5.054099   4.183596   4.219495
    30  H    3.898603   2.512810   4.946213   4.694067   4.590196
    31  H    3.433538   2.424092   5.612856   5.030357   4.091590
    32  H    2.436091   3.358262   5.858833   4.748517   3.330315
    33  H    2.397416   3.825010   5.648756   4.499065   2.574706
    34  H    3.893760   2.461159   5.947283   5.538666   3.427939
    35  H    3.815831   3.012154   5.659106   5.250926   2.622529
    36  H    4.301754   3.954248   6.975833   6.274876   3.899003
    37  C    3.150651   3.441994   2.971474   2.529469   4.152937
    38  C    4.302643   4.664596   2.888909   2.860774   5.114357
    39  C    4.764600   5.759234   3.541687   3.187677   5.771201
    40  H    2.574916   3.795127   3.478915   2.436712   4.060439
    41  H    3.798443   3.592237   3.885013   3.591993   4.848226
    42  H    5.091801   4.869386   2.967541   3.516973   5.586628
    43  H    5.784268   6.671867   4.066163   3.995253   6.648049
    44  H    4.409887   5.959287   4.010622   3.159196   5.699629
                   11         12         13         14         15
    11  O    0.000000
    12  C    4.583331   0.000000
    13  C    4.846202   1.532294   0.000000
    14  C    5.436768   3.056365   3.587972   0.000000
    15  O    4.080887   4.994712   5.318742   3.211770   0.000000
    16  Si   4.049934   5.879252   5.828408   4.497615   1.686179
    17  C    3.648983   6.876539   6.944991   5.986672   2.958386
    18  C    3.951942   5.331549   4.818147   4.617661   2.977960
    19  C    5.925217   7.315685   7.186944   5.327125   2.798049
    20  H    4.555611   6.317527   5.671714   5.682279   3.885747
    21  H    3.100374   4.716212   4.194979   4.641093   3.310054
    22  H    4.698411   5.074251   4.414664   4.147044   3.223190
    23  H    6.368298   8.079020   7.802619   6.280501   3.761587
    24  H    6.463780   7.147731   6.948966   4.919351   3.034631
    25  H    6.368818   7.872856   7.921494   5.701061   3.019282
    26  H    4.233451   7.427739   7.674985   6.319130   3.160343
    27  H    2.690371   6.440946   6.553245   6.038089   3.306747
    28  H    4.344942   7.702615   7.604406   6.854553   3.871078
    29  H    5.939511   3.291185   4.169572   1.094296   3.829585
    30  H    5.923863   4.097752   4.437167   1.093356   2.914900
    31  H    5.896458   2.791700   3.010220   1.092560   4.061997
    32  H    5.534932   1.095381   2.174404   2.772983   5.326895
    33  H    4.695623   1.095972   2.159087   4.065360   5.808358
    34  H    5.173385   2.194153   1.094477   3.090949   4.882405
    35  H    4.182191   2.176314   1.093122   4.257101   5.337515
    36  H    5.798694   2.168296   1.093992   4.380298   6.383192
    37  C    4.898029   4.753953   5.687234   2.911405   2.371836
    38  C    5.308376   6.102962   7.044095   4.392344   2.952463
    39  C    5.908228   6.774247   7.884598   5.385645   4.231857
    40  H    5.122291   4.371407   5.533888   2.966365   3.322689
    41  H    5.734417   5.076169   5.884674   2.605616   2.532209
    42  H    5.478947   6.732931   7.499245   4.838395   2.719869
    43  H    6.505813   7.807238   8.888101   6.407816   4.923740
    44  H    6.100939   6.492418   7.746692   5.399193   4.832599
                   16         17         18         19         20
    16  Si   0.000000
    17  C    1.885904   0.000000
    18  C    1.888305   3.072439   0.000000
    19  C    1.881093   3.092459   3.083295   0.000000
    20  H    2.473651   3.258393   1.096743   3.271024   0.000000
    21  H    2.521690   3.294143   1.094689   4.051244   1.762723
    22  H    2.513551   4.039418   1.095194   3.301676   1.767025
    23  H    2.489092   3.300027   3.296951   1.095813   3.108035
    24  H    2.495979   4.047712   3.293758   1.094962   3.578087
    25  H    2.497085   3.316021   4.041937   1.094966   4.277475
    26  H    2.506816   1.095352   4.036389   3.344955   4.279216
    27  H    2.508419   1.094423   3.252751   4.050036   3.516591
    28  H    2.478131   1.096541   3.299493   3.254806   3.108538
    29  H    5.305424   6.656589   5.616713   6.114029   6.695026
    30  H    4.151809   5.793914   4.474772   4.619552   5.476190
    31  H    5.114938   6.680731   4.850910   5.914799   5.866469
    32  H    6.396681   7.546632   5.980386   7.655685   7.001903
    33  H    6.665938   7.451639   6.112701   8.214777   7.055992
    34  H    5.335485   6.680179   4.284747   6.488956   5.138100
    35  H    5.589888   6.497438   4.413969   7.084495   5.163432
    36  H    6.884625   8.016577   5.778634   8.182576   6.565669
    37  C    4.029242   4.833824   5.166544   4.919191   6.163924
    38  C    4.356493   4.682755   5.855136   5.077509   6.726394
    39  C    5.574299   5.626552   7.054046   6.338929   7.916322
    40  H    4.962431   5.704509   5.895068   5.968536   6.937402
    41  H    4.182021   5.296616   5.296773   4.702867   6.281546
    42  H    3.849296   4.087539   5.553006   4.315308   6.309198
    43  H    6.084231   5.885807   7.692669   6.714715   8.470013
    44  H    6.277893   6.399684   7.585392   7.177593   8.512894
                   21         22         23         24         25
    21  H    0.000000
    22  H    1.774811   0.000000
    23  H    4.305634   3.599972   0.000000
    24  H    4.311660   3.138185   1.770193   0.000000
    25  H    4.922188   4.311170   1.769810   1.770084   0.000000
    26  H    4.296744   4.916857   3.650841   4.347531   3.199283
    27  H    3.098151   4.277589   4.289045   4.914115   4.338327
    28  H    3.622336   4.300415   3.085347   4.263551   3.559182
    29  H    5.589379   5.215552   7.123969   5.737472   6.339412
    30  H    4.753634   3.940148   5.599376   4.087452   4.942446
    31  H    4.822951   4.202326   6.781245   5.399013   6.422716
    32  H    5.510402   5.589334   8.491236   7.366873   8.152760
    33  H    5.368230   5.966887   8.956764   8.126223   8.749133
    34  H    3.882020   3.682054   7.097169   6.132418   7.263898
    35  H    3.617150   4.194356   7.594639   6.980241   7.867920
    36  H    5.159823   5.299904   8.773255   7.880223   8.940860
    37  C    5.222258   5.263424   5.965119   4.994982   4.792160
    38  C    5.971003   6.150301   6.066792   5.380587   4.664685
    39  C    7.065790   7.401270   7.291533   6.690514   5.852728
    40  H    5.797525   5.943676   7.007825   5.996917   5.883880
    41  H    5.527980   5.206225   5.792403   4.566767   4.555871
    42  H    5.823736   5.914675   5.256173   4.729011   3.761777
    43  H    7.747754   8.123403   7.596740   7.167820   6.095771
    44  H    7.483262   7.874987   8.157947   7.455533   6.778692
                   26         27         28         29         30
    26  H    0.000000
    27  H    1.776182   0.000000
    28  H    1.768271   1.768033   0.000000
    29  H    6.855704   6.669755   7.598210   0.000000
    30  H    6.069368   6.043270   6.602688   1.770901   0.000000
    31  H    7.135544   6.693902   7.469623   1.765526   1.761506
    32  H    8.020794   7.213871   8.409735   2.758537   3.840427
    33  H    7.985974   6.882420   8.282989   4.145065   5.128227
    34  H    7.422889   6.454728   7.294679   3.864258   3.756002
    35  H    7.307828   6.003289   7.076918   4.920258   5.032950
    36  H    8.763437   7.608784   8.644848   4.855091   5.237160
    37  C    4.676805   4.921014   5.884227   2.766435   2.941637
    38  C    4.194208   4.846624   5.719441   4.231781   4.279284
    39  C    5.020994   5.660215   6.659951   5.024961   5.403130
    40  H    5.578890   5.634887   6.778018   2.480855   3.305394
    41  H    5.163717   5.557377   6.272660   2.461511   2.304405
    42  H    3.473555   4.460721   5.042321   4.868728   4.524845
    43  H    5.115277   5.970514   6.847908   6.082633   6.347936
    44  H    5.892520   6.301721   7.466384   4.864443   5.593271
                   31         32         33         34         35
    31  H    0.000000
    32  H    2.379999   0.000000
    33  H    3.851876   1.752319   0.000000
    34  H    2.385226   2.540703   3.085269   0.000000
    35  H    3.843688   3.084021   2.526269   1.768981   0.000000
    36  H    3.631509   2.516061   2.471669   1.764756   1.769257
    37  C    3.994918   4.766504   5.407358   5.485315   5.988392
    38  C    5.480017   6.193353   6.651895   6.875514   7.222385
    39  C    6.456050   6.833158   7.158929   7.848744   8.064284
    40  H    3.968628   4.269711   4.891724   5.488507   5.927567
    41  H    3.676442   4.919088   5.865209   5.504912   6.310941
    42  H    5.908810   6.888850   7.355534   7.225264   7.600892
    43  H    7.487944   7.904587   8.166870   8.845604   9.008330
    44  H    6.415039   6.476274   6.762440   7.820025   7.992799
                   36         37         38         39         40
    36  H    0.000000
    37  C    6.647120   0.000000
    38  C    8.037118   1.503614   0.000000
    39  C    8.833881   2.516710   1.333979   0.000000
    40  H    6.405713   1.096542   2.139417   2.637403   0.000000
    41  H    6.796637   1.095451   2.126972   3.188081   1.766819
    42  H    8.533773   2.205626   1.088803   2.096042   3.091283
    43  H    9.857590   3.506601   2.116856   1.086140   3.721066
    44  H    8.622337   2.783354   2.119150   1.087979   2.447018
                   41         42         43         44
    41  H    0.000000
    42  H    2.552248   0.000000
    43  H    4.099481   2.439916   0.000000
    44  H    3.496331   3.077651   1.849397   0.000000
 Stoichiometry    C14H26O3Si
 Framework group  C1[X(C14H26O3Si)]
 Deg. of freedom   126
 Full point group                 C1      NOp   1
 Largest Abelian subgroup         C1      NOp   1
 Largest concise Abelian subgroup C1      NOp   1
                         Standard orientation:                         
 ---------------------------------------------------------------------
 Center     Atomic      Atomic             Coordinates (Angstroms)
 Number     Number       Type             X           Y           Z
 ---------------------------------------------------------------------
      1          6           0       -2.356733    0.415705    0.118469
      2          6           0       -1.182054    0.203736   -0.853124
      3          6           0        0.126236    0.840953   -0.268684
      4          6           0        0.029576    0.887458    1.284568
      5          6           0       -0.834184   -0.187755    1.896119
      6          1           0       -2.449982    1.481178    0.370862
      7          1           0       -0.997991   -0.875664   -0.859849
      8          1           0        1.018973    0.859848    1.737118
      9          1           0       -0.422659    1.844449    1.573735
     10          8           0       -2.064883   -0.314514    1.351941
     11          8           0       -0.518626   -0.891573    2.834397
     12          6           0       -3.728324   -0.087456   -0.337063
     13          6           0       -3.801644   -1.582960   -0.662666
     14          6           0       -1.492197    0.625125   -2.294953
     15          8           0        1.249373    0.082506   -0.712290
     16         14           0        2.010860   -1.362388   -0.293222
     17          6           0        2.819721   -1.256914    1.407146
     18          6           0        0.837014   -2.841171   -0.324583
     19          6           0        3.319948   -1.560870   -1.629412
     20          1           0        1.410354   -3.756880   -0.135897
     21          1           0        0.062315   -2.781829    0.446562
     22          1           0        0.345950   -2.955775   -1.296782
     23          1           0        3.909102   -2.469567   -1.462157
     24          1           0        2.864988   -1.634871   -2.622627
     25          1           0        4.010998   -0.711572   -1.639074
     26          1           0        3.464121   -0.375552    1.495161
     27          1           0        2.077220   -1.223864    2.210490
     28          1           0        3.445899   -2.142119    1.570595
     29          1           0       -1.820331    1.666681   -2.365477
     30          1           0       -0.604307    0.505647   -2.921694
     31          1           0       -2.279703   -0.000357   -2.721911
     32          1           0       -4.037753    0.510442   -1.201141
     33          1           0       -4.438048    0.144651    0.465167
     34          1           0       -3.161218   -1.854491   -1.507654
     35          1           0       -3.496442   -2.184268    0.197681
     36          1           0       -4.826557   -1.862616   -0.923749
     37          6           0        0.367633    2.283028   -0.788743
     38          6           0        1.551915    2.967962   -0.164887
     39          6           0        1.505695    4.134885    0.479826
     40          1           0       -0.535254    2.883958   -0.627244
     41          1           0        0.527564    2.215570   -1.870355
     42          1           0        2.505853    2.454909   -0.275658
     43          1           0        2.398284    4.591615    0.897417
     44          1           0        0.574057    4.682188    0.607136
 ---------------------------------------------------------------------
 Rotational constants (GHZ):      0.4173842      0.3188007      0.2633440
 Standard basis: def2TZVP (5D, 7F)
 There are   810 symmetry adapted cartesian basis functions of A   symmetry.
 There are   720 symmetry adapted basis functions of A   symmetry.
   720 basis functions,  1144 primitive gaussians,   810 cartesian basis functions
    74 alpha electrons       74 beta electrons
       nuclear repulsion energy      1647.5564938429 Hartrees.
 NAtoms=   44 NActive=   44 NUniq=   44 SFac= 1.00D+00 NAtFMM=   60 NAOKFM=F Big=F
 Integral buffers will be    131072 words long.
 Raffenetti 2 integral format.
 Two-electron integral symmetry is turned on.
 ------------------------------------------------------------------------------
 Polarizable Continuum Model (PCM)
 =================================
 Model                : PCM (using non-symmetric T matrix).
 Atomic radii         : UFF (Universal Force Field).
 Polarization charges : Total charges.
 Charge compensation  : None.
 Solution method      : On-the-fly selection.
 Cavity type          : Scaled VdW (van der Waals Surface) (Alpha=1.100).
 Cavity algorithm     : GePol (No added spheres)
                        Default sphere list used, NSphG=   44.
                        Lebedev-Laikov grids with approx.  5.0 points / Ang**2.
                        Smoothing algorithm: Karplus/York (Gamma=1.0000).
                        Polarization charges: spherical gaussians, with
                                              point-specific exponents (IZeta= 3).
                        Self-potential: point-specific (ISelfS= 7).
                        Self-field    : sphere-specific E.n sum rule (ISelfD= 2).
 Solvent              : Chloroform, Eps=   4.711300 Eps(inf)=   2.090627
 ------------------------------------------------------------------------------
 One-electron integrals computed using PRISM.
   1 Symmetry operations used in ECPInt.
 ECPInt:  NShTT=   46360 NPrTT=  137514 LenC2=   42500 LenP2D=   91326.
 LDataN:  DoStor=T MaxTD1= 6 Len=  172
 NBasis=   720 RedAO= T EigKep=  2.23D-05  NBF=   720
 NBsUse=   720 1.00D-06 EigRej= -1.00D+00 NBFU=   720
 ExpMin= 7.01D-02 ExpMax= 4.48D+04 ExpMxC= 1.53D+03 IAcc=3 IRadAn=         5 AccDes= 0.00D+00
 Harris functional with IExCor= 1009 and IRadAn=       5 diagonalized for initial guess.
 HarFok:  IExCor= 1009 AccDes= 0.00D+00 IRadAn=         5 IDoV= 1 UseB2=F ITyADJ=14
 ICtDFT=  3500011 ScaDFX=  1.000000  1.000000  1.000000  1.000000
 FoFCou: FMM=F IPFlag=           0 FMFlag=      100000 FMFlg1=           0
         NFxFlg=           0 DoJE=T BraDBF=F KetDBF=T FulRan=T
         wScrn=  0.000000 ICntrl=     500 IOpCl=  0 I1Cent=   200000004 NGrid=           0
         NMat0=    1 NMatS0=      1 NMatT0=    0 NMatD0=    1 NMtDS0=    0 NMtDT0=    0
 Petite list used in FoFCou.
 Requested convergence on RMS density matrix=1.00D-08 within 128 cycles.
 Requested convergence on MAX density matrix=1.00D-06.
 Requested convergence on             energy=1.00D-06.
 No special actions if energy rises.
 Inv3:  Mode=1 IEnd=    24282075.
 Iteration    1 A*A^-1 deviation from unit magnitude is 6.22D-15 for   2812.
 Iteration    1 A*A^-1 deviation from orthogonality  is 5.55D-15 for   2845   2456.
 Iteration    1 A^-1*A deviation from unit magnitude is 4.88D-15 for   2812.
 Iteration    1 A^-1*A deviation from orthogonality  is 3.01D-14 for   2531   2489.
 Error on total polarization charges =  0.01456
 SCF Done:  E(RM062X) =  -1064.34128105     A.U. after   14 cycles
            NFock= 14  Conv=0.11D-08     -V/T= 2.0048

 **********************************************************************

            Population analysis using the SCF density.

 **********************************************************************

 Orbital symmetries:
       Occupied  (A) (A) (A) (A) (A) (A) (A) (A) (A) (A) (A) (A)
                 (A) (A) (A) (A) (A) (A) (A) (A) (A) (A) (A) (A)
                 (A) (A) (A) (A) (A) (A) (A) (A) (A) (A) (A) (A)
                 (A) (A) (A) (A) (A) (A) (A) (A) (A) (A) (A) (A)
                 (A) (A) (A) (A) (A) (A) (A) (A) (A) (A) (A) (A)
                 (A) (A) (A) (A) (A) (A) (A) (A) (A) (A) (A) (A)
                 (A) (A)
       Virtual   (A) (A) (A) (A) (A) (A) (A) (A) (A) (A) (A) (A)
                 (A) (A) (A) (A) (A) (A) (A) (A) (A) (A) (A) (A)
                 (A) (A) (A) (A) (A) (A) (A) (A) (A) (A) (A) (A)
                 (A) (A) (A) (A) (A) (A) (A) (A) (A) (A) (A) (A)
                 (A) (A) (A) (A) (A) (A) (A) (A) (A) (A) (A) (A)
                 (A) (A) (A) (A) (A) (A) (A) (A) (A) (A) (A) (A)
                 (A) (A) (A) (A) (A) (A) (A) (A) (A) (A) (A) (A)
                 (A) (A) (A) (A) (A) (A) (A) (A) (A) (A) (A) (A)
                 (A) (A) (A) (A) (A) (A) (A) (A) (A) (A) (A) (A)
                 (A) (A) (A) (A) (A) (A) (A) (A) (A) (A) (A) (A)
                 (A) (A) (A) (A) (A) (A) (A) (A) (A) (A) (A) (A)
                 (A) (A) (A) (A) (A) (A) (A) (A) (A) (A) (A) (A)
                 (A) (A) (A) (A) (A) (A) (A) (A) (A) (A) (A) (A)
                 (A) (A) (A) (A) (A) (A) (A) (A) (A) (A) (A) (A)
                 (A) (A) (A) (A) (A) (A) (A) (A) (A) (A) (A) (A)
                 (A) (A) (A) (A) (A) (A) (A) (A) (A) (A) (A) (A)
                 (A) (A) (A) (A) (A) (A) (A) (A) (A) (A) (A) (A)
                 (A) (A) (A) (A) (A) (A) (A) (A) (A) (A) (A) (A)
                 (A) (A) (A) (A) (A) (A) (A) (A) (A) (A) (A) (A)
                 (A) (A) (A) (A) (A) (A) (A) (A) (A) (A) (A) (A)
                 (A) (A) (A) (A) (A) (A) (A) (A) (A) (A) (A) (A)
                 (A) (A) (A) (A) (A) (A) (A) (A) (A) (A) (A) (A)
                 (A) (A) (A) (A) (A) (A) (A) (A) (A) (A) (A) (A)
                 (A) (A) (A) (A) (A) (A) (A) (A) (A) (A) (A) (A)
                 (A) (A) (A) (A) (A) (A) (A) (A) (A) (A) (A) (A)
                 (A) (A) (A) (A) (A) (A) (A) (A) (A) (A) (A) (A)
                 (A) (A) (A) (A) (A) (A) (A) (A) (A) (A) (A) (A)
                 (A) (A) (A) (A) (A) (A) (A) (A) (A) (A) (A) (A)
                 (A) (A) (A) (A) (A) (A) (A) (A) (A) (A) (A) (A)
                 (A) (A) (A) (A) (A) (A) (A) (A) (A) (A) (A) (A)
                 (A) (A) (A) (A) (A) (A) (A) (A) (A) (A) (A) (A)
                 (A) (A) (A) (A) (A) (A) (A) (A) (A) (A) (A) (A)
                 (A) (A) (A) (A) (A) (A) (A) (A) (A) (A) (A) (A)
                 (A) (A) (A) (A) (A) (A) (A) (A) (A) (A) (A) (A)
                 (A) (A) (A) (A) (A) (A) (A) (A) (A) (A) (A) (A)
                 (A) (A) (A) (A) (A) (A) (A) (A) (A) (A) (A) (A)
                 (A) (A) (A) (A) (A) (A) (A) (A) (A) (A) (A) (A)
                 (A) (A) (A) (A) (A) (A) (A) (A) (A) (A) (A) (A)
                 (A) (A) (A) (A) (A) (A) (A) (A) (A) (A) (A) (A)
                 (A) (A) (A) (A) (A) (A) (A) (A) (A) (A) (A) (A)
                 (A) (A) (A) (A) (A) (A) (A) (A) (A) (A) (A) (A)
                 (A) (A) (A) (A) (A) (A) (A) (A) (A) (A) (A) (A)
                 (A) (A) (A) (A) (A) (A) (A) (A) (A) (A) (A) (A)
                 (A) (A) (A) (A) (A) (A) (A) (A) (A) (A) (A) (A)
                 (A) (A) (A) (A) (A) (A) (A) (A) (A) (A) (A) (A)
                 (A) (A) (A) (A) (A) (A) (A) (A) (A) (A) (A) (A)
                 (A) (A) (A) (A) (A) (A) (A) (A) (A) (A) (A) (A)
                 (A) (A) (A) (A) (A) (A) (A) (A) (A) (A) (A) (A)
                 (A) (A) (A) (A) (A) (A) (A) (A) (A) (A) (A) (A)
                 (A) (A) (A) (A) (A) (A) (A) (A) (A) (A) (A) (A)
                 (A) (A) (A) (A) (A) (A) (A) (A) (A) (A) (A) (A)
                 (A) (A) (A) (A) (A) (A) (A) (A) (A) (A) (A) (A)
                 (A) (A) (A) (A) (A) (A) (A) (A) (A) (A) (A) (A)
                 (A) (A) (A) (A) (A) (A) (A) (A) (A) (A)
 The electronic state is 1-A.
 Alpha  occ. eigenvalues --  -67.01485 -19.67322 -19.62015 -19.61895 -10.68101
 Alpha  occ. eigenvalues --  -10.62468 -10.61133 -10.55714 -10.55633 -10.54653
 Alpha  occ. eigenvalues --  -10.54469 -10.54365 -10.53552 -10.53491 -10.52744
 Alpha  occ. eigenvalues --  -10.50926 -10.50688 -10.50597  -5.54935  -3.86123
 Alpha  occ. eigenvalues --   -3.85977  -3.85963  -1.23143  -1.14477  -1.13209
 Alpha  occ. eigenvalues --   -0.93493  -0.90767  -0.87798  -0.84866  -0.80865
 Alpha  occ. eigenvalues --   -0.79420  -0.79288  -0.76753  -0.76568  -0.73869
 Alpha  occ. eigenvalues --   -0.69164  -0.68703  -0.64607  -0.62202  -0.60814
 Alpha  occ. eigenvalues --   -0.58246  -0.57344  -0.55380  -0.54562  -0.51988
 Alpha  occ. eigenvalues --   -0.51396  -0.50950  -0.50365  -0.49592  -0.48813
 Alpha  occ. eigenvalues --   -0.48197  -0.47863  -0.47310  -0.47120  -0.46470
 Alpha  occ. eigenvalues --   -0.45766  -0.45245  -0.44717  -0.44261  -0.43977
 Alpha  occ. eigenvalues --   -0.43362  -0.43011  -0.42971  -0.41469  -0.41099
 Alpha  occ. eigenvalues --   -0.40995  -0.40015  -0.38640  -0.37009  -0.36453
 Alpha  occ. eigenvalues --   -0.35538  -0.34210  -0.33368  -0.31996
 Alpha virt. eigenvalues --    0.03221   0.03654   0.04924   0.06156   0.06947
 Alpha virt. eigenvalues --    0.07650   0.08970   0.09798   0.10160   0.10607
 Alpha virt. eigenvalues --    0.11270   0.11508   0.11887   0.12286   0.12613
 Alpha virt. eigenvalues --    0.13174   0.13552   0.14044   0.14507   0.14740
 Alpha virt. eigenvalues --    0.15153   0.15840   0.16199   0.16658   0.16779
 Alpha virt. eigenvalues --    0.16862   0.17198   0.17755   0.17955   0.18446
 Alpha virt. eigenvalues --    0.18738   0.19262   0.19681   0.20256   0.20701
 Alpha virt. eigenvalues --    0.21216   0.21704   0.22471   0.22869   0.23136
 Alpha virt. eigenvalues --    0.23269   0.23773   0.24180   0.24649   0.25333
 Alpha virt. eigenvalues --    0.25865   0.26204   0.26785   0.27629   0.28241
 Alpha virt. eigenvalues --    0.29106   0.29545   0.30067   0.30579   0.31273
 Alpha virt. eigenvalues --    0.31744   0.32120   0.32529   0.33195   0.33896
 Alpha virt. eigenvalues --    0.34374   0.35358   0.35961   0.36791   0.36970
 Alpha virt. eigenvalues --    0.37668   0.38014   0.38279   0.38586   0.39514
 Alpha virt. eigenvalues --    0.40043   0.40407   0.40588   0.41333   0.41634
 Alpha virt. eigenvalues --    0.42147   0.42745   0.44053   0.44334   0.44623
 Alpha virt. eigenvalues --    0.45214   0.45304   0.45801   0.46075   0.46273
 Alpha virt. eigenvalues --    0.46511   0.46708   0.46913   0.47725   0.47901
 Alpha virt. eigenvalues --    0.48193   0.48420   0.48734   0.49455   0.49598
 Alpha virt. eigenvalues --    0.50087   0.50295   0.50439   0.50740   0.51506
 Alpha virt. eigenvalues --    0.51796   0.52355   0.52548   0.52680   0.53721
 Alpha virt. eigenvalues --    0.54389   0.54590   0.54999   0.55176   0.55696
 Alpha virt. eigenvalues --    0.56047   0.56692   0.57468   0.58140   0.58381
 Alpha virt. eigenvalues --    0.60013   0.60170   0.60995   0.62117   0.62582
 Alpha virt. eigenvalues --    0.63364   0.63923   0.64134   0.65486   0.66522
 Alpha virt. eigenvalues --    0.66811   0.67680   0.68206   0.68880   0.70280
 Alpha virt. eigenvalues --    0.70987   0.71110   0.72292   0.73263   0.73510
 Alpha virt. eigenvalues --    0.73828   0.74803   0.76082   0.76299   0.77469
 Alpha virt. eigenvalues --    0.77883   0.78236   0.80170   0.80995   0.81820
 Alpha virt. eigenvalues --    0.82980   0.84010   0.85267   0.86177   0.87429
 Alpha virt. eigenvalues --    0.87735   0.88243   0.88556   0.89002   0.90665
 Alpha virt. eigenvalues --    0.91207   0.91457   0.91924   0.93394   0.93669
 Alpha virt. eigenvalues --    0.94587   0.95441   0.96505   0.97358   0.97609
 Alpha virt. eigenvalues --    0.98446   0.98738   0.99616   1.00339   1.01658
 Alpha virt. eigenvalues --    1.02101   1.02807   1.03578   1.03985   1.05106
 Alpha virt. eigenvalues --    1.05685   1.05944   1.07037   1.07572   1.08017
 Alpha virt. eigenvalues --    1.08571   1.09460   1.10433   1.10741   1.11643
 Alpha virt. eigenvalues --    1.11842   1.12488   1.12934   1.13678   1.15820
 Alpha virt. eigenvalues --    1.16959   1.18300   1.18409   1.19415   1.20107
 Alpha virt. eigenvalues --    1.20388   1.21633   1.22548   1.23509   1.24334
 Alpha virt. eigenvalues --    1.24895   1.25986   1.26455   1.27538   1.29206
 Alpha virt. eigenvalues --    1.29758   1.30692   1.32293   1.32436   1.34264
 Alpha virt. eigenvalues --    1.34807   1.35536   1.36727   1.38172   1.38808
 Alpha virt. eigenvalues --    1.39368   1.40200   1.40661   1.42167   1.43111
 Alpha virt. eigenvalues --    1.43855   1.45230   1.45677   1.46567   1.47103
 Alpha virt. eigenvalues --    1.47631   1.49647   1.50356   1.51146   1.53330
 Alpha virt. eigenvalues --    1.53767   1.55625   1.55800   1.56185   1.56565
 Alpha virt. eigenvalues --    1.57259   1.58099   1.58923   1.59124   1.59390
 Alpha virt. eigenvalues --    1.60128   1.60222   1.60685   1.61454   1.61810
 Alpha virt. eigenvalues --    1.62692   1.63376   1.63724   1.63816   1.64651
 Alpha virt. eigenvalues --    1.65150   1.65403   1.66140   1.66374   1.67309
 Alpha virt. eigenvalues --    1.67704   1.67874   1.68467   1.68861   1.69222
 Alpha virt. eigenvalues --    1.70290   1.70559   1.71477   1.71945   1.72887
 Alpha virt. eigenvalues --    1.73609   1.74436   1.74742   1.75247   1.77906
 Alpha virt. eigenvalues --    1.78357   1.80123   1.80998   1.81665   1.82698
 Alpha virt. eigenvalues --    1.84207   1.84349   1.85317   1.85972   1.87562
 Alpha virt. eigenvalues --    1.88201   1.90277   1.91252   1.92636   1.93780
 Alpha virt. eigenvalues --    1.94120   1.95376   1.96049   1.97603   1.98269
 Alpha virt. eigenvalues --    1.98473   2.00005   2.00681   2.02027   2.02779
 Alpha virt. eigenvalues --    2.04048   2.04687   2.05535   2.06440   2.06917
 Alpha virt. eigenvalues --    2.07575   2.07928   2.08263   2.08640   2.09821
 Alpha virt. eigenvalues --    2.10242   2.10958   2.12880   2.13275   2.14232
 Alpha virt. eigenvalues --    2.14723   2.15654   2.16152   2.18143   2.18599
 Alpha virt. eigenvalues --    2.19857   2.20722   2.21164   2.22560   2.23288
 Alpha virt. eigenvalues --    2.23895   2.24817   2.25713   2.27309   2.28252
 Alpha virt. eigenvalues --    2.29292   2.30783   2.31364   2.32050   2.33739
 Alpha virt. eigenvalues --    2.34021   2.34949   2.35070   2.35889   2.37106
 Alpha virt. eigenvalues --    2.37978   2.39846   2.40226   2.40514   2.40734
 Alpha virt. eigenvalues --    2.40818   2.41877   2.42094   2.42525   2.43027
 Alpha virt. eigenvalues --    2.43388   2.44074   2.44863   2.45347   2.46190
 Alpha virt. eigenvalues --    2.47363   2.47825   2.48479   2.49200   2.49665
 Alpha virt. eigenvalues --    2.51136   2.51795   2.52769   2.53850   2.54078
 Alpha virt. eigenvalues --    2.56031   2.56238   2.57982   2.58413   2.58726
 Alpha virt. eigenvalues --    2.59055   2.60291   2.60570   2.61416   2.61783
 Alpha virt. eigenvalues --    2.62432   2.63502   2.64098   2.65031   2.65248
 Alpha virt. eigenvalues --    2.65503   2.66547   2.66842   2.67583   2.68439
 Alpha virt. eigenvalues --    2.68825   2.69389   2.69642   2.70524   2.71255
 Alpha virt. eigenvalues --    2.71355   2.72257   2.72629   2.73073   2.74144
 Alpha virt. eigenvalues --    2.74854   2.75861   2.76858   2.78045   2.79036
 Alpha virt. eigenvalues --    2.79979   2.81195   2.81358   2.83067   2.83800
 Alpha virt. eigenvalues --    2.85560   2.86521   2.87541   2.88217   2.89835
 Alpha virt. eigenvalues --    2.90812   2.91736   2.92982   2.94780   2.95091
 Alpha virt. eigenvalues --    2.96202   2.96868   2.97049   2.98688   2.99446
 Alpha virt. eigenvalues --    2.99934   3.00888   3.02391   3.03776   3.05598
 Alpha virt. eigenvalues --    3.06209   3.07291   3.08541   3.09143   3.11073
 Alpha virt. eigenvalues --    3.11377   3.12386   3.12570   3.13229   3.13435
 Alpha virt. eigenvalues --    3.14074   3.15255   3.15678   3.15769   3.16579
 Alpha virt. eigenvalues --    3.17740   3.17833   3.18799   3.19083   3.19617
 Alpha virt. eigenvalues --    3.21165   3.22033   3.23007   3.24246   3.24514
 Alpha virt. eigenvalues --    3.25401   3.25774   3.26064   3.26562   3.26914
 Alpha virt. eigenvalues --    3.27230   3.27902   3.29102   3.29581   3.30552
 Alpha virt. eigenvalues --    3.30611   3.31398   3.31940   3.32389   3.32876
 Alpha virt. eigenvalues --    3.33666   3.33936   3.34348   3.34462   3.35876
 Alpha virt. eigenvalues --    3.36763   3.37041   3.37484   3.38201   3.39074
 Alpha virt. eigenvalues --    3.39361   3.41168   3.41938   3.42081   3.42510
 Alpha virt. eigenvalues --    3.43376   3.43625   3.44202   3.44889   3.45583
 Alpha virt. eigenvalues --    3.46636   3.47468   3.48678   3.49371   3.50701
 Alpha virt. eigenvalues --    3.51430   3.52915   3.53826   3.54990   3.55266
 Alpha virt. eigenvalues --    3.56168   3.56869   3.57681   3.58138   3.59197
 Alpha virt. eigenvalues --    3.60108   3.60519   3.61633   3.62792   3.63172
 Alpha virt. eigenvalues --    3.64352   3.64697   3.65387   3.65908   3.67111
 Alpha virt. eigenvalues --    3.67702   3.68154   3.69771   3.70157   3.72170
 Alpha virt. eigenvalues --    3.72376   3.73697   3.74766   3.75010   3.76087
 Alpha virt. eigenvalues --    3.79951   3.80850   3.82193   3.83142   3.83939
 Alpha virt. eigenvalues --    3.85577   3.88031   3.89715   3.90882   3.93359
 Alpha virt. eigenvalues --    3.93854   3.94535   3.98102   3.99407   4.00423
 Alpha virt. eigenvalues --    4.02715   4.04700   4.06288   4.07585   4.08640
 Alpha virt. eigenvalues --    4.11577   4.12784   4.14173   4.16303   4.18064
 Alpha virt. eigenvalues --    4.18975   4.21013   4.22504   4.23913   4.25418
 Alpha virt. eigenvalues --    4.26573   4.27524   4.27878   4.29381   4.29572
 Alpha virt. eigenvalues --    4.30770   4.31210   4.33108   4.35222   4.36077
 Alpha virt. eigenvalues --    4.37642   4.38499   4.39411   4.39908   4.40710
 Alpha virt. eigenvalues --    4.42422   4.42676   4.44758   4.46605   4.49867
 Alpha virt. eigenvalues --    4.51781   4.52375   4.53930   4.57488   4.59810
 Alpha virt. eigenvalues --    4.62536   4.65403   4.67227   4.68437   4.71564
 Alpha virt. eigenvalues --    4.72127   4.74547   4.77192   4.82768   4.83655
 Alpha virt. eigenvalues --    4.85439   4.89274   4.91547   4.97842   5.00180
 Alpha virt. eigenvalues --    5.01493   5.05956   5.10891   5.20199   5.22415
 Alpha virt. eigenvalues --    5.23846   5.25089   5.27387   5.30689   5.45566
 Alpha virt. eigenvalues --    5.48463   5.49105   5.51808   5.60781   5.80630
 Alpha virt. eigenvalues --    5.84841   5.85981   5.87946   5.92014   5.98942
 Alpha virt. eigenvalues --    6.13859   6.17658   6.21484   6.36231   6.40118
 Alpha virt. eigenvalues --    6.51704   6.60268   6.63093   6.66909   6.69204
 Alpha virt. eigenvalues --    6.73103   6.78160   6.83002   6.84306   6.88959
 Alpha virt. eigenvalues --    6.90526   6.97906   7.05257   7.07126   7.14958
 Alpha virt. eigenvalues --    7.22403   7.33856   7.41210  12.18585  22.30157
 Alpha virt. eigenvalues --   22.39182  22.43214  22.44111  22.45326  22.55013
 Alpha virt. eigenvalues --   22.61482  22.66491  22.68695  22.75477  22.81356
 Alpha virt. eigenvalues --   22.84051  22.94234  23.45252  44.12471  44.48679
 Alpha virt. eigenvalues --   44.54814
          Condensed to atoms (all electrons):
               1          2          3          4          5          6
     1  C    5.456743  -0.069493   0.056760  -0.060358  -0.044133   0.438965
     2  C   -0.069493   6.057438  -0.004043  -0.015438  -0.013695  -0.069314
     3  C    0.056760  -0.004043   5.851705  -0.106049   0.066346  -0.003683
     4  C   -0.060358  -0.015438  -0.106049   6.112085   0.075696   0.005232
     5  C   -0.044133  -0.013695   0.066346   0.075696   4.547194  -0.011611
     6  H    0.438965  -0.069314  -0.003683   0.005232  -0.011611   0.515965
     7  H   -0.015919   0.411367  -0.072508   0.004835  -0.006482   0.006681
     8  H   -0.000796   0.011563  -0.029196   0.403175  -0.026414  -0.000194
     9  H   -0.003498   0.004229  -0.054517   0.401056  -0.015777  -0.002316
    10  O    0.182992  -0.038277   0.005657  -0.141261   0.377644  -0.030985
    11  O    0.003803  -0.003199   0.011343  -0.139329   0.697869  -0.000067
    12  C    0.190045  -0.026001   0.013891  -0.006151   0.002865  -0.034328
    13  C   -0.046965   0.030477  -0.000490  -0.000800  -0.000974   0.007690
    14  C   -0.025930   0.114054  -0.026027  -0.000503   0.001149   0.006774
    15  O    0.006274  -0.016755   0.150730  -0.036122  -0.001921   0.000201
    16  Si  -0.001073  -0.001198  -0.073100   0.004377   0.007612  -0.000082
    17  C    0.000689  -0.002430  -0.006211   0.024954  -0.006159  -0.000001
    18  C   -0.001312  -0.006355   0.022396  -0.015795   0.008082  -0.000002
    19  C   -0.000178   0.001796  -0.002020  -0.000039  -0.000271  -0.000001
    20  H   -0.000032   0.000508  -0.000726   0.000300  -0.000157   0.000001
    21  H   -0.001895   0.004595  -0.004357  -0.001116   0.008068  -0.000005
    22  H    0.000730  -0.004583   0.000906   0.001247  -0.001096  -0.000008
    23  H    0.000002  -0.000012   0.000004   0.000005   0.000008   0.000000
    24  H    0.000014  -0.000285   0.000506   0.000043   0.000021   0.000000
    25  H    0.000001  -0.000027  -0.000011   0.000057   0.000007   0.000000
    26  H   -0.000004  -0.000180   0.004936  -0.005972   0.000188   0.000000
    27  H    0.000001   0.000927  -0.006616   0.003903  -0.000219  -0.000014
    28  H   -0.000015   0.000092   0.000166  -0.000658   0.000187   0.000000
    29  H   -0.001063  -0.017034  -0.040125   0.000645  -0.000211   0.002391
    30  H    0.013742  -0.074028   0.024507   0.001080   0.000012  -0.000552
    31  H   -0.025517  -0.025569   0.012555  -0.000747   0.000012  -0.000048
    32  H   -0.025101  -0.025824  -0.000742   0.000348  -0.000082  -0.001338
    33  H   -0.059323   0.017042  -0.000608   0.000651  -0.000089  -0.008051
    34  H   -0.028376   0.029790   0.000686   0.000214   0.000106  -0.000621
    35  H    0.011197  -0.011558  -0.000428   0.000723  -0.000663   0.000333
    36  H    0.012391  -0.001382   0.000005   0.000013   0.000024  -0.000157
    37  C   -0.009498  -0.036934   0.113917  -0.006552  -0.001289   0.002054
    38  C   -0.002671   0.017017  -0.038166  -0.019402  -0.001483  -0.000228
    39  C    0.000016   0.000030  -0.004687  -0.002564   0.000406   0.000066
    40  H   -0.001651   0.011832  -0.044002  -0.011521  -0.000218   0.001068
    41  H    0.002908  -0.024092  -0.041189   0.005367   0.000177  -0.000173
    42  H   -0.000003   0.000319   0.008349  -0.004550   0.000122  -0.000006
    43  H   -0.000002   0.000024  -0.000229   0.000018   0.000000  -0.000001
    44  H    0.000003   0.000062  -0.001236  -0.000385  -0.000047   0.000049
               7          8          9         10         11         12
     1  C   -0.015919  -0.000796  -0.003498   0.182992   0.003803   0.190045
     2  C    0.411367   0.011563   0.004229  -0.038277  -0.003199  -0.026001
     3  C   -0.072508  -0.029196  -0.054517   0.005657   0.011343   0.013891
     4  C    0.004835   0.403175   0.401056  -0.141261  -0.139329  -0.006151
     5  C   -0.006482  -0.026414  -0.015777   0.377644   0.697869   0.002865
     6  H    0.006681  -0.000194  -0.002316  -0.030985  -0.000067  -0.034328
     7  H    0.543250  -0.000351  -0.000617  -0.000675  -0.001072  -0.015123
     8  H   -0.000351   0.439951  -0.005018   0.004711   0.003048   0.000158
     9  H   -0.000617  -0.005018   0.445340   0.002896   0.004382   0.000357
    10  O   -0.000675   0.004711   0.002896   7.992765  -0.093355  -0.035868
    11  O   -0.001072   0.003048   0.004382  -0.093355   7.874980  -0.000509
    12  C   -0.015123   0.000158   0.000357  -0.035868  -0.000509   5.222536
    13  C   -0.004906   0.000014  -0.000039  -0.007415  -0.000066   0.234362
    14  C   -0.028280  -0.000107   0.000315   0.007390  -0.000104   0.023418
    15  O   -0.010436  -0.002863   0.003912  -0.000034   0.000187  -0.000432
    16  Si   0.003262  -0.004887   0.001221  -0.002681   0.008519  -0.000347
    17  C    0.000415  -0.010552  -0.000105  -0.000109  -0.012307   0.000004
    18  C   -0.007605   0.001262   0.000014   0.000332  -0.004393   0.000480
    19  C   -0.000065   0.000193   0.000018  -0.000010   0.000046   0.000006
    20  H    0.000379  -0.000036   0.000000   0.000019   0.000032   0.000002
    21  H   -0.003119   0.000029   0.000007  -0.001086   0.001698   0.000190
    22  H    0.002037  -0.000041   0.000000  -0.000056   0.000116   0.000033
    23  H   -0.000007  -0.000004   0.000000   0.000000   0.000001   0.000000
    24  H    0.000103  -0.000011   0.000000  -0.000001   0.000000  -0.000001
    25  H    0.000003  -0.000007   0.000002   0.000000   0.000001   0.000000
    26  H   -0.000004   0.001316  -0.000039  -0.000005   0.000146   0.000000
    27  H   -0.000183  -0.004008   0.000582   0.000379   0.013615   0.000007
    28  H   -0.000029   0.000823   0.000002   0.000002   0.000189   0.000000
    29  H    0.008610   0.000019  -0.000138  -0.000066   0.000000  -0.007188
    30  H   -0.004414  -0.000060  -0.000016  -0.000276   0.000002  -0.000843
    31  H   -0.013540   0.000007   0.000025   0.000131   0.000000   0.014213
    32  H    0.002975  -0.000009  -0.000016   0.003447   0.000012   0.425259
    33  H   -0.000962  -0.000010   0.000006   0.002147   0.000000   0.435965
    34  H   -0.012217  -0.000002   0.000004   0.000530   0.000010  -0.032319
    35  H    0.003760  -0.000010  -0.000012   0.005313   0.000233  -0.049915
    36  H    0.000398   0.000000   0.000000   0.000110   0.000000  -0.044622
    37  C    0.013531  -0.007447  -0.004616  -0.000256  -0.000178  -0.000200
    38  C   -0.000744   0.000328   0.000172  -0.000258  -0.000269   0.000025
    39  C   -0.000019   0.000165   0.001237  -0.000008   0.000003   0.000012
    40  H    0.000255   0.000597  -0.001955  -0.000089   0.000003   0.000502
    41  H   -0.000914  -0.000023   0.000841  -0.000024   0.000009   0.000057
    42  H    0.000016   0.000843   0.000420   0.000003   0.000015   0.000005
    43  H    0.000000   0.000034  -0.000001   0.000000   0.000000   0.000000
    44  H    0.000002   0.000097   0.000152   0.000001   0.000000   0.000004
              13         14         15         16         17         18
     1  C   -0.046965  -0.025930   0.006274  -0.001073   0.000689  -0.001312
     2  C    0.030477   0.114054  -0.016755  -0.001198  -0.002430  -0.006355
     3  C   -0.000490  -0.026027   0.150730  -0.073100  -0.006211   0.022396
     4  C   -0.000800  -0.000503  -0.036122   0.004377   0.024954  -0.015795
     5  C   -0.000974   0.001149  -0.001921   0.007612  -0.006159   0.008082
     6  H    0.007690   0.006774   0.000201  -0.000082  -0.000001  -0.000002
     7  H   -0.004906  -0.028280  -0.010436   0.003262   0.000415  -0.007605
     8  H    0.000014  -0.000107  -0.002863  -0.004887  -0.010552   0.001262
     9  H   -0.000039   0.000315   0.003912   0.001221  -0.000105   0.000014
    10  O   -0.007415   0.007390  -0.000034  -0.002681  -0.000109   0.000332
    11  O   -0.000066  -0.000104   0.000187   0.008519  -0.012307  -0.004393
    12  C    0.234362   0.023418  -0.000432  -0.000347   0.000004   0.000480
    13  C    5.106737  -0.012215  -0.000027   0.000213  -0.000006  -0.000275
    14  C   -0.012215   5.217694  -0.011475  -0.002624  -0.000108   0.000692
    15  O   -0.000027  -0.011475   8.041294   0.386456  -0.026512  -0.026781
    16  Si   0.000213  -0.002624   0.386456  12.429251   0.328191   0.323980
    17  C   -0.000006  -0.000108  -0.026512   0.328191   5.221175  -0.046854
    18  C   -0.000275   0.000692  -0.026781   0.323980  -0.046854   5.218708
    19  C   -0.000004   0.000190  -0.018274   0.399261  -0.052362  -0.042975
    20  H   -0.000001  -0.000006   0.001192  -0.021277   0.000508   0.379525
    21  H   -0.000271   0.000583   0.001324  -0.034618   0.002060   0.390357
    22  H   -0.000272  -0.000623   0.000173  -0.041743   0.003528   0.390190
    23  H    0.000000  -0.000012   0.001218  -0.043616   0.003871   0.003037
    24  H    0.000000  -0.000098   0.000469  -0.032126   0.003295   0.000402
    25  H    0.000000  -0.000025   0.000467  -0.034922   0.000560   0.003100
    26  H    0.000000   0.000002  -0.000682  -0.042674   0.393548   0.003433
    27  H    0.000000  -0.000003   0.002320  -0.031140   0.385655   0.001766
    28  H    0.000000   0.000001   0.001185  -0.023489   0.378325   0.001584
    29  H    0.000982   0.412823   0.000869   0.000164   0.000004  -0.000045
    30  H   -0.000058   0.427405   0.006727  -0.000347   0.000076  -0.000107
    31  H   -0.003348   0.417880  -0.000234  -0.000151  -0.000001   0.000210
    32  H   -0.043033   0.002346  -0.000010   0.000018   0.000000  -0.000025
    33  H   -0.039190  -0.001383   0.000011   0.000016   0.000000  -0.000006
    34  H    0.409029  -0.005921   0.000030  -0.000023   0.000002   0.000216
    35  H    0.414378   0.000979   0.000006   0.000059   0.000001  -0.000310
    36  H    0.416255   0.000695  -0.000001  -0.000005   0.000000  -0.000003
    37  C    0.000038  -0.004745  -0.088897   0.008034   0.001090  -0.001130
    38  C    0.000006  -0.001147   0.009635   0.000742  -0.001542   0.000213
    39  C    0.000000  -0.000363   0.002694  -0.000081   0.000069   0.000014
    40  H    0.000003  -0.009133   0.004468  -0.000288   0.000020   0.000030
    41  H   -0.000011   0.002778  -0.000890  -0.000837   0.000030   0.000096
    42  H    0.000000  -0.000090   0.004755  -0.001351  -0.000134   0.000157
    43  H    0.000000   0.000002   0.000004   0.000003   0.000000   0.000000
    44  H    0.000000   0.000000  -0.000019   0.000001  -0.000003   0.000000
              19         20         21         22         23         24
     1  C   -0.000178  -0.000032  -0.001895   0.000730   0.000002   0.000014
     2  C    0.001796   0.000508   0.004595  -0.004583  -0.000012  -0.000285
     3  C   -0.002020  -0.000726  -0.004357   0.000906   0.000004   0.000506
     4  C   -0.000039   0.000300  -0.001116   0.001247   0.000005   0.000043
     5  C   -0.000271  -0.000157   0.008068  -0.001096   0.000008   0.000021
     6  H   -0.000001   0.000001  -0.000005  -0.000008   0.000000   0.000000
     7  H   -0.000065   0.000379  -0.003119   0.002037  -0.000007   0.000103
     8  H    0.000193  -0.000036   0.000029  -0.000041  -0.000004  -0.000011
     9  H    0.000018   0.000000   0.000007   0.000000   0.000000   0.000000
    10  O   -0.000010   0.000019  -0.001086  -0.000056   0.000000  -0.000001
    11  O    0.000046   0.000032   0.001698   0.000116   0.000001   0.000000
    12  C    0.000006   0.000002   0.000190   0.000033   0.000000  -0.000001
    13  C   -0.000004  -0.000001  -0.000271  -0.000272   0.000000   0.000000
    14  C    0.000190  -0.000006   0.000583  -0.000623  -0.000012  -0.000098
    15  O   -0.018274   0.001192   0.001324   0.000173   0.001218   0.000469
    16  Si   0.399261  -0.021277  -0.034618  -0.041743  -0.043616  -0.032126
    17  C   -0.052362   0.000508   0.002060   0.003528   0.003871   0.003295
    18  C   -0.042975   0.379525   0.390357   0.390190   0.003037   0.000402
    19  C    5.113246   0.000581   0.002974   0.001273   0.392478   0.389481
    20  H    0.000581   0.495761  -0.013359  -0.015222   0.000267   0.000243
    21  H    0.002974  -0.013359   0.487687  -0.018589  -0.000191  -0.000132
    22  H    0.001273  -0.015222  -0.018589   0.514836   0.000253   0.001064
    23  H    0.392478   0.000267  -0.000191   0.000253   0.527534  -0.019373
    24  H    0.389481   0.000243  -0.000132   0.001064  -0.019373   0.518698
    25  H    0.392595  -0.000140  -0.000089  -0.000186  -0.018938  -0.018104
    26  H    0.002221  -0.000142  -0.000206  -0.000100   0.000198  -0.000184
    27  H    0.002763   0.000282   0.000200  -0.000178  -0.000136  -0.000093
    28  H    0.001412   0.000264   0.000196  -0.000186   0.000169  -0.000132
    29  H   -0.000005   0.000000  -0.000005   0.000005   0.000000   0.000003
    30  H   -0.000124  -0.000003  -0.000028   0.000258   0.000006   0.000224
    31  H    0.000003   0.000001  -0.000002   0.000010   0.000000  -0.000002
    32  H    0.000000   0.000000   0.000002  -0.000002   0.000000   0.000000
    33  H    0.000000   0.000000   0.000001   0.000002   0.000000   0.000000
    34  H    0.000000   0.000007  -0.000053   0.000261   0.000000  -0.000001
    35  H    0.000000  -0.000005   0.000248   0.000038   0.000000   0.000000
    36  H    0.000000   0.000000   0.000010  -0.000005   0.000000   0.000000
    37  C   -0.000685   0.000017  -0.000186   0.000019   0.000000   0.000158
    38  C   -0.000119  -0.000002  -0.000004   0.000001   0.000003   0.000001
    39  C   -0.000011   0.000000   0.000000   0.000000   0.000001   0.000000
    40  H    0.000000   0.000000  -0.000003  -0.000001   0.000000  -0.000001
    41  H   -0.000058  -0.000001  -0.000004   0.000000   0.000003  -0.000005
    42  H    0.000001  -0.000003  -0.000007  -0.000004   0.000010  -0.000010
    43  H    0.000000   0.000000   0.000000   0.000000   0.000000   0.000000
    44  H    0.000000   0.000000   0.000000   0.000000   0.000000   0.000000
              25         26         27         28         29         30
     1  C    0.000001  -0.000004   0.000001  -0.000015  -0.001063   0.013742
     2  C   -0.000027  -0.000180   0.000927   0.000092  -0.017034  -0.074028
     3  C   -0.000011   0.004936  -0.006616   0.000166  -0.040125   0.024507
     4  C    0.000057  -0.005972   0.003903  -0.000658   0.000645   0.001080
     5  C    0.000007   0.000188  -0.000219   0.000187  -0.000211   0.000012
     6  H    0.000000   0.000000  -0.000014   0.000000   0.002391  -0.000552
     7  H    0.000003  -0.000004  -0.000183  -0.000029   0.008610  -0.004414
     8  H   -0.000007   0.001316  -0.004008   0.000823   0.000019  -0.000060
     9  H    0.000002  -0.000039   0.000582   0.000002  -0.000138  -0.000016
    10  O    0.000000  -0.000005   0.000379   0.000002  -0.000066  -0.000276
    11  O    0.000001   0.000146   0.013615   0.000189   0.000000   0.000002
    12  C    0.000000   0.000000   0.000007   0.000000  -0.007188  -0.000843
    13  C    0.000000   0.000000   0.000000   0.000000   0.000982  -0.000058
    14  C   -0.000025   0.000002  -0.000003   0.000001   0.412823   0.427405
    15  O    0.000467  -0.000682   0.002320   0.001185   0.000869   0.006727
    16  Si  -0.034922  -0.042674  -0.031140  -0.023489   0.000164  -0.000347
    17  C    0.000560   0.393548   0.385655   0.378325   0.000004   0.000076
    18  C    0.003100   0.003433   0.001766   0.001584  -0.000045  -0.000107
    19  C    0.392595   0.002221   0.002763   0.001412  -0.000005  -0.000124
    20  H   -0.000140  -0.000142   0.000282   0.000264   0.000000  -0.000003
    21  H   -0.000089  -0.000206   0.000200   0.000196  -0.000005  -0.000028
    22  H   -0.000186  -0.000100  -0.000178  -0.000186   0.000005   0.000258
    23  H   -0.018938   0.000198  -0.000136   0.000169   0.000000   0.000006
    24  H   -0.018104  -0.000184  -0.000093  -0.000132   0.000003   0.000224
    25  H    0.517432   0.000876  -0.000109   0.000297   0.000000   0.000006
    26  H    0.000876   0.510964  -0.019211  -0.014760   0.000000  -0.000002
    27  H   -0.000109  -0.019211   0.490859  -0.014234   0.000000  -0.000001
    28  H    0.000297  -0.014760  -0.014234   0.503561   0.000000  -0.000001
    29  H    0.000000   0.000000   0.000000   0.000000   0.499246  -0.022422
    30  H    0.000006  -0.000002  -0.000001  -0.000001  -0.022422   0.485670
    31  H    0.000000   0.000000   0.000000   0.000000  -0.023656  -0.018689
    32  H    0.000000   0.000000   0.000000   0.000000  -0.000425   0.000532
    33  H    0.000000   0.000000   0.000000   0.000000  -0.000081   0.000029
    34  H    0.000000   0.000000   0.000000   0.000000   0.000016   0.000065
    35  H    0.000000   0.000000  -0.000002   0.000000  -0.000026   0.000014
    36  H    0.000000   0.000000   0.000000   0.000000  -0.000021  -0.000007
    37  C    0.000094  -0.000096  -0.000116  -0.000038   0.013855  -0.016746
    38  C   -0.000140  -0.000008   0.000051   0.000008   0.000145  -0.000243
    39  C    0.000008   0.000040   0.000005  -0.000001   0.000010   0.000014
    40  H    0.000003   0.000005  -0.000004   0.000000  -0.000131   0.001032
    41  H   -0.000023   0.000002   0.000003  -0.000001  -0.007180  -0.000459
    42  H    0.000589   0.000794  -0.000009   0.000008   0.000008   0.000028
    43  H   -0.000001  -0.000002  -0.000001   0.000000   0.000000   0.000000
    44  H    0.000000   0.000002   0.000000   0.000000   0.000008  -0.000002
              31         32         33         34         35         36
     1  C   -0.025517  -0.025101  -0.059323  -0.028376   0.011197   0.012391
     2  C   -0.025569  -0.025824   0.017042   0.029790  -0.011558  -0.001382
     3  C    0.012555  -0.000742  -0.000608   0.000686  -0.000428   0.000005
     4  C   -0.000747   0.000348   0.000651   0.000214   0.000723   0.000013
     5  C    0.000012  -0.000082  -0.000089   0.000106  -0.000663   0.000024
     6  H   -0.000048  -0.001338  -0.008051  -0.000621   0.000333  -0.000157
     7  H   -0.013540   0.002975  -0.000962  -0.012217   0.003760   0.000398
     8  H    0.000007  -0.000009  -0.000010  -0.000002  -0.000010   0.000000
     9  H    0.000025  -0.000016   0.000006   0.000004  -0.000012   0.000000
    10  O    0.000131   0.003447   0.002147   0.000530   0.005313   0.000110
    11  O    0.000000   0.000012   0.000000   0.000010   0.000233   0.000000
    12  C    0.014213   0.425259   0.435965  -0.032319  -0.049915  -0.044622
    13  C   -0.003348  -0.043033  -0.039190   0.409029   0.414378   0.416255
    14  C    0.417880   0.002346  -0.001383  -0.005921   0.000979   0.000695
    15  O   -0.000234  -0.000010   0.000011   0.000030   0.000006  -0.000001
    16  Si  -0.000151   0.000018   0.000016  -0.000023   0.000059  -0.000005
    17  C   -0.000001   0.000000   0.000000   0.000002   0.000001   0.000000
    18  C    0.000210  -0.000025  -0.000006   0.000216  -0.000310  -0.000003
    19  C    0.000003   0.000000   0.000000   0.000000   0.000000   0.000000
    20  H    0.000001   0.000000   0.000000   0.000007  -0.000005   0.000000
    21  H   -0.000002   0.000002   0.000001  -0.000053   0.000248   0.000010
    22  H    0.000010  -0.000002   0.000002   0.000261   0.000038  -0.000005
    23  H    0.000000   0.000000   0.000000   0.000000   0.000000   0.000000
    24  H   -0.000002   0.000000   0.000000  -0.000001   0.000000   0.000000
    25  H    0.000000   0.000000   0.000000   0.000000   0.000000   0.000000
    26  H    0.000000   0.000000   0.000000   0.000000   0.000000   0.000000
    27  H    0.000000   0.000000   0.000000   0.000000  -0.000002   0.000000
    28  H    0.000000   0.000000   0.000000   0.000000   0.000000   0.000000
    29  H   -0.023656  -0.000425  -0.000081   0.000016  -0.000026  -0.000021
    30  H   -0.018689   0.000532   0.000029   0.000065   0.000014  -0.000007
    31  H    0.502901  -0.008369   0.000403   0.002014  -0.000033   0.000035
    32  H   -0.008369   0.516064  -0.016992  -0.002265   0.005970  -0.004091
    33  H    0.000403  -0.016992   0.511937   0.005531  -0.002129  -0.004865
    34  H    0.002014  -0.002265   0.005531   0.535695  -0.026853  -0.021504
    35  H   -0.000033   0.005970  -0.002129  -0.026853   0.507723  -0.021638
    36  H    0.000035  -0.004091  -0.004865  -0.021504  -0.021638   0.511581
    37  C   -0.000237  -0.000001  -0.000030  -0.000055   0.000005   0.000001
    38  C    0.000054   0.000003  -0.000001   0.000003   0.000000   0.000000
    39  C    0.000003  -0.000001   0.000000   0.000000   0.000000   0.000000
    40  H   -0.000086   0.000048  -0.000014  -0.000006   0.000001   0.000000
    41  H    0.000715  -0.000007   0.000001  -0.000001   0.000000   0.000000
    42  H    0.000001   0.000000   0.000000   0.000000   0.000000   0.000000
    43  H    0.000000   0.000000   0.000000   0.000000   0.000000   0.000000
    44  H    0.000000   0.000000   0.000000   0.000000   0.000000   0.000000
              37         38         39         40         41         42
     1  C   -0.009498  -0.002671   0.000016  -0.001651   0.002908  -0.000003
     2  C   -0.036934   0.017017   0.000030   0.011832  -0.024092   0.000319
     3  C    0.113917  -0.038166  -0.004687  -0.044002  -0.041189   0.008349
     4  C   -0.006552  -0.019402  -0.002564  -0.011521   0.005367  -0.004550
     5  C   -0.001289  -0.001483   0.000406  -0.000218   0.000177   0.000122
     6  H    0.002054  -0.000228   0.000066   0.001068  -0.000173  -0.000006
     7  H    0.013531  -0.000744  -0.000019   0.000255  -0.000914   0.000016
     8  H   -0.007447   0.000328   0.000165   0.000597  -0.000023   0.000843
     9  H   -0.004616   0.000172   0.001237  -0.001955   0.000841   0.000420
    10  O   -0.000256  -0.000258  -0.000008  -0.000089  -0.000024   0.000003
    11  O   -0.000178  -0.000269   0.000003   0.000003   0.000009   0.000015
    12  C   -0.000200   0.000025   0.000012   0.000502   0.000057   0.000005
    13  C    0.000038   0.000006   0.000000   0.000003  -0.000011   0.000000
    14  C   -0.004745  -0.001147  -0.000363  -0.009133   0.002778  -0.000090
    15  O   -0.088897   0.009635   0.002694   0.004468  -0.000890   0.004755
    16  Si   0.008034   0.000742  -0.000081  -0.000288  -0.000837  -0.001351
    17  C    0.001090  -0.001542   0.000069   0.000020   0.000030  -0.000134
    18  C   -0.001130   0.000213   0.000014   0.000030   0.000096   0.000157
    19  C   -0.000685  -0.000119  -0.000011   0.000000  -0.000058   0.000001
    20  H    0.000017  -0.000002   0.000000   0.000000  -0.000001  -0.000003
    21  H   -0.000186  -0.000004   0.000000  -0.000003  -0.000004  -0.000007
    22  H    0.000019   0.000001   0.000000  -0.000001   0.000000  -0.000004
    23  H    0.000000   0.000003   0.000001   0.000000   0.000003   0.000010
    24  H    0.000158   0.000001   0.000000  -0.000001  -0.000005  -0.000010
    25  H    0.000094  -0.000140   0.000008   0.000003  -0.000023   0.000589
    26  H   -0.000096  -0.000008   0.000040   0.000005   0.000002   0.000794
    27  H   -0.000116   0.000051   0.000005  -0.000004   0.000003  -0.000009
    28  H   -0.000038   0.000008  -0.000001   0.000000  -0.000001   0.000008
    29  H    0.013855   0.000145   0.000010  -0.000131  -0.007180   0.000008
    30  H   -0.016746  -0.000243   0.000014   0.001032  -0.000459   0.000028
    31  H   -0.000237   0.000054   0.000003  -0.000086   0.000715   0.000001
    32  H   -0.000001   0.000003  -0.000001   0.000048  -0.000007   0.000000
    33  H   -0.000030  -0.000001   0.000000  -0.000014   0.000001   0.000000
    34  H   -0.000055   0.000003   0.000000  -0.000006  -0.000001   0.000000
    35  H    0.000005   0.000000   0.000000   0.000001   0.000000   0.000000
    36  H    0.000001   0.000000   0.000000   0.000000   0.000000   0.000000
    37  C    5.363275   0.246573  -0.050328   0.428809   0.441567  -0.047482
    38  C    0.246573   5.167694   0.539671  -0.042452  -0.035718   0.411537
    39  C   -0.050328   0.539671   5.005653   0.002816  -0.003546  -0.026751
    40  H    0.428809  -0.042452   0.002816   0.489218  -0.015853   0.003585
    41  H    0.441567  -0.035718  -0.003546  -0.015853   0.493671   0.000374
    42  H   -0.047482   0.411537  -0.026751   0.003585   0.000374   0.488972
    43  H    0.006933  -0.053703   0.427622   0.000240  -0.000295  -0.005908
    44  H    0.004701  -0.062933   0.428700  -0.000308   0.000654   0.004122
              43         44
     1  C   -0.000002   0.000003
     2  C    0.000024   0.000062
     3  C   -0.000229  -0.001236
     4  C    0.000018  -0.000385
     5  C    0.000000  -0.000047
     6  H   -0.000001   0.000049
     7  H    0.000000   0.000002
     8  H    0.000034   0.000097
     9  H   -0.000001   0.000152
    10  O    0.000000   0.000001
    11  O    0.000000   0.000000
    12  C    0.000000   0.000004
    13  C    0.000000   0.000000
    14  C    0.000002   0.000000
    15  O    0.000004  -0.000019
    16  Si   0.000003   0.000001
    17  C    0.000000  -0.000003
    18  C    0.000000   0.000000
    19  C    0.000000   0.000000
    20  H    0.000000   0.000000
    21  H    0.000000   0.000000
    22  H    0.000000   0.000000
    23  H    0.000000   0.000000
    24  H    0.000000   0.000000
    25  H   -0.000001   0.000000
    26  H   -0.000002   0.000002
    27  H   -0.000001   0.000000
    28  H    0.000000   0.000000
    29  H    0.000000   0.000008
    30  H    0.000000  -0.000002
    31  H    0.000000   0.000000
    32  H    0.000000   0.000000
    33  H    0.000000   0.000000
    34  H    0.000000   0.000000
    35  H    0.000000   0.000000
    36  H    0.000000   0.000000
    37  C    0.006933   0.004701
    38  C   -0.053703  -0.062933
    39  C    0.427622   0.428700
    40  H    0.000240  -0.000308
    41  H   -0.000295   0.000654
    42  H   -0.005908   0.004122
    43  H    0.501308  -0.023455
    44  H   -0.023455   0.509630
 Mulliken charges:
               1
     1  C    0.047531
     2  C   -0.225457
     3  C    0.215602
     4  C   -0.470710
     5  C    0.339198
     6  H    0.176317
     7  H    0.198314
     8  H    0.223714
     9  H    0.221489
    10  O   -0.233672
    11  O   -0.365413
    12  C   -0.310550
    13  C   -0.459815
    14  C   -0.506245
    15  O   -0.384237
    16  Si   0.493298
    17  C   -0.582676
    18  C   -0.596303
    19  C   -0.583338
    20  H    0.171223
    21  H    0.179098
    22  H    0.165915
    23  H    0.153223
    24  H    0.155831
    25  H    0.156623
    26  H    0.165600
    27  H    0.172959
    28  H    0.165074
    29  H    0.180019
    30  H    0.177999
    31  H    0.169054
    32  H    0.171309
    33  H    0.159992
    34  H    0.146007
    35  H    0.162602
    36  H    0.156781
    37  C   -0.366935
    38  C   -0.132649
    39  C   -0.320894
    40  H    0.183184
    41  H    0.182053
    42  H    0.161276
    43  H    0.147411
    44  H    0.140200
 Sum of Mulliken charges =   0.00000
 Mulliken charges with hydrogens summed into heavy atoms:
               1
     1  C    0.223848
     2  C   -0.027143
     3  C    0.215602
     4  C   -0.025508
     5  C    0.339198
    10  O   -0.233672
    11  O   -0.365413
    12  C    0.020752
    13  C    0.005575
    14  C    0.020826
    15  O   -0.384237
    16  Si   0.493298
    17  C   -0.079044
    18  C   -0.080067
    19  C   -0.117661
    37  C   -0.001699
    38  C    0.028627
    39  C   -0.033283
 Electronic spatial extent (au):  <R**2>=           5141.3919
 Charge=              0.0000 electrons
 Dipole moment (field-independent basis, Debye):
    X=             -1.0785    Y=              2.5493    Z=             -4.0534  Tot=              4.9084
 Quadrupole moment (field-independent basis, Debye-Ang):
   XX=           -112.8624   YY=           -116.9056   ZZ=           -133.4130
   XY=             -6.0051   XZ=              6.8329   YZ=              8.2719
 Traceless Quadrupole moment (field-independent basis, Debye-Ang):
   XX=              8.1979   YY=              4.1547   ZZ=            -12.3527
   XY=             -6.0051   XZ=              6.8329   YZ=              8.2719
 Octapole moment (field-independent basis, Debye-Ang**2):
  XXX=            -24.4791  YYY=              1.1395  ZZZ=            -38.7560  XYY=              1.2779
  XXY=              1.0132  XXZ=             -1.7783  XZZ=             -1.6081  YZZ=             15.9687
  YYZ=              8.1525  XYZ=             -2.7019
 Hexadecapole moment (field-independent basis, Debye-Ang**3):
 XXXX=          -3252.9519 YYYY=          -2358.8483 ZZZZ=          -1445.4138 XXXY=             11.0044
 XXXZ=             27.6965 YYYX=            -48.9192 YYYZ=             45.1078 ZZZX=              8.0066
 ZZZY=             42.6086 XXYY=           -923.4884 XXZZ=           -812.4884 YYZZ=           -639.7659
 XXYZ=             12.0226 YYXZ=             20.3378 ZZXY=             -9.7522
 N-N= 1.647556493843D+03 E-N=-5.788541054860D+03  KE= 1.059306690922D+03
 1\1\GINC-CPU-E-5\SP\RM062X\def2TZVP\C14H26O3Si1\KE291\26-Jun-2019\0\\#
  m062x/def2tzvp int=ultrafine scrf=(solvent=chloroform)\\IP1_1ginp006\
 \0,1\C,0,-2.356733,0.415705,0.118469\C,0,-1.182054,0.203736,-0.853124\
 C,0,0.126236,0.840953,-0.268684\C,0,0.029576,0.887458,1.284568\C,0,-0.
 834184,-0.187755,1.896119\H,0,-2.449982,1.481178,0.370862\H,0,-0.99799
 1,-0.875664,-0.859849\H,0,1.018973,0.859848,1.737118\H,0,-0.422659,1.8
 44449,1.573735\O,0,-2.064883,-0.314514,1.351941\O,0,-0.518626,-0.89157
 3,2.834397\C,0,-3.728324,-0.087456,-0.337063\C,0,-3.801644,-1.58296,-0
 .662666\C,0,-1.492197,0.625125,-2.294953\O,0,1.249373,0.082506,-0.7122
 9\Si,0,2.01086,-1.362388,-0.293222\C,0,2.819721,-1.256914,1.407146\C,0
 ,0.837014,-2.841171,-0.324583\C,0,3.319948,-1.56087,-1.629412\H,0,1.41
 0354,-3.75688,-0.135897\H,0,0.062315,-2.781829,0.446562\H,0,0.34595,-2
 .955775,-1.296782\H,0,3.909102,-2.469567,-1.462157\H,0,2.864988,-1.634
 871,-2.622627\H,0,4.010998,-0.711572,-1.639074\H,0,3.464121,-0.375552,
 1.495161\H,0,2.07722,-1.223864,2.21049\H,0,3.445899,-2.142119,1.570595
 \H,0,-1.820331,1.666681,-2.365477\H,0,-0.604307,0.505647,-2.921694\H,0
 ,-2.279703,-0.000357,-2.721911\H,0,-4.037753,0.510442,-1.201141\H,0,-4
 .438048,0.144651,0.465167\H,0,-3.161218,-1.854491,-1.507654\H,0,-3.496
 442,-2.184268,0.197681\H,0,-4.826557,-1.862616,-0.923749\C,0,0.367633,
 2.283028,-0.788743\C,0,1.551915,2.967962,-0.164887\C,0,1.505695,4.1348
 85,0.479826\H,0,-0.535254,2.883958,-0.627244\H,0,0.527564,2.21557,-1.8
 70355\H,0,2.505853,2.454909,-0.275658\H,0,2.398284,4.591615,0.897417\H
 ,0,0.574057,4.682188,0.607136\\Version=ES64L-G09RevD.01\State=1-A\HF=-
 1064.341281\RMSD=1.120e-09\Dipole=-0.4243116,1.0029757,-1.5947385\Quad
 rupole=6.0949689,3.0889289,-9.1838978,-4.464637,5.0801122,6.1499841\PG
 =C01 [X(C14H26O3Si1)]\\@


 You can't act like a skunk without someone's getting wind of it.
 -- Lorene Workman
 Job cpu time:       0 days  2 hours 22 minutes 12.3 seconds.
 File lengths (MBytes):  RWF=    405 Int=      0 D2E=      0 Chk=     21 Scr=      1
 Normal termination of Gaussian 09 at Wed Jun 26 14:10:09 2019.
