 Entering Gaussian System, Link 0=/usr/local/Cluster-Apps/gaussian/g09/g09
 Initial command:
 /usr/local/Cluster-Apps/gaussian/g09/l1.exe "/home/ke291/rds/hpc-work/26Jun1304IP1NMR/Gau-379114.inp" -scrdir="/home/ke291/rds/hpc-work/26Jun1304IP1NMR/"
 Entering Link 1 = /usr/local/Cluster-Apps/gaussian/g09/l1.exe PID=    379127.
  
 Copyright (c) 1988,1990,1992,1993,1995,1998,2003,2009,2013,
            Gaussian, Inc.  All Rights Reserved.
  
 This is part of the Gaussian(R) 09 program.  It is based on
 the Gaussian(R) 03 system (copyright 2003, Gaussian, Inc.),
 the Gaussian(R) 98 system (copyright 1998, Gaussian, Inc.),
 the Gaussian(R) 94 system (copyright 1995, Gaussian, Inc.),
 the Gaussian 92(TM) system (copyright 1992, Gaussian, Inc.),
 the Gaussian 90(TM) system (copyright 1990, Gaussian, Inc.),
 the Gaussian 88(TM) system (copyright 1988, Gaussian, Inc.),
 the Gaussian 86(TM) system (copyright 1986, Carnegie Mellon
 University), and the Gaussian 82(TM) system (copyright 1983,
 Carnegie Mellon University). Gaussian is a federally registered
 trademark of Gaussian, Inc.
  
 This software contains proprietary and confidential information,
 including trade secrets, belonging to Gaussian, Inc.
  
 This software is provided under written license and may be
 used, copied, transmitted, or stored only in accord with that
 written license.
  
 The following legend is applicable only to US Government
 contracts under FAR:
  
                    RESTRICTED RIGHTS LEGEND
  
 Use, reproduction and disclosure by the US Government is
 subject to restrictions as set forth in subparagraphs (a)
 and (c) of the Commercial Computer Software - Restricted
 Rights clause in FAR 52.227-19.
  
 Gaussian, Inc.
 340 Quinnipiac St., Bldg. 40, Wallingford CT 06492
  
  
 ---------------------------------------------------------------
 Warning -- This program may not be used in any manner that
 competes with the business of Gaussian, Inc. or will provide
 assistance to any competitor of Gaussian, Inc.  The licensee
 of this program is prohibited from giving any competitor of
 Gaussian, Inc. access to this program.  By using this program,
 the user acknowledges that Gaussian, Inc. is engaged in the
 business of creating and licensing software in the field of
 computational chemistry and represents and warrants to the
 licensee that it is not a competitor of Gaussian, Inc. and that
 it will not use this program in any manner prohibited above.
 ---------------------------------------------------------------
  

 Cite this work as:
 Gaussian 09, Revision D.01,
 M. J. Frisch, G. W. Trucks, H. B. Schlegel, G. E. Scuseria, 
 M. A. Robb, J. R. Cheeseman, G. Scalmani, V. Barone, B. Mennucci, 
 G. A. Petersson, H. Nakatsuji, M. Caricato, X. Li, H. P. Hratchian, 
 A. F. Izmaylov, J. Bloino, G. Zheng, J. L. Sonnenberg, M. Hada, 
 M. Ehara, K. Toyota, R. Fukuda, J. Hasegawa, M. Ishida, T. Nakajima, 
 Y. Honda, O. Kitao, H. Nakai, T. Vreven, J. A. Montgomery, Jr., 
 J. E. Peralta, F. Ogliaro, M. Bearpark, J. J. Heyd, E. Brothers, 
 K. N. Kudin, V. N. Staroverov, T. Keith, R. Kobayashi, J. Normand, 
 K. Raghavachari, A. Rendell, J. C. Burant, S. S. Iyengar, J. Tomasi, 
 M. Cossi, N. Rega, J. M. Millam, M. Klene, J. E. Knox, J. B. Cross, 
 V. Bakken, C. Adamo, J. Jaramillo, R. Gomperts, R. E. Stratmann, 
 O. Yazyev, A. J. Austin, R. Cammi, C. Pomelli, J. W. Ochterski, 
 R. L. Martin, K. Morokuma, V. G. Zakrzewski, G. A. Voth, 
 P. Salvador, J. J. Dannenberg, S. Dapprich, A. D. Daniels, 
 O. Farkas, J. B. Foresman, J. V. Ortiz, J. Cioslowski, 
 and D. J. Fox, Gaussian, Inc., Wallingford CT, 2013.
 
 ******************************************
 Gaussian 09:  ES64L-G09RevD.01 24-Apr-2013
                26-Jun-2019 
 ******************************************
 %nprocshared=5
 Will use up to    5 processors via shared memory.
 %mem=6000MB
 %chk=IP1_4ginp005.chk
 --------------------------------------------------------
 # m062x/def2tzvp int=ultrafine scrf=(solvent=chloroform)
 --------------------------------------------------------
 1/38=1/1;
 2/12=2,17=6,18=5,40=1/2;
 3/5=44,7=101,11=2,16=1,25=1,30=1,70=2201,72=7,74=-55,75=-5/1,2,3;
 4//1;
 5/5=2,38=5,53=7/2;
 6/7=2,8=2,9=2,10=2,28=1/1;
 99/5=1,9=1/99;
 ------------
 IP1_4ginp005
 ------------
 Symbolic Z-matrix:
 Charge =  0 Multiplicity = 1
 C                     2.14759  -0.78046  -0.77427 
 C                     1.07705   0.23672  -1.2059 
 C                     0.00761   0.49563  -0.10534 
 C                     0.64174   0.27624   1.30167 
 C                     2.15302   0.35375   1.38014 
 H                     2.93431  -0.77754  -1.53672 
 H                     1.6293    1.17901  -1.30785 
 H                     0.23878   0.96391   2.04722 
 H                     0.37531  -0.7347    1.62489 
 O                     2.85033  -0.25805   0.39982 
 O                     2.75212   0.88385   2.29365 
 C                     1.71369  -2.23399  -0.55938 
 C                     2.87577  -3.15455  -0.17186 
 C                     0.48296  -0.09959  -2.57797 
 O                    -1.04842  -0.44647  -0.28216 
 Si                   -2.63861  -0.58265   0.25694 
 C                    -3.06477  -2.38312  -0.08288 
 C                    -2.81017  -0.21119   2.10097 
 C                    -3.79703   0.53703  -0.72667 
 H                    -3.84729  -0.38448   2.41174 
 H                    -2.17165  -0.86081   2.70868 
 H                    -2.56702   0.82732   2.34863 
 H                    -4.83909   0.31305  -0.46948 
 H                    -3.62865   1.5992   -0.52431 
 H                    -3.68043   0.37694  -1.80386 
 H                    -4.10269  -2.59804   0.19475 
 H                    -2.94693  -2.62216  -1.14495 
 H                    -2.41808  -3.05886   0.48634 
 H                     1.28275  -0.22862  -3.31482 
 H                    -0.11446  -1.01208  -2.54743 
 H                    -0.16247   0.70857  -2.93314 
 H                     1.27082  -2.58044  -1.50003 
 H                     0.91603  -2.29385   0.18611 
 H                     2.53093  -4.18714  -0.06267 
 H                     3.66123  -3.14322  -0.93589 
 H                     3.3282   -2.84633   0.77464 
 C                    -0.54747   1.9437   -0.22412 
 C                     0.46165   3.03998  -0.0108 
 C                     0.7397    3.99868  -0.89632 
 H                    -1.33959   2.04541   0.53024 
 H                    -1.02253   2.05918  -1.20372 
 H                     0.98202   3.04477   0.94703 
 H                     1.46614   4.777    -0.68266 
 H                     0.2454    4.04338  -1.86408 
 
                          Input orientation:                          
 ---------------------------------------------------------------------
 Center     Atomic      Atomic             Coordinates (Angstroms)
 Number     Number       Type             X           Y           Z
 ---------------------------------------------------------------------
      1          6           0        2.147592   -0.780463   -0.774270
      2          6           0        1.077047    0.236720   -1.205897
      3          6           0        0.007613    0.495631   -0.105344
      4          6           0        0.641743    0.276236    1.301666
      5          6           0        2.153020    0.353754    1.380144
      6          1           0        2.934313   -0.777540   -1.536723
      7          1           0        1.629295    1.179005   -1.307854
      8          1           0        0.238779    0.963913    2.047221
      9          1           0        0.375305   -0.734701    1.624890
     10          8           0        2.850325   -0.258052    0.399824
     11          8           0        2.752123    0.883852    2.293654
     12          6           0        1.713689   -2.233986   -0.559382
     13          6           0        2.875767   -3.154548   -0.171861
     14          6           0        0.482960   -0.099590   -2.577967
     15          8           0       -1.048424   -0.446469   -0.282155
     16         14           0       -2.638611   -0.582653    0.256935
     17          6           0       -3.064773   -2.383122   -0.082875
     18          6           0       -2.810167   -0.211187    2.100974
     19          6           0       -3.797027    0.537031   -0.726672
     20          1           0       -3.847289   -0.384478    2.411743
     21          1           0       -2.171645   -0.860814    2.708678
     22          1           0       -2.567015    0.827317    2.348631
     23          1           0       -4.839088    0.313052   -0.469483
     24          1           0       -3.628649    1.599197   -0.524314
     25          1           0       -3.680431    0.376937   -1.803855
     26          1           0       -4.102692   -2.598035    0.194751
     27          1           0       -2.946925   -2.622160   -1.144951
     28          1           0       -2.418076   -3.058864    0.486343
     29          1           0        1.282754   -0.228616   -3.314816
     30          1           0       -0.114463   -1.012083   -2.547432
     31          1           0       -0.162474    0.708569   -2.933143
     32          1           0        1.270818   -2.580436   -1.500025
     33          1           0        0.916026   -2.293849    0.186111
     34          1           0        2.530926   -4.187144   -0.062673
     35          1           0        3.661230   -3.143222   -0.935893
     36          1           0        3.328195   -2.846331    0.774639
     37          6           0       -0.547470    1.943703   -0.224122
     38          6           0        0.461648    3.039979   -0.010797
     39          6           0        0.739700    3.998681   -0.896319
     40          1           0       -1.339591    2.045412    0.530239
     41          1           0       -1.022533    2.059177   -1.203717
     42          1           0        0.982019    3.044772    0.947030
     43          1           0        1.466136    4.776996   -0.682661
     44          1           0        0.245395    4.043382   -1.864080
 ---------------------------------------------------------------------
                    Distance matrix (angstroms):
                    1          2          3          4          5
     1  C    0.000000
     2  C    1.538515   0.000000
     3  C    2.579804   1.556259   0.000000
     4  C    2.773753   2.545373   1.558824   0.000000
     5  C    2.434744   2.803395   2.613346   1.515297   0.000000
     6  H    1.095570   2.141870   3.497911   3.797733   3.224649
     7  H    2.095915   1.096939   2.131404   2.932549   2.860185
     8  H    3.827169   3.437191   2.215008   1.091390   2.116980
     9  H    2.983130   3.073997   2.154675   1.094284   2.098787
    10  O    1.464665   2.442878   2.983998   2.444712   1.349655
    11  O    3.542253   3.933385   3.665821   2.409760   1.214261
    12  C    1.532050   2.632049   3.250793   3.303601   3.263613
    13  C    2.555272   3.975591   4.642687   4.351141   3.903750
    14  C    2.547138   1.532521   2.587297   3.901027   4.319869
    15  O    3.250884   2.416128   1.426194   2.426408   3.694975
    16  Si   4.900026   4.076440   2.880355   3.548221   5.009809
    17  C    5.496844   5.027865   4.210378   4.767326   6.070937
    18  C    5.759382   5.123129   3.647919   3.576613   5.046977
    19  C    6.089052   4.906775   3.855262   4.887213   6.314691
    20  H    6.800447   6.141848   4.687279   4.671212   6.132935
    21  H    5.549161   5.204083   3.808914   3.344805   4.684325
    22  H    5.879199   5.124711   3.572215   3.419935   4.841586
    23  H    7.078303   5.962280   4.863789   5.760020   7.232728
    24  H    6.252217   4.946157   3.823061   4.829149   6.213355
    25  H    6.030379   4.796959   4.062105   5.323118   6.645866
    26  H    6.580928   6.068554   5.153196   5.656532   7.017987
    27  H    5.429858   4.936523   4.419355   5.221606   6.421963
    28  H    5.256004   5.093175   4.343788   4.598928   5.774059
    29  H    2.739864   2.169422   3.528630   4.688035   4.810319
    30  H    2.883512   2.186074   2.872612   4.128822   4.736332
    31  H    3.494904   2.177713   2.840901   4.332122   4.908345
    32  H    2.129637   2.839089   3.605969   4.050405   4.205131
    33  H    2.174724   2.892645   2.948111   2.815143   3.156845
    34  H    3.501256   4.794924   5.319522   5.035096   4.779570
    35  H    2.810668   4.263204   5.223024   5.081010   4.457305
    36  H    2.839147   4.300627   4.792634   4.152735   3.462400
    37  C    3.871318   2.552788   1.555358   2.553958   3.520547
    38  C    4.245124   3.108897   2.586270   3.064844   3.465727
    39  C    4.983701   3.789722   3.665099   4.324041   4.523853
    40  H    4.674159   3.482194   2.149592   2.766002   3.972704
    41  H    4.277578   2.780214   2.170783   3.496518   4.434968
    42  H    4.353603   3.539672   2.924906   2.811823   2.966548
    43  H    5.599833   4.586859   4.559679   4.987386   4.928696
    44  H    5.298634   3.951648   3.966892   4.936641   5.270425
                    6          7          8          9         10
     6  H    0.000000
     7  H    2.362948   0.000000
     8  H    4.810740   3.638176   0.000000
     9  H    4.067696   3.719644   1.755646   0.000000
    10  O    2.006773   2.544054   3.320736   2.802446   0.000000
    11  O    4.179139   3.784008   2.526665   2.952325   2.213635
    12  C    2.136903   3.495117   4.381358   2.968193   2.473122
    13  C    2.741613   4.650146   5.370266   3.916157   2.952484
    14  C    2.748261   2.135902   4.752160   4.251936   3.807462
    15  O    4.188764   3.296119   3.011986   2.397270   3.962429
    16  Si   5.857702   4.875144   3.725099   3.313323   5.500382
    17  C    6.378135   6.018604   5.162694   4.179460   6.303753
    18  C    6.822950   5.767284   3.268000   3.263120   5.910776
    19  C    6.906172   5.494986   4.915734   4.955351   6.788847
    20  H    7.857163   6.802415   4.318216   4.309535   6.994415
    21  H    6.640871   5.894110   3.094721   2.770822   5.560064
    22  H    6.923594   5.576969   2.825241   3.408951   5.858622
    23  H    7.921752   6.579720   5.704573   5.716124   7.759441
    24  H    7.053107   5.332586   4.687577   5.108601   6.802978
    25  H    6.720046   5.392821   5.525897   5.425959   6.921718
    26  H    7.472058   7.027057   5.913331   5.056656   7.339075
    27  H    6.176169   5.951234   5.761822   4.719294   6.448523
    28  H    6.159976   6.128612   5.067342   3.808018   5.967251
    29  H    2.488087   2.475759   5.591373   5.047800   4.031959
    30  H    3.220493   3.062370   5.013998   4.210117   4.247923
    31  H    3.707910   2.464409   5.003022   4.811226   4.595648
    32  H    2.453364   3.781380   5.119616   3.738151   3.390831
    33  H    3.056278   3.847259   3.812533   2.189385   2.816319
    34  H    3.736435   5.582022   6.019882   4.406125   3.969091
    35  H    2.546734   4.790487   6.122148   4.812056   3.281145
    36  H    3.126889   4.840079   5.067733   3.728467   2.658577
    37  C    4.609870   2.549028   2.595607   3.382929   4.096589
    38  C    4.797497   2.551270   2.931750   4.114746   4.092847
    39  C    5.295161   2.985182   4.257366   5.375331   4.924886
    40  H    5.523373   3.597712   2.441747   3.445019   4.783132
    41  H    4.880009   2.796022   3.655012   4.214347   4.789564
    42  H    4.958886   2.997425   2.468360   3.887417   3.833882
    43  H    5.808428   3.655547   4.847501   6.074003   5.332866
    44  H    5.529804   3.229431   4.978097   5.917758   5.514821
                   11         12         13         14         15
    11  O    0.000000
    12  C    4.351905   0.000000
    13  C    4.733152   1.532329   0.000000
    14  C    5.463419   3.185126   4.565922   0.000000
    15  O    4.780032   3.301718   4.769186   2.781405   0.000000
    16  Si   5.946333   4.726075   6.099744   4.244317   1.684595
    17  C    7.082181   4.804477   5.991079   4.901674   2.802856
    18  C    5.672328   5.624454   6.794041   5.722729   2.972945
    19  C    7.220389   6.170455   7.646028   4.706471   2.952911
    20  H    6.721223   6.570597   7.716721   6.612823   3.885174
    21  H    5.240190   5.259433   6.247807   5.964479   3.221551
    22  H    5.319723   6.012698   7.199445   5.867953   3.293886
    23  H    8.098594   7.030958   8.463558   5.739353   3.870542
    24  H    7.011912   6.575340   8.064102   4.899867   3.301659
    25  H    7.643579   6.120634   7.623551   4.261473   3.149767
    26  H    7.969782   5.876354   7.010207   5.912563   3.766328
    27  H    7.522983   4.713268   5.927401   4.492327   3.013694
    28  H    6.748507   4.341134   5.335463   5.153960   3.048138
    29  H    5.903521   3.435059   4.580058   1.095109   3.831303
    30  H    5.937002   2.964377   4.378923   1.091096   2.514693
    31  H    5.987070   4.220587   5.637310   1.093552   3.024361
    32  H    5.346733   1.095888   2.160899   2.817317   3.378743
    33  H    4.232112   1.093439   2.170146   3.555622   2.736996
    34  H    5.596088   2.174724   1.094117   5.218138   5.181946
    35  H    5.241543   2.182060   1.095822   4.696967   5.466323
    36  H    4.068603   2.182019   1.093413   5.184584   5.102053
    37  C    4.283666   4.762176   6.141127   3.282898   2.442794
    38  C    3.899443   5.448234   6.650269   4.055578   3.809104
    39  C    4.891619   6.317303   7.500420   4.437306   4.830522
    40  H    4.604452   5.368709   6.730659   4.193289   2.637088
    41  H    5.278354   5.131601   6.591236   2.969065   2.669871
    42  H    3.101006   5.538042   6.577976   4.749913   4.221653
    43  H    5.066437   7.016434   8.072011   5.323524   5.811024
    44  H    5.792501   6.577497   7.848099   4.210735   4.933074
                   16         17         18         19         20
    16  Si   0.000000
    17  C    1.881163   0.000000
    18  C    1.888888   3.090521   0.000000
    19  C    1.887618   3.078630   3.086957   0.000000
    20  H    2.478583   3.290901   1.096462   3.271292   0.000000
    21  H    2.511270   3.302706   1.095002   4.049379   1.767159
    22  H    2.523556   4.057943   1.094965   3.324858   1.763953
    23  H    2.484365   3.250694   3.316413   1.096451   3.125968
    24  H    2.520118   4.046194   3.292346   1.094302   3.550099
    25  H    2.500611   3.310398   4.043629   1.095239   4.287057
    26  H    2.491820   1.095691   3.316828   3.281934   3.143266
    27  H    2.493979   1.095004   4.045680   3.298199   4.297435
    28  H    2.496575   1.094922   3.296973   4.037743   3.591957
    29  H    5.316000   5.829951   6.788453   5.752293   7.689936
    30  H    3.797395   4.081436   5.432857   4.390467   6.238693
    31  H    4.239706   5.109395   5.761819   4.255340   6.583344
    32  H    4.728814   4.565588   5.935905   5.999977   6.805820
    33  H    3.945713   3.990875   4.678536   5.573143   5.593595
    34  H    6.310199   5.879350   7.001205   7.924753   7.827173
    35  H    6.904154   6.822354   7.726472   8.319473   8.671516
    36  H    6.402736   6.466833   6.810480   8.029313   7.760696
    37  C    3.314628   5.007812   3.894794   3.576437   4.822553
    38  C    4.775641   6.469224   5.072911   4.991346   6.013530
    39  C    5.807891   7.474163   6.269634   5.709089   7.155126
    40  H    2.944295   4.792085   3.118019   3.145478   3.966481
    41  H    3.424103   5.016079   4.389894   3.200362   5.198293
    42  H    5.171403   6.848304   5.129672   5.650604   6.101422
    43  H    6.815983   8.494479   7.135640   6.758707   8.027991
    44  H    5.849478   7.445123   6.569587   5.470774   7.391797
                   21         22         23         24         25
    21  H    0.000000
    22  H    1.770801   0.000000
    23  H    4.312067   3.656303   0.000000
    24  H    4.315872   3.158588   1.767014   0.000000
    25  H    4.916444   4.322693   1.768365   1.770262   0.000000
    26  H    3.614790   4.327879   3.075372   4.284685   3.608766
    27  H    4.307419   4.924260   3.556966   4.320856   3.157019
    28  H    3.135431   4.311926   4.259662   4.917768   4.317786
    29  H    6.972448   6.928950   6.772464   5.937144   5.223304
    30  H    5.646377   5.776663   5.328784   4.822996   3.898514
    31  H    6.191113   5.804572   5.300639   4.313936   3.709622
    32  H    5.702704   6.415130   6.838512   6.513534   5.775226
    33  H    4.236820   5.152644   6.351935   6.026158   5.676309
    34  H    6.392107   7.546404   8.644904   8.463759   7.902120
    35  H    7.246704   8.083583   9.187969   8.706450   8.188093
    36  H    6.158817   7.122264   8.845002   8.357492   8.133814
    37  C    4.370878   3.456000   4.597522   3.114878   3.842624
    38  C    5.435620   4.431204   5.978656   4.366931   5.240579
    39  C    6.714657   5.614411   6.699920   4.997838   5.786036
    40  H    3.726132   2.509357   4.030756   2.559488   3.702882
    41  H    5.015341   4.064736   4.260768   2.732217   3.202268
    42  H    5.320019   4.413302   6.584382   5.051020   6.035160
    43  H    7.517947   6.407418   7.728395   6.006689   6.863290
    44  H    7.127646   5.999972   6.458501   4.772550   5.372016
                   26         27         28         29         30
    26  H    0.000000
    27  H    1.769514   0.000000
    28  H    1.770684   1.769608   0.000000
    29  H    6.850857   5.322363   6.012924   0.000000
    30  H    5.093209   3.547132   4.324319   1.776208   0.000000
    31  H    6.020188   4.695163   5.565445   1.764277   1.764007
    32  H    5.634464   4.232868   4.216929   2.970634   2.340042
    33  H    5.027935   4.099013   3.433893   4.081197   3.190155
    34  H    6.826157   5.798910   5.105591   5.272979   4.822149
    35  H    7.864736   6.631962   6.244024   4.450994   4.625437
    36  H    7.457614   6.565989   5.757423   5.268767   5.123721
    37  C    5.782944   5.239505   5.387913   4.197747   3.784433
    38  C    7.256904   6.705557   6.762828   4.719584   4.815146
    39  C    8.255656   7.582121   7.854441   4.900416   5.344485
    40  H    5.413768   5.213062   5.217153   5.179995   4.507912
    41  H    5.756102   5.061784   5.567602   3.873640   3.473154
    42  H    7.632921   7.206046   7.001946   5.382271   5.465493
    43  H    9.282929   8.627649   8.823513   5.658447   6.284035
    44  H    8.200797   7.425463   7.941062   4.629332   5.114117
                   31         32         33         34         35
    31  H    0.000000
    32  H    3.863380   0.000000
    33  H    4.461773   1.746730   0.000000
    34  H    6.281879   2.497071   2.500872   0.000000
    35  H    5.783253   2.519731   3.084878   1.769145   0.000000
    36  H    6.210453   3.078571   2.543651   1.770454   1.767760
    37  C    3.002095   5.040033   4.501884   6.862206   6.640526
    38  C    3.790133   5.870402   5.356767   7.517706   7.023183
    39  C    3.973337   6.628071   6.387384   8.420878   7.716455
    40  H    3.894582   5.686359   4.902593   7.360516   7.353889
    41  H    2.356853   5.183943   4.963715   7.276371   7.005307
    42  H    4.671558   6.141209   5.392979   7.464531   7.001060
    43  H    4.926372   7.405271   7.145225   9.048424   8.222677
    44  H    3.525653   6.712600   6.694291   8.729850   8.011038
                   36         37         38         39         40
    36  H    0.000000
    37  C    6.242013   0.000000
    38  C    6.594137   1.505207   0.000000
    39  C    7.506437   2.516265   1.334381   0.000000
    40  H    6.765878   1.098572   2.127521   3.189636   0.000000
    41  H    6.848849   1.094818   2.141921   2.638491   1.762759
    42  H    6.343450   2.218848   1.090065   2.089640   2.561700
    43  H    7.981610   3.506054   2.116040   1.085879   4.099364
    44  H    7.995914   2.779703   2.118547   1.087611   3.498118
                   41         42         43         44
    41  H    0.000000
    42  H    3.100861   0.000000
    43  H    3.721762   2.427110   0.000000
    44  H    2.445565   3.072812   1.850446   0.000000
 Stoichiometry    C14H26O3Si
 Framework group  C1[X(C14H26O3Si)]
 Deg. of freedom   126
 Full point group                 C1      NOp   1
 Largest Abelian subgroup         C1      NOp   1
 Largest concise Abelian subgroup C1      NOp   1
                         Standard orientation:                         
 ---------------------------------------------------------------------
 Center     Atomic      Atomic             Coordinates (Angstroms)
 Number     Number       Type             X           Y           Z
 ---------------------------------------------------------------------
      1          6           0        2.147592   -0.780463   -0.774270
      2          6           0        1.077047    0.236720   -1.205897
      3          6           0        0.007613    0.495631   -0.105344
      4          6           0        0.641743    0.276236    1.301666
      5          6           0        2.153020    0.353754    1.380144
      6          1           0        2.934313   -0.777540   -1.536723
      7          1           0        1.629295    1.179005   -1.307854
      8          1           0        0.238779    0.963913    2.047221
      9          1           0        0.375305   -0.734701    1.624890
     10          8           0        2.850325   -0.258052    0.399824
     11          8           0        2.752123    0.883852    2.293654
     12          6           0        1.713689   -2.233986   -0.559382
     13          6           0        2.875767   -3.154548   -0.171861
     14          6           0        0.482960   -0.099590   -2.577967
     15          8           0       -1.048424   -0.446469   -0.282155
     16         14           0       -2.638611   -0.582653    0.256935
     17          6           0       -3.064773   -2.383122   -0.082875
     18          6           0       -2.810167   -0.211187    2.100974
     19          6           0       -3.797027    0.537031   -0.726672
     20          1           0       -3.847289   -0.384478    2.411743
     21          1           0       -2.171645   -0.860814    2.708678
     22          1           0       -2.567015    0.827317    2.348631
     23          1           0       -4.839088    0.313052   -0.469483
     24          1           0       -3.628649    1.599197   -0.524314
     25          1           0       -3.680431    0.376937   -1.803855
     26          1           0       -4.102692   -2.598035    0.194751
     27          1           0       -2.946925   -2.622160   -1.144951
     28          1           0       -2.418076   -3.058864    0.486343
     29          1           0        1.282754   -0.228616   -3.314816
     30          1           0       -0.114463   -1.012083   -2.547432
     31          1           0       -0.162474    0.708569   -2.933143
     32          1           0        1.270818   -2.580436   -1.500025
     33          1           0        0.916026   -2.293849    0.186111
     34          1           0        2.530926   -4.187144   -0.062673
     35          1           0        3.661230   -3.143222   -0.935893
     36          1           0        3.328195   -2.846331    0.774639
     37          6           0       -0.547470    1.943703   -0.224122
     38          6           0        0.461648    3.039979   -0.010797
     39          6           0        0.739700    3.998681   -0.896319
     40          1           0       -1.339591    2.045412    0.530239
     41          1           0       -1.022533    2.059177   -1.203717
     42          1           0        0.982019    3.044772    0.947030
     43          1           0        1.466136    4.776996   -0.682661
     44          1           0        0.245395    4.043382   -1.864080
 ---------------------------------------------------------------------
 Rotational constants (GHZ):      0.4360112      0.3030137      0.2450861
 Standard basis: def2TZVP (5D, 7F)
 There are   810 symmetry adapted cartesian basis functions of A   symmetry.
 There are   720 symmetry adapted basis functions of A   symmetry.
   720 basis functions,  1144 primitive gaussians,   810 cartesian basis functions
    74 alpha electrons       74 beta electrons
       nuclear repulsion energy      1636.1308275449 Hartrees.
 NAtoms=   44 NActive=   44 NUniq=   44 SFac= 1.00D+00 NAtFMM=   60 NAOKFM=F Big=F
 Integral buffers will be    131072 words long.
 Raffenetti 2 integral format.
 Two-electron integral symmetry is turned on.
 ------------------------------------------------------------------------------
 Polarizable Continuum Model (PCM)
 =================================
 Model                : PCM (using non-symmetric T matrix).
 Atomic radii         : UFF (Universal Force Field).
 Polarization charges : Total charges.
 Charge compensation  : None.
 Solution method      : On-the-fly selection.
 Cavity type          : Scaled VdW (van der Waals Surface) (Alpha=1.100).
 Cavity algorithm     : GePol (No added spheres)
                        Default sphere list used, NSphG=   44.
                        Lebedev-Laikov grids with approx.  5.0 points / Ang**2.
                        Smoothing algorithm: Karplus/York (Gamma=1.0000).
                        Polarization charges: spherical gaussians, with
                                              point-specific exponents (IZeta= 3).
                        Self-potential: point-specific (ISelfS= 7).
                        Self-field    : sphere-specific E.n sum rule (ISelfD= 2).
 Solvent              : Chloroform, Eps=   4.711300 Eps(inf)=   2.090627
 ------------------------------------------------------------------------------
 One-electron integrals computed using PRISM.
   1 Symmetry operations used in ECPInt.
 ECPInt:  NShTT=   46360 NPrTT=  137514 LenC2=   42401 LenP2D=   91064.
 LDataN:  DoStor=T MaxTD1= 6 Len=  172
 NBasis=   720 RedAO= T EigKep=  3.19D-05  NBF=   720
 NBsUse=   720 1.00D-06 EigRej= -1.00D+00 NBFU=   720
 ExpMin= 7.01D-02 ExpMax= 4.48D+04 ExpMxC= 1.53D+03 IAcc=3 IRadAn=         5 AccDes= 0.00D+00
 Harris functional with IExCor= 1009 and IRadAn=       5 diagonalized for initial guess.
 HarFok:  IExCor= 1009 AccDes= 0.00D+00 IRadAn=         5 IDoV= 1 UseB2=F ITyADJ=14
 ICtDFT=  3500011 ScaDFX=  1.000000  1.000000  1.000000  1.000000
 FoFCou: FMM=F IPFlag=           0 FMFlag=      100000 FMFlg1=           0
         NFxFlg=           0 DoJE=T BraDBF=F KetDBF=T FulRan=T
         wScrn=  0.000000 ICntrl=     500 IOpCl=  0 I1Cent=   200000004 NGrid=           0
         NMat0=    1 NMatS0=      1 NMatT0=    0 NMatD0=    1 NMtDS0=    0 NMtDT0=    0
 Petite list used in FoFCou.
 Requested convergence on RMS density matrix=1.00D-08 within 128 cycles.
 Requested convergence on MAX density matrix=1.00D-06.
 Requested convergence on             energy=1.00D-06.
 No special actions if energy rises.
 Inv3:  Mode=1 IEnd=    25195212.
 Iteration    1 A*A^-1 deviation from unit magnitude is 8.22D-15 for   2869.
 Iteration    1 A*A^-1 deviation from orthogonality  is 3.15D-15 for   2164    563.
 Iteration    1 A^-1*A deviation from unit magnitude is 7.55D-15 for   2869.
 Iteration    1 A^-1*A deviation from orthogonality  is 1.15D-10 for   2757   2735.
 Iteration    2 A*A^-1 deviation from unit magnitude is 2.89D-15 for   1381.
 Iteration    2 A*A^-1 deviation from orthogonality  is 3.00D-15 for   2004    245.
 Iteration    2 A^-1*A deviation from unit magnitude is 7.77D-16 for     27.
 Iteration    2 A^-1*A deviation from orthogonality  is 3.84D-16 for   2711   2568.
 Error on total polarization charges =  0.01463
 SCF Done:  E(RM062X) =  -1064.33839404     A.U. after   14 cycles
            NFock= 14  Conv=0.13D-08     -V/T= 2.0048

 **********************************************************************

            Population analysis using the SCF density.

 **********************************************************************

 Orbital symmetries:
       Occupied  (A) (A) (A) (A) (A) (A) (A) (A) (A) (A) (A) (A)
                 (A) (A) (A) (A) (A) (A) (A) (A) (A) (A) (A) (A)
                 (A) (A) (A) (A) (A) (A) (A) (A) (A) (A) (A) (A)
                 (A) (A) (A) (A) (A) (A) (A) (A) (A) (A) (A) (A)
                 (A) (A) (A) (A) (A) (A) (A) (A) (A) (A) (A) (A)
                 (A) (A) (A) (A) (A) (A) (A) (A) (A) (A) (A) (A)
                 (A) (A)
       Virtual   (A) (A) (A) (A) (A) (A) (A) (A) (A) (A) (A) (A)
                 (A) (A) (A) (A) (A) (A) (A) (A) (A) (A) (A) (A)
                 (A) (A) (A) (A) (A) (A) (A) (A) (A) (A) (A) (A)
                 (A) (A) (A) (A) (A) (A) (A) (A) (A) (A) (A) (A)
                 (A) (A) (A) (A) (A) (A) (A) (A) (A) (A) (A) (A)
                 (A) (A) (A) (A) (A) (A) (A) (A) (A) (A) (A) (A)
                 (A) (A) (A) (A) (A) (A) (A) (A) (A) (A) (A) (A)
                 (A) (A) (A) (A) (A) (A) (A) (A) (A) (A) (A) (A)
                 (A) (A) (A) (A) (A) (A) (A) (A) (A) (A) (A) (A)
                 (A) (A) (A) (A) (A) (A) (A) (A) (A) (A) (A) (A)
                 (A) (A) (A) (A) (A) (A) (A) (A) (A) (A) (A) (A)
                 (A) (A) (A) (A) (A) (A) (A) (A) (A) (A) (A) (A)
                 (A) (A) (A) (A) (A) (A) (A) (A) (A) (A) (A) (A)
                 (A) (A) (A) (A) (A) (A) (A) (A) (A) (A) (A) (A)
                 (A) (A) (A) (A) (A) (A) (A) (A) (A) (A) (A) (A)
                 (A) (A) (A) (A) (A) (A) (A) (A) (A) (A) (A) (A)
                 (A) (A) (A) (A) (A) (A) (A) (A) (A) (A) (A) (A)
                 (A) (A) (A) (A) (A) (A) (A) (A) (A) (A) (A) (A)
                 (A) (A) (A) (A) (A) (A) (A) (A) (A) (A) (A) (A)
                 (A) (A) (A) (A) (A) (A) (A) (A) (A) (A) (A) (A)
                 (A) (A) (A) (A) (A) (A) (A) (A) (A) (A) (A) (A)
                 (A) (A) (A) (A) (A) (A) (A) (A) (A) (A) (A) (A)
                 (A) (A) (A) (A) (A) (A) (A) (A) (A) (A) (A) (A)
                 (A) (A) (A) (A) (A) (A) (A) (A) (A) (A) (A) (A)
                 (A) (A) (A) (A) (A) (A) (A) (A) (A) (A) (A) (A)
                 (A) (A) (A) (A) (A) (A) (A) (A) (A) (A) (A) (A)
                 (A) (A) (A) (A) (A) (A) (A) (A) (A) (A) (A) (A)
                 (A) (A) (A) (A) (A) (A) (A) (A) (A) (A) (A) (A)
                 (A) (A) (A) (A) (A) (A) (A) (A) (A) (A) (A) (A)
                 (A) (A) (A) (A) (A) (A) (A) (A) (A) (A) (A) (A)
                 (A) (A) (A) (A) (A) (A) (A) (A) (A) (A) (A) (A)
                 (A) (A) (A) (A) (A) (A) (A) (A) (A) (A) (A) (A)
                 (A) (A) (A) (A) (A) (A) (A) (A) (A) (A) (A) (A)
                 (A) (A) (A) (A) (A) (A) (A) (A) (A) (A) (A) (A)
                 (A) (A) (A) (A) (A) (A) (A) (A) (A) (A) (A) (A)
                 (A) (A) (A) (A) (A) (A) (A) (A) (A) (A) (A) (A)
                 (A) (A) (A) (A) (A) (A) (A) (A) (A) (A) (A) (A)
                 (A) (A) (A) (A) (A) (A) (A) (A) (A) (A) (A) (A)
                 (A) (A) (A) (A) (A) (A) (A) (A) (A) (A) (A) (A)
                 (A) (A) (A) (A) (A) (A) (A) (A) (A) (A) (A) (A)
                 (A) (A) (A) (A) (A) (A) (A) (A) (A) (A) (A) (A)
                 (A) (A) (A) (A) (A) (A) (A) (A) (A) (A) (A) (A)
                 (A) (A) (A) (A) (A) (A) (A) (A) (A) (A) (A) (A)
                 (A) (A) (A) (A) (A) (A) (A) (A) (A) (A) (A) (A)
                 (A) (A) (A) (A) (A) (A) (A) (A) (A) (A) (A) (A)
                 (A) (A) (A) (A) (A) (A) (A) (A) (A) (A) (A) (A)
                 (A) (A) (A) (A) (A) (A) (A) (A) (A) (A) (A) (A)
                 (A) (A) (A) (A) (A) (A) (A) (A) (A) (A) (A) (A)
                 (A) (A) (A) (A) (A) (A) (A) (A) (A) (A) (A) (A)
                 (A) (A) (A) (A) (A) (A) (A) (A) (A) (A) (A) (A)
                 (A) (A) (A) (A) (A) (A) (A) (A) (A) (A) (A) (A)
                 (A) (A) (A) (A) (A) (A) (A) (A) (A) (A) (A) (A)
                 (A) (A) (A) (A) (A) (A) (A) (A) (A) (A) (A) (A)
                 (A) (A) (A) (A) (A) (A) (A) (A) (A) (A)
 The electronic state is 1-A.
 Alpha  occ. eigenvalues --  -67.01723 -19.67010 -19.61933 -19.61616 -10.68000
 Alpha  occ. eigenvalues --  -10.62358 -10.60613 -10.55666 -10.55185 -10.55060
 Alpha  occ. eigenvalues --  -10.54894 -10.53966 -10.53799 -10.53061 -10.52578
 Alpha  occ. eigenvalues --  -10.51300 -10.51042 -10.50893  -5.55173  -3.86358
 Alpha  occ. eigenvalues --   -3.86218  -3.86203  -1.22792  -1.14142  -1.13308
 Alpha  occ. eigenvalues --   -0.93362  -0.90457  -0.87487  -0.85422  -0.80703
 Alpha  occ. eigenvalues --   -0.80003  -0.78698  -0.77065  -0.76821  -0.73083
 Alpha  occ. eigenvalues --   -0.70598  -0.68749  -0.64300  -0.60568  -0.60261
 Alpha  occ. eigenvalues --   -0.58204  -0.57034  -0.55434  -0.54442  -0.52727
 Alpha  occ. eigenvalues --   -0.52393  -0.50888  -0.49959  -0.49581  -0.48901
 Alpha  occ. eigenvalues --   -0.48428  -0.47605  -0.47217  -0.46746  -0.46391
 Alpha  occ. eigenvalues --   -0.45744  -0.45404  -0.45137  -0.44597  -0.44491
 Alpha  occ. eigenvalues --   -0.43573  -0.43210  -0.42433  -0.41514  -0.40525
 Alpha  occ. eigenvalues --   -0.40344  -0.39845  -0.38625  -0.37105  -0.36047
 Alpha  occ. eigenvalues --   -0.35449  -0.34856  -0.33573  -0.31880
 Alpha virt. eigenvalues --    0.02224   0.04268   0.04916   0.06875   0.07206
 Alpha virt. eigenvalues --    0.07690   0.08613   0.09653   0.09855   0.10263
 Alpha virt. eigenvalues --    0.10659   0.11192   0.11419   0.12165   0.12601
 Alpha virt. eigenvalues --    0.13002   0.13266   0.14460   0.14812   0.14971
 Alpha virt. eigenvalues --    0.15447   0.15647   0.16176   0.16308   0.16816
 Alpha virt. eigenvalues --    0.16926   0.17295   0.17468   0.18136   0.18523
 Alpha virt. eigenvalues --    0.18958   0.19283   0.19961   0.20437   0.20636
 Alpha virt. eigenvalues --    0.20707   0.21447   0.22354   0.22857   0.23066
 Alpha virt. eigenvalues --    0.23131   0.23680   0.24062   0.24495   0.25277
 Alpha virt. eigenvalues --    0.25779   0.26404   0.27261   0.27803   0.28309
 Alpha virt. eigenvalues --    0.29144   0.29241   0.29932   0.30554   0.30931
 Alpha virt. eigenvalues --    0.31387   0.32157   0.32528   0.33323   0.33534
 Alpha virt. eigenvalues --    0.34497   0.34950   0.36142   0.36576   0.36858
 Alpha virt. eigenvalues --    0.37020   0.37779   0.37876   0.38668   0.38983
 Alpha virt. eigenvalues --    0.39225   0.39920   0.40801   0.40953   0.41525
 Alpha virt. eigenvalues --    0.41972   0.42908   0.43137   0.43685   0.43885
 Alpha virt. eigenvalues --    0.44489   0.45179   0.45656   0.46013   0.46441
 Alpha virt. eigenvalues --    0.46772   0.47122   0.47355   0.47606   0.47874
 Alpha virt. eigenvalues --    0.48039   0.48972   0.49214   0.49422   0.49742
 Alpha virt. eigenvalues --    0.50720   0.51086   0.51344   0.51580   0.51622
 Alpha virt. eigenvalues --    0.52217   0.52495   0.53274   0.53452   0.53539
 Alpha virt. eigenvalues --    0.54048   0.54594   0.55232   0.55886   0.56176
 Alpha virt. eigenvalues --    0.57157   0.57242   0.57599   0.57887   0.58534
 Alpha virt. eigenvalues --    0.59034   0.59485   0.60259   0.61457   0.61928
 Alpha virt. eigenvalues --    0.62448   0.63266   0.63898   0.64639   0.65321
 Alpha virt. eigenvalues --    0.65580   0.66044   0.66938   0.67579   0.68604
 Alpha virt. eigenvalues --    0.68859   0.70705   0.70997   0.71809   0.72540
 Alpha virt. eigenvalues --    0.72987   0.75042   0.75667   0.76195   0.76840
 Alpha virt. eigenvalues --    0.77557   0.78272   0.79949   0.80237   0.81440
 Alpha virt. eigenvalues --    0.81528   0.82773   0.83922   0.85666   0.85933
 Alpha virt. eigenvalues --    0.86038   0.88045   0.89414   0.89709   0.90720
 Alpha virt. eigenvalues --    0.91977   0.92815   0.92990   0.93565   0.93998
 Alpha virt. eigenvalues --    0.94965   0.95692   0.96156   0.96675   0.97560
 Alpha virt. eigenvalues --    0.98569   0.98654   0.99439   1.00112   1.01455
 Alpha virt. eigenvalues --    1.02663   1.03604   1.04336   1.04624   1.05060
 Alpha virt. eigenvalues --    1.05524   1.05853   1.06165   1.06822   1.07950
 Alpha virt. eigenvalues --    1.08136   1.08853   1.09310   1.10622   1.11146
 Alpha virt. eigenvalues --    1.12122   1.12699   1.13346   1.14751   1.15144
 Alpha virt. eigenvalues --    1.15844   1.17434   1.18018   1.19120   1.20227
 Alpha virt. eigenvalues --    1.20745   1.21285   1.22237   1.22960   1.24937
 Alpha virt. eigenvalues --    1.26572   1.27730   1.28223   1.28612   1.29716
 Alpha virt. eigenvalues --    1.29991   1.30503   1.31333   1.31746   1.32502
 Alpha virt. eigenvalues --    1.34441   1.35673   1.35852   1.37695   1.38137
 Alpha virt. eigenvalues --    1.38809   1.40412   1.40655   1.41676   1.42096
 Alpha virt. eigenvalues --    1.42784   1.44404   1.45451   1.46505   1.46679
 Alpha virt. eigenvalues --    1.48716   1.49323   1.50700   1.52313   1.52609
 Alpha virt. eigenvalues --    1.54319   1.55083   1.55479   1.56108   1.56777
 Alpha virt. eigenvalues --    1.57122   1.57431   1.58377   1.58852   1.59354
 Alpha virt. eigenvalues --    1.59879   1.60758   1.61218   1.61828   1.62282
 Alpha virt. eigenvalues --    1.62649   1.63470   1.63969   1.64989   1.65094
 Alpha virt. eigenvalues --    1.65302   1.65712   1.66385   1.66993   1.67390
 Alpha virt. eigenvalues --    1.67795   1.67902   1.68192   1.68335   1.69804
 Alpha virt. eigenvalues --    1.70026   1.70492   1.71048   1.72240   1.73437
 Alpha virt. eigenvalues --    1.73962   1.75245   1.76119   1.76569   1.77569
 Alpha virt. eigenvalues --    1.78176   1.79462   1.81137   1.82168   1.83747
 Alpha virt. eigenvalues --    1.84434   1.85057   1.86350   1.86714   1.88304
 Alpha virt. eigenvalues --    1.88731   1.89404   1.91147   1.92174   1.92836
 Alpha virt. eigenvalues --    1.94433   1.95165   1.96890   1.97591   1.98866
 Alpha virt. eigenvalues --    1.99144   1.99609   2.00146   2.01043   2.01170
 Alpha virt. eigenvalues --    2.02823   2.04033   2.05028   2.05745   2.06346
 Alpha virt. eigenvalues --    2.06916   2.07567   2.08371   2.08802   2.08933
 Alpha virt. eigenvalues --    2.09652   2.11260   2.12809   2.13568   2.13890
 Alpha virt. eigenvalues --    2.15370   2.16935   2.17034   2.17806   2.18631
 Alpha virt. eigenvalues --    2.20421   2.20971   2.22338   2.22535   2.23763
 Alpha virt. eigenvalues --    2.24307   2.26429   2.26618   2.26900   2.27739
 Alpha virt. eigenvalues --    2.29222   2.30102   2.31162   2.31977   2.33080
 Alpha virt. eigenvalues --    2.33723   2.34333   2.35510   2.35676   2.36491
 Alpha virt. eigenvalues --    2.36987   2.37454   2.38358   2.39052   2.39419
 Alpha virt. eigenvalues --    2.39994   2.40852   2.41413   2.41748   2.42370
 Alpha virt. eigenvalues --    2.42631   2.43721   2.44333   2.44639   2.44924
 Alpha virt. eigenvalues --    2.45478   2.46753   2.47572   2.48605   2.50407
 Alpha virt. eigenvalues --    2.50587   2.51574   2.53177   2.54165   2.55296
 Alpha virt. eigenvalues --    2.56508   2.56954   2.57374   2.58176   2.58362
 Alpha virt. eigenvalues --    2.59339   2.59882   2.60844   2.61162   2.61503
 Alpha virt. eigenvalues --    2.61981   2.63015   2.63619   2.63862   2.64359
 Alpha virt. eigenvalues --    2.64944   2.66085   2.66490   2.67155   2.67599
 Alpha virt. eigenvalues --    2.69014   2.69065   2.69752   2.70639   2.70965
 Alpha virt. eigenvalues --    2.71037   2.71527   2.72820   2.73559   2.73959
 Alpha virt. eigenvalues --    2.74741   2.75579   2.76714   2.77321   2.79314
 Alpha virt. eigenvalues --    2.79420   2.79779   2.81313   2.82463   2.83256
 Alpha virt. eigenvalues --    2.84601   2.85644   2.86326   2.87174   2.87984
 Alpha virt. eigenvalues --    2.88325   2.89537   2.91889   2.92450   2.93222
 Alpha virt. eigenvalues --    2.94623   2.97161   2.98916   3.00118   3.01321
 Alpha virt. eigenvalues --    3.01978   3.03297   3.03795   3.06013   3.06401
 Alpha virt. eigenvalues --    3.08254   3.08619   3.09138   3.10154   3.10193
 Alpha virt. eigenvalues --    3.11359   3.12010   3.13157   3.13558   3.14233
 Alpha virt. eigenvalues --    3.14729   3.14797   3.15682   3.16246   3.16825
 Alpha virt. eigenvalues --    3.17031   3.17383   3.17856   3.18488   3.19643
 Alpha virt. eigenvalues --    3.21160   3.22113   3.22763   3.23668   3.23918
 Alpha virt. eigenvalues --    3.24651   3.25144   3.25592   3.25938   3.26657
 Alpha virt. eigenvalues --    3.27321   3.28201   3.28889   3.29347   3.29631
 Alpha virt. eigenvalues --    3.29816   3.30702   3.32166   3.32613   3.32867
 Alpha virt. eigenvalues --    3.33138   3.33537   3.33861   3.35400   3.35830
 Alpha virt. eigenvalues --    3.36254   3.36778   3.37102   3.38311   3.39859
 Alpha virt. eigenvalues --    3.40749   3.41332   3.41805   3.42315   3.42746
 Alpha virt. eigenvalues --    3.43669   3.43781   3.44639   3.45357   3.45803
 Alpha virt. eigenvalues --    3.46533   3.48023   3.48664   3.49393   3.49828
 Alpha virt. eigenvalues --    3.51905   3.52387   3.53263   3.54039   3.55189
 Alpha virt. eigenvalues --    3.56790   3.57218   3.58037   3.58457   3.58671
 Alpha virt. eigenvalues --    3.60123   3.60630   3.61652   3.62157   3.63095
 Alpha virt. eigenvalues --    3.63597   3.64542   3.64865   3.65379   3.65930
 Alpha virt. eigenvalues --    3.66628   3.67582   3.68165   3.69053   3.70359
 Alpha virt. eigenvalues --    3.72011   3.72865   3.73164   3.74670   3.76633
 Alpha virt. eigenvalues --    3.77891   3.79431   3.80324   3.82341   3.84649
 Alpha virt. eigenvalues --    3.86161   3.86901   3.89427   3.90017   3.92246
 Alpha virt. eigenvalues --    3.94294   3.94907   3.98245   3.99423   3.99961
 Alpha virt. eigenvalues --    4.02234   4.04649   4.08937   4.09460   4.10202
 Alpha virt. eigenvalues --    4.11987   4.12425   4.13253   4.15609   4.18440
 Alpha virt. eigenvalues --    4.19637   4.21807   4.22714   4.23157   4.25281
 Alpha virt. eigenvalues --    4.26026   4.26885   4.27295   4.29259   4.29825
 Alpha virt. eigenvalues --    4.30634   4.31808   4.32440   4.36443   4.37182
 Alpha virt. eigenvalues --    4.37903   4.38123   4.38467   4.39612   4.40856
 Alpha virt. eigenvalues --    4.41163   4.42909   4.45421   4.46439   4.48796
 Alpha virt. eigenvalues --    4.49439   4.53910   4.55394   4.56160   4.57694
 Alpha virt. eigenvalues --    4.59462   4.65243   4.66329   4.67304   4.67674
 Alpha virt. eigenvalues --    4.72582   4.74803   4.78040   4.80178   4.80564
 Alpha virt. eigenvalues --    4.87223   4.90253   4.90911   4.96188   5.01606
 Alpha virt. eigenvalues --    5.07288   5.10843   5.12866   5.17791   5.21977
 Alpha virt. eigenvalues --    5.23952   5.26183   5.27465   5.29372   5.40056
 Alpha virt. eigenvalues --    5.48774   5.49956   5.51849   5.61392   5.82515
 Alpha virt. eigenvalues --    5.85089   5.86636   5.88552   5.90556   5.98034
 Alpha virt. eigenvalues --    6.13353   6.17753   6.22453   6.37080   6.39374
 Alpha virt. eigenvalues --    6.50927   6.62736   6.64128   6.66321   6.69484
 Alpha virt. eigenvalues --    6.70742   6.77489   6.82168   6.84417   6.88531
 Alpha virt. eigenvalues --    6.94468   6.97595   7.04018   7.07233   7.15489
 Alpha virt. eigenvalues --    7.18798   7.35497   7.40432  12.17677  22.30672
 Alpha virt. eigenvalues --   22.37741  22.41208  22.43252  22.45319  22.53178
 Alpha virt. eigenvalues --   22.64117  22.66961  22.69203  22.75092  22.83598
 Alpha virt. eigenvalues --   22.89674  22.90360  23.44231  44.09220  44.46999
 Alpha virt. eigenvalues --   44.57032
          Condensed to atoms (all electrons):
               1          2          3          4          5          6
     1  C    5.390407   0.103550   0.074032  -0.050087  -0.015568   0.456627
     2  C    0.103550   5.678194  -0.005666   0.036471  -0.045169  -0.039227
     3  C    0.074032  -0.005666   5.861101  -0.199010   0.104047   0.011265
     4  C   -0.050087   0.036471  -0.199010   6.241022   0.041965  -0.003008
     5  C   -0.015568  -0.045169   0.104047   0.041965   4.483380   0.003567
     6  H    0.456627  -0.039227   0.011265  -0.003008   0.003567   0.495790
     7  H   -0.068033   0.473740  -0.069524   0.000212  -0.003233  -0.008209
     8  H   -0.000437   0.006971  -0.043372   0.389672  -0.014323   0.000148
     9  H   -0.000623  -0.002304  -0.032961   0.386296  -0.010546  -0.000136
    10  O    0.138116  -0.021926   0.011100  -0.163853   0.388233  -0.033922
    11  O    0.002190  -0.003638   0.018133  -0.155407   0.734989   0.000015
    12  C    0.189776  -0.009411  -0.036784   0.026346  -0.014769  -0.058782
    13  C   -0.051276   0.010355  -0.000559  -0.002010   0.000620  -0.010264
    14  C   -0.045208   0.190011  -0.031583   0.002581  -0.000021  -0.010078
    15  O   -0.015074  -0.064965   0.144310  -0.031111  -0.002890  -0.000544
    16  Si   0.001768   0.005466  -0.079941   0.005567  -0.001331   0.000038
    17  C    0.000308  -0.000652   0.001200   0.000735   0.000045   0.000001
    18  C   -0.000063  -0.001101   0.021422  -0.004653  -0.000646  -0.000002
    19  C   -0.000108   0.000726  -0.002582  -0.000453  -0.000001  -0.000002
    20  H    0.000000   0.000022  -0.000958   0.000272  -0.000008   0.000000
    21  H   -0.000018  -0.000017  -0.000796  -0.000198   0.000228   0.000000
    22  H    0.000024   0.000059   0.004334  -0.001432  -0.000056   0.000000
    23  H    0.000002  -0.000039   0.000161  -0.000001   0.000000   0.000000
    24  H   -0.000017   0.000042  -0.003682   0.000337   0.000000   0.000000
    25  H    0.000007  -0.000139   0.002980  -0.000031  -0.000002   0.000000
    26  H   -0.000008   0.000002   0.000000  -0.000040   0.000000   0.000000
    27  H   -0.000063   0.000076  -0.000206  -0.000027   0.000000   0.000000
    28  H    0.000023   0.000117   0.000845  -0.000617   0.000014   0.000001
    29  H    0.005208  -0.058354   0.012583  -0.000892   0.000197   0.001793
    30  H   -0.024682  -0.016897  -0.023298   0.000782  -0.000253   0.000673
    31  H    0.013436  -0.048066   0.008206   0.000490  -0.000064  -0.000208
    32  H   -0.051275  -0.002810   0.001253  -0.003000   0.001743   0.001275
    33  H   -0.035301   0.003329  -0.002851   0.013396  -0.005735   0.004925
    34  H    0.013316  -0.000807  -0.000037   0.000127  -0.000099  -0.000120
    35  H   -0.001651   0.001900  -0.000206   0.000514  -0.000498   0.001358
    36  H   -0.011885  -0.001706   0.000657  -0.001965   0.002495   0.001361
    37  C   -0.005919  -0.008091   0.137526  -0.034685  -0.005644  -0.000373
    38  C    0.004081  -0.025529  -0.016593  -0.003677   0.005739   0.000074
    39  C    0.000615  -0.005412  -0.002868  -0.002464   0.001300   0.000022
    40  H   -0.000303   0.010736  -0.071401  -0.025131   0.001418   0.000005
    41  H    0.000062  -0.015412  -0.033951   0.008707  -0.000005   0.000016
    42  H   -0.000136  -0.001424  -0.005598   0.000595   0.003539   0.000028
    43  H    0.000012  -0.000123  -0.000026   0.000200  -0.000096   0.000001
    44  H   -0.000092  -0.000395  -0.002300   0.000000   0.000050  -0.000001
               7          8          9         10         11         12
     1  C   -0.068033  -0.000437  -0.000623   0.138116   0.002190   0.189776
     2  C    0.473740   0.006971  -0.002304  -0.021926  -0.003638  -0.009411
     3  C   -0.069524  -0.043372  -0.032961   0.011100   0.018133  -0.036784
     4  C    0.000212   0.389672   0.386296  -0.163853  -0.155407   0.026346
     5  C   -0.003233  -0.014323  -0.010546   0.388233   0.734989  -0.014769
     6  H   -0.008209   0.000148  -0.000136  -0.033922   0.000015  -0.058782
     7  H    0.491302  -0.000317  -0.000226   0.001267  -0.000677   0.010459
     8  H   -0.000317   0.455144  -0.008533   0.005725   0.006933   0.000454
     9  H   -0.000226  -0.008533   0.455573   0.004077   0.004712  -0.007001
    10  O    0.001267   0.005725   0.004077   8.025109  -0.099738  -0.015759
    11  O   -0.000677   0.006933   0.004712  -0.099738   7.861478  -0.000793
    12  C    0.010459   0.000454  -0.007001  -0.015759  -0.000793   5.214440
    13  C   -0.000362  -0.000120   0.001506  -0.002824   0.000128   0.257020
    14  C   -0.015923  -0.000287  -0.000377   0.005422  -0.000090   0.012748
    15  O    0.004777   0.001257  -0.008761  -0.000139  -0.000229   0.009451
    16  Si  -0.000216   0.001013  -0.000049  -0.000091  -0.000081  -0.000448
    17  C    0.000016   0.000047  -0.000423  -0.000001   0.000000  -0.000683
    18  C    0.000000  -0.002566  -0.001427  -0.000026  -0.000033   0.000125
    19  C    0.000007  -0.000092   0.000179   0.000000   0.000000  -0.000018
    20  H    0.000000   0.000112   0.000008   0.000000   0.000000  -0.000002
    21  H    0.000000  -0.000813   0.000798   0.000001  -0.000002   0.000020
    22  H    0.000002   0.000481  -0.000457  -0.000002  -0.000015  -0.000012
    23  H    0.000000  -0.000001  -0.000003   0.000000   0.000000  -0.000001
    24  H    0.000000  -0.000002  -0.000008   0.000000   0.000000   0.000004
    25  H   -0.000002   0.000001  -0.000005   0.000000   0.000000  -0.000003
    26  H    0.000000   0.000000   0.000024   0.000000   0.000000   0.000012
    27  H    0.000000  -0.000002   0.000017   0.000000   0.000000   0.000133
    28  H   -0.000001   0.000005   0.000333   0.000001   0.000000  -0.000232
    29  H   -0.005051   0.000015   0.000014   0.000067   0.000001  -0.004737
    30  H    0.005754  -0.000001   0.000040  -0.000003   0.000001   0.007119
    31  H   -0.007041  -0.000030   0.000030  -0.000253   0.000001  -0.000374
    32  H   -0.000378  -0.000003   0.000634   0.004280   0.000008   0.427595
    33  H   -0.000516   0.000806  -0.007382  -0.003016   0.000049   0.408565
    34  H    0.000020  -0.000001  -0.000001   0.000192  -0.000002  -0.053736
    35  H   -0.000020   0.000004  -0.000097  -0.000384  -0.000003  -0.042975
    36  H   -0.000026  -0.000018   0.000478   0.005359  -0.000069  -0.036170
    37  C   -0.010119   0.007298   0.002695   0.002668  -0.001480   0.001384
    38  C    0.004172  -0.009401   0.000942  -0.000733  -0.004743   0.000083
    39  C   -0.000762  -0.000138  -0.000006   0.000074   0.000011  -0.000004
    40  H    0.000342   0.001124  -0.000032  -0.000023  -0.000001   0.000001
    41  H    0.000368   0.000230  -0.000199  -0.000047   0.000004  -0.000111
    42  H    0.000112  -0.000472   0.000790  -0.000555   0.008117   0.000003
    43  H    0.000019  -0.000014  -0.000003   0.000005  -0.000032  -0.000001
    44  H    0.000306  -0.000013   0.000007  -0.000006   0.000004   0.000003
              13         14         15         16         17         18
     1  C   -0.051276  -0.045208  -0.015074   0.001768   0.000308  -0.000063
     2  C    0.010355   0.190011  -0.064965   0.005466  -0.000652  -0.001101
     3  C   -0.000559  -0.031583   0.144310  -0.079941   0.001200   0.021422
     4  C   -0.002010   0.002581  -0.031111   0.005567   0.000735  -0.004653
     5  C    0.000620  -0.000021  -0.002890  -0.001331   0.000045  -0.000646
     6  H   -0.010264  -0.010078  -0.000544   0.000038   0.000001  -0.000002
     7  H   -0.000362  -0.015923   0.004777  -0.000216   0.000016   0.000000
     8  H   -0.000120  -0.000287   0.001257   0.001013   0.000047  -0.002566
     9  H    0.001506  -0.000377  -0.008761  -0.000049  -0.000423  -0.001427
    10  O   -0.002824   0.005422  -0.000139  -0.000091  -0.000001  -0.000026
    11  O    0.000128  -0.000090  -0.000229  -0.000081   0.000000  -0.000033
    12  C    0.257020   0.012748   0.009451  -0.000448  -0.000683   0.000125
    13  C    5.043440  -0.000555   0.000915   0.000032  -0.000019   0.000005
    14  C   -0.000555   5.129412   0.002691  -0.001184   0.000223   0.000106
    15  O    0.000915   0.002691   8.085953   0.387566  -0.021162  -0.030257
    16  Si   0.000032  -0.001184   0.387566  12.443196   0.392603   0.332497
    17  C   -0.000019   0.000223  -0.021162   0.392603   5.109667  -0.043581
    18  C    0.000005   0.000106  -0.030257   0.332497  -0.043581   5.182281
    19  C    0.000002  -0.001070  -0.020737   0.349820  -0.046276  -0.051811
    20  H    0.000000  -0.000003   0.001245  -0.022309   0.000130   0.382490
    21  H   -0.000003  -0.000011   0.000364  -0.037382   0.000766   0.392833
    22  H    0.000000   0.000006   0.000383  -0.038322   0.003070   0.393315
    23  H    0.000000   0.000030   0.001138  -0.031243   0.001761   0.002732
    24  H    0.000000   0.000106   0.001371  -0.033814   0.002600   0.001175
    25  H    0.000000  -0.000011  -0.000525  -0.039388   0.001629   0.003522
    26  H    0.000001  -0.000009   0.001253  -0.043183   0.394786   0.002147
    27  H   -0.000005   0.000001   0.000605  -0.033222   0.389864   0.003206
    28  H    0.000014  -0.000005   0.000594  -0.032452   0.388909   0.000897
    29  H   -0.000104   0.424835   0.001220   0.000194  -0.000007   0.000005
    30  H    0.000297   0.425027   0.004945  -0.001456  -0.000145   0.000063
    31  H    0.000042   0.409726  -0.003023  -0.001132   0.000014  -0.000010
    32  H   -0.029868  -0.005682  -0.001024  -0.000029  -0.000015  -0.000005
    33  H   -0.042590  -0.001475   0.000743  -0.000367  -0.000321  -0.000255
    34  H    0.425377   0.000050   0.000007  -0.000001   0.000001   0.000000
    35  H    0.410511  -0.000140  -0.000020  -0.000005   0.000000   0.000000
    36  H    0.419400  -0.000081   0.000001   0.000009  -0.000002   0.000001
    37  C    0.000017  -0.003605  -0.059883   0.011113  -0.000998  -0.014507
    38  C    0.000003  -0.002523   0.006270   0.000364  -0.000026   0.000471
    39  C    0.000000   0.000858  -0.000424  -0.000099   0.000000  -0.000039
    40  H    0.000000   0.000138  -0.003895   0.009558   0.000178  -0.000691
    41  H   -0.000002  -0.000358   0.002073  -0.004261   0.000143   0.000915
    42  H   -0.000002  -0.000385  -0.000118   0.000192  -0.000001   0.000025
    43  H    0.000000   0.000015   0.000008   0.000001   0.000000   0.000000
    44  H    0.000000  -0.000099  -0.000025   0.000046   0.000000  -0.000001
              19         20         21         22         23         24
     1  C   -0.000108   0.000000  -0.000018   0.000024   0.000002  -0.000017
     2  C    0.000726   0.000022  -0.000017   0.000059  -0.000039   0.000042
     3  C   -0.002582  -0.000958  -0.000796   0.004334   0.000161  -0.003682
     4  C   -0.000453   0.000272  -0.000198  -0.001432  -0.000001   0.000337
     5  C   -0.000001  -0.000008   0.000228  -0.000056   0.000000   0.000000
     6  H   -0.000002   0.000000   0.000000   0.000000   0.000000   0.000000
     7  H    0.000007   0.000000   0.000000   0.000002   0.000000   0.000000
     8  H   -0.000092   0.000112  -0.000813   0.000481  -0.000001  -0.000002
     9  H    0.000179   0.000008   0.000798  -0.000457  -0.000003  -0.000008
    10  O    0.000000   0.000000   0.000001  -0.000002   0.000000   0.000000
    11  O    0.000000   0.000000  -0.000002  -0.000015   0.000000   0.000000
    12  C   -0.000018  -0.000002   0.000020  -0.000012  -0.000001   0.000004
    13  C    0.000002   0.000000  -0.000003   0.000000   0.000000   0.000000
    14  C   -0.001070  -0.000003  -0.000011   0.000006   0.000030   0.000106
    15  O   -0.020737   0.001245   0.000364   0.000383   0.001138   0.001371
    16  Si   0.349820  -0.022309  -0.037382  -0.038322  -0.031243  -0.033814
    17  C   -0.046276   0.000130   0.000766   0.003070   0.001761   0.002600
    18  C   -0.051811   0.382490   0.392833   0.393315   0.002732   0.001175
    19  C    5.152579   0.001141   0.003393   0.001816   0.384931   0.391657
    20  H    0.001141   0.497394  -0.016029  -0.015265   0.000143   0.000123
    21  H    0.003393  -0.016029   0.508976  -0.019377  -0.000188  -0.000158
    22  H    0.001816  -0.015265  -0.019377   0.508474   0.000187   0.000448
    23  H    0.384931   0.000143  -0.000188   0.000187   0.510899  -0.018227
    24  H    0.391657   0.000123  -0.000158   0.000448  -0.018227   0.512944
    25  H    0.393798  -0.000118  -0.000094  -0.000213  -0.015885  -0.018761
    26  H    0.002563   0.000190   0.000281  -0.000172   0.000003  -0.000132
    27  H    0.000637  -0.000136  -0.000186  -0.000092   0.000287  -0.000134
    28  H    0.003208   0.000241   0.000861  -0.000146  -0.000143  -0.000097
    29  H   -0.000012   0.000000   0.000000   0.000000   0.000000   0.000001
    30  H    0.000276  -0.000002   0.000000  -0.000005  -0.000006  -0.000019
    31  H    0.000143   0.000000   0.000000  -0.000003  -0.000012  -0.000011
    32  H   -0.000006   0.000000  -0.000003   0.000000   0.000000   0.000000
    33  H    0.000068   0.000003   0.000108   0.000016  -0.000002  -0.000003
    34  H    0.000000   0.000000   0.000000   0.000000   0.000000   0.000000
    35  H    0.000000   0.000000   0.000000   0.000000   0.000000   0.000000
    36  H    0.000000   0.000000  -0.000001   0.000000   0.000000   0.000000
    37  C    0.004653   0.000474   0.000754  -0.005091  -0.000299   0.003553
    38  C    0.000742  -0.000016   0.000008  -0.000065  -0.000004   0.000599
    39  C    0.000086   0.000000   0.000003  -0.000010  -0.000002   0.000093
    40  H   -0.005381   0.000054  -0.000261   0.003774   0.000074   0.000894
    41  H   -0.004157  -0.000020  -0.000045   0.000185   0.000323  -0.003193
    42  H   -0.000039   0.000000  -0.000010   0.000028   0.000001  -0.000002
    43  H    0.000001   0.000000   0.000000   0.000000   0.000000   0.000000
    44  H    0.000004   0.000000   0.000000  -0.000001   0.000000   0.000017
              25         26         27         28         29         30
     1  C    0.000007  -0.000008  -0.000063   0.000023   0.005208  -0.024682
     2  C   -0.000139   0.000002   0.000076   0.000117  -0.058354  -0.016897
     3  C    0.002980   0.000000  -0.000206   0.000845   0.012583  -0.023298
     4  C   -0.000031  -0.000040  -0.000027  -0.000617  -0.000892   0.000782
     5  C   -0.000002   0.000000   0.000000   0.000014   0.000197  -0.000253
     6  H    0.000000   0.000000   0.000000   0.000001   0.001793   0.000673
     7  H   -0.000002   0.000000   0.000000  -0.000001  -0.005051   0.005754
     8  H    0.000001   0.000000  -0.000002   0.000005   0.000015  -0.000001
     9  H   -0.000005   0.000024   0.000017   0.000333   0.000014   0.000040
    10  O    0.000000   0.000000   0.000000   0.000001   0.000067  -0.000003
    11  O    0.000000   0.000000   0.000000   0.000000   0.000001   0.000001
    12  C   -0.000003   0.000012   0.000133  -0.000232  -0.004737   0.007119
    13  C    0.000000   0.000001  -0.000005   0.000014  -0.000104   0.000297
    14  C   -0.000011  -0.000009   0.000001  -0.000005   0.424835   0.425027
    15  O   -0.000525   0.001253   0.000605   0.000594   0.001220   0.004945
    16  Si  -0.039388  -0.043183  -0.033222  -0.032452   0.000194  -0.001456
    17  C    0.001629   0.394786   0.389864   0.388909  -0.000007  -0.000145
    18  C    0.003522   0.002147   0.003206   0.000897   0.000005   0.000063
    19  C    0.393798   0.002563   0.000637   0.003208  -0.000012   0.000276
    20  H   -0.000118   0.000190  -0.000136   0.000241   0.000000  -0.000002
    21  H   -0.000094   0.000281  -0.000186   0.000861   0.000000   0.000000
    22  H   -0.000213  -0.000172  -0.000092  -0.000146   0.000000  -0.000005
    23  H   -0.015885   0.000003   0.000287  -0.000143   0.000000  -0.000006
    24  H   -0.018761  -0.000132  -0.000134  -0.000097   0.000001  -0.000019
    25  H    0.509590   0.000246   0.000874  -0.000184   0.000007   0.000121
    26  H    0.000246   0.522728  -0.017872  -0.018522   0.000000   0.000019
    27  H    0.000874  -0.017872   0.515309  -0.018435   0.000009   0.000466
    28  H   -0.000184  -0.018522  -0.018435   0.518153   0.000001  -0.000004
    29  H    0.000007   0.000000   0.000009   0.000001   0.506633  -0.027171
    30  H    0.000121   0.000019   0.000466  -0.000004  -0.027171   0.509058
    31  H    0.000159   0.000000  -0.000010   0.000000  -0.021016  -0.023665
    32  H   -0.000001  -0.000001   0.000041   0.000041   0.000546  -0.004930
    33  H   -0.000001   0.000013  -0.000072   0.000570   0.000097   0.000040
    34  H    0.000000   0.000000   0.000000   0.000008  -0.000002   0.000012
    35  H    0.000000   0.000000   0.000000   0.000000   0.000031   0.000039
    36  H    0.000000   0.000000   0.000000   0.000001   0.000002  -0.000023
    37  C   -0.002695   0.000026   0.000190   0.000059  -0.000126   0.000986
    38  C   -0.000071  -0.000001   0.000004   0.000002   0.000311   0.000113
    39  C   -0.000001   0.000000   0.000000   0.000000   0.000053  -0.000033
    40  H    0.000111  -0.000002  -0.000013   0.000007   0.000025  -0.000062
    41  H    0.000414  -0.000004  -0.000011  -0.000009   0.000093  -0.000084
    42  H    0.000001   0.000000   0.000000   0.000000   0.000019   0.000007
    43  H    0.000000   0.000000   0.000000   0.000000  -0.000002   0.000000
    44  H   -0.000001   0.000000   0.000000   0.000000   0.000016   0.000010
              31         32         33         34         35         36
     1  C    0.013436  -0.051275  -0.035301   0.013316  -0.001651  -0.011885
     2  C   -0.048066  -0.002810   0.003329  -0.000807   0.001900  -0.001706
     3  C    0.008206   0.001253  -0.002851  -0.000037  -0.000206   0.000657
     4  C    0.000490  -0.003000   0.013396   0.000127   0.000514  -0.001965
     5  C   -0.000064   0.001743  -0.005735  -0.000099  -0.000498   0.002495
     6  H   -0.000208   0.001275   0.004925  -0.000120   0.001358   0.001361
     7  H   -0.007041  -0.000378  -0.000516   0.000020  -0.000020  -0.000026
     8  H   -0.000030  -0.000003   0.000806  -0.000001   0.000004  -0.000018
     9  H    0.000030   0.000634  -0.007382  -0.000001  -0.000097   0.000478
    10  O   -0.000253   0.004280  -0.003016   0.000192  -0.000384   0.005359
    11  O    0.000001   0.000008   0.000049  -0.000002  -0.000003  -0.000069
    12  C   -0.000374   0.427595   0.408565  -0.053736  -0.042975  -0.036170
    13  C    0.000042  -0.029868  -0.042590   0.425377   0.410511   0.419400
    14  C    0.409726  -0.005682  -0.001475   0.000050  -0.000140  -0.000081
    15  O   -0.003023  -0.001024   0.000743   0.000007  -0.000020   0.000001
    16  Si  -0.001132  -0.000029  -0.000367  -0.000001  -0.000005   0.000009
    17  C    0.000014  -0.000015  -0.000321   0.000001   0.000000  -0.000002
    18  C   -0.000010  -0.000005  -0.000255   0.000000   0.000000   0.000001
    19  C    0.000143  -0.000006   0.000068   0.000000   0.000000   0.000000
    20  H    0.000000   0.000000   0.000003   0.000000   0.000000   0.000000
    21  H    0.000000  -0.000003   0.000108   0.000000   0.000000  -0.000001
    22  H   -0.000003   0.000000   0.000016   0.000000   0.000000   0.000000
    23  H   -0.000012   0.000000  -0.000002   0.000000   0.000000   0.000000
    24  H   -0.000011   0.000000  -0.000003   0.000000   0.000000   0.000000
    25  H    0.000159  -0.000001  -0.000001   0.000000   0.000000   0.000000
    26  H    0.000000  -0.000001   0.000013   0.000000   0.000000   0.000000
    27  H   -0.000010   0.000041  -0.000072   0.000000   0.000000   0.000000
    28  H    0.000000   0.000041   0.000570   0.000008   0.000000   0.000001
    29  H   -0.021016   0.000546   0.000097  -0.000002   0.000031   0.000002
    30  H   -0.023665  -0.004930   0.000040   0.000012   0.000039  -0.000023
    31  H    0.519190   0.000406  -0.000068  -0.000001  -0.000002   0.000002
    32  H    0.000406   0.529788  -0.023182  -0.005145  -0.004397   0.006460
    33  H   -0.000068  -0.023182   0.540552  -0.004181   0.007169  -0.003824
    34  H   -0.000001  -0.005145  -0.004181   0.522863  -0.024149  -0.024390
    35  H   -0.000002  -0.004397   0.007169  -0.024149   0.536017  -0.026338
    36  H    0.000002   0.006460  -0.003824  -0.024390  -0.026338   0.516620
    37  C   -0.002188  -0.000198   0.000732  -0.000001   0.000004  -0.000012
    38  C   -0.000951   0.000009  -0.000084   0.000000   0.000000   0.000001
    39  C    0.000514  -0.000001  -0.000002   0.000000   0.000000   0.000000
    40  H    0.000071   0.000005  -0.000019   0.000000   0.000000   0.000000
    41  H   -0.000133   0.000002  -0.000006   0.000000   0.000000   0.000000
    42  H    0.000004   0.000003  -0.000010   0.000000   0.000000   0.000001
    43  H   -0.000014   0.000000   0.000000   0.000000   0.000000   0.000000
    44  H    0.000040   0.000000   0.000000   0.000000   0.000000   0.000000
              37         38         39         40         41         42
     1  C   -0.005919   0.004081   0.000615  -0.000303   0.000062  -0.000136
     2  C   -0.008091  -0.025529  -0.005412   0.010736  -0.015412  -0.001424
     3  C    0.137526  -0.016593  -0.002868  -0.071401  -0.033951  -0.005598
     4  C   -0.034685  -0.003677  -0.002464  -0.025131   0.008707   0.000595
     5  C   -0.005644   0.005739   0.001300   0.001418  -0.000005   0.003539
     6  H   -0.000373   0.000074   0.000022   0.000005   0.000016   0.000028
     7  H   -0.010119   0.004172  -0.000762   0.000342   0.000368   0.000112
     8  H    0.007298  -0.009401  -0.000138   0.001124   0.000230  -0.000472
     9  H    0.002695   0.000942  -0.000006  -0.000032  -0.000199   0.000790
    10  O    0.002668  -0.000733   0.000074  -0.000023  -0.000047  -0.000555
    11  O   -0.001480  -0.004743   0.000011  -0.000001   0.000004   0.008117
    12  C    0.001384   0.000083  -0.000004   0.000001  -0.000111   0.000003
    13  C    0.000017   0.000003   0.000000   0.000000  -0.000002  -0.000002
    14  C   -0.003605  -0.002523   0.000858   0.000138  -0.000358  -0.000385
    15  O   -0.059883   0.006270  -0.000424  -0.003895   0.002073  -0.000118
    16  Si   0.011113   0.000364  -0.000099   0.009558  -0.004261   0.000192
    17  C   -0.000998  -0.000026   0.000000   0.000178   0.000143  -0.000001
    18  C   -0.014507   0.000471  -0.000039  -0.000691   0.000915   0.000025
    19  C    0.004653   0.000742   0.000086  -0.005381  -0.004157  -0.000039
    20  H    0.000474  -0.000016   0.000000   0.000054  -0.000020   0.000000
    21  H    0.000754   0.000008   0.000003  -0.000261  -0.000045  -0.000010
    22  H   -0.005091  -0.000065  -0.000010   0.003774   0.000185   0.000028
    23  H   -0.000299  -0.000004  -0.000002   0.000074   0.000323   0.000001
    24  H    0.003553   0.000599   0.000093   0.000894  -0.003193  -0.000002
    25  H   -0.002695  -0.000071  -0.000001   0.000111   0.000414   0.000001
    26  H    0.000026  -0.000001   0.000000  -0.000002  -0.000004   0.000000
    27  H    0.000190   0.000004   0.000000  -0.000013  -0.000011   0.000000
    28  H    0.000059   0.000002   0.000000   0.000007  -0.000009   0.000000
    29  H   -0.000126   0.000311   0.000053   0.000025   0.000093   0.000019
    30  H    0.000986   0.000113  -0.000033  -0.000062  -0.000084   0.000007
    31  H   -0.002188  -0.000951   0.000514   0.000071  -0.000133   0.000004
    32  H   -0.000198   0.000009  -0.000001   0.000005   0.000002   0.000003
    33  H    0.000732  -0.000084  -0.000002  -0.000019  -0.000006  -0.000010
    34  H   -0.000001   0.000000   0.000000   0.000000   0.000000   0.000000
    35  H    0.000004   0.000000   0.000000   0.000000   0.000000   0.000000
    36  H   -0.000012   0.000001   0.000000   0.000000   0.000000   0.000001
    37  C    5.387184   0.213270  -0.041507   0.452331   0.437824  -0.042209
    38  C    0.213270   5.203248   0.537847  -0.032923  -0.038961   0.407890
    39  C   -0.041507   0.537847   4.997008  -0.004036   0.000450  -0.021300
    40  H    0.452331  -0.032923  -0.004036   0.490849  -0.017977  -0.000125
    41  H    0.437824  -0.038961   0.000450  -0.017977   0.464897   0.001990
    42  H   -0.042209   0.407890  -0.021300  -0.000125   0.001990   0.480728
    43  H    0.006481  -0.050164   0.424627  -0.000301   0.000264  -0.006439
    44  H    0.007618  -0.066986   0.432036   0.000531  -0.001024   0.004122
              43         44
     1  C    0.000012  -0.000092
     2  C   -0.000123  -0.000395
     3  C   -0.000026  -0.002300
     4  C    0.000200   0.000000
     5  C   -0.000096   0.000050
     6  H    0.000001  -0.000001
     7  H    0.000019   0.000306
     8  H   -0.000014  -0.000013
     9  H   -0.000003   0.000007
    10  O    0.000005  -0.000006
    11  O   -0.000032   0.000004
    12  C   -0.000001   0.000003
    13  C    0.000000   0.000000
    14  C    0.000015  -0.000099
    15  O    0.000008  -0.000025
    16  Si   0.000001   0.000046
    17  C    0.000000   0.000000
    18  C    0.000000  -0.000001
    19  C    0.000001   0.000004
    20  H    0.000000   0.000000
    21  H    0.000000   0.000000
    22  H    0.000000  -0.000001
    23  H    0.000000   0.000000
    24  H    0.000000   0.000017
    25  H    0.000000  -0.000001
    26  H    0.000000   0.000000
    27  H    0.000000   0.000000
    28  H    0.000000   0.000000
    29  H   -0.000002   0.000016
    30  H    0.000000   0.000010
    31  H   -0.000014   0.000040
    32  H    0.000000   0.000000
    33  H    0.000000   0.000000
    34  H    0.000000   0.000000
    35  H    0.000000   0.000000
    36  H    0.000000   0.000000
    37  C    0.006481   0.007618
    38  C   -0.050164  -0.066986
    39  C    0.424627   0.432036
    40  H   -0.000301   0.000531
    41  H    0.000264  -0.001024
    42  H   -0.006439   0.004122
    43  H    0.497930  -0.023307
    44  H   -0.023307   0.505979
 Mulliken charges:
               1
     1  C   -0.015735
     2  C   -0.142487
     3  C    0.251596
     4  C   -0.472534
     5  C    0.347386
     6  H    0.185892
     7  H    0.197760
     8  H    0.203515
     9  H    0.222410
    10  O   -0.248398
    11  O   -0.369742
    12  C   -0.282939
    13  C   -0.429122
    14  C   -0.483220
    15  O   -0.394336
    16  Si   0.460962
    17  C   -0.574386
    18  C   -0.568559
    19  C   -0.559681
    20  H    0.170826
    21  H    0.166195
    22  H    0.164133
    23  H    0.163383
    24  H    0.162295
    25  H    0.164671
    26  H    0.155653
    27  H    0.158766
    28  H    0.155943
    29  H    0.163498
    30  H    0.166890
    31  H    0.155803
    32  H    0.157860
    33  H    0.150084
    34  H    0.150700
    35  H    0.143339
    36  H    0.153663
    37  C   -0.439209
    38  C   -0.132795
    39  C   -0.316491
    40  H    0.190351
    41  H    0.201008
    42  H    0.170629
    43  H    0.150958
    44  H    0.143463
 Sum of Mulliken charges =   0.00000
 Mulliken charges with hydrogens summed into heavy atoms:
               1
     1  C    0.170157
     2  C    0.055273
     3  C    0.251596
     4  C   -0.046609
     5  C    0.347386
    10  O   -0.248398
    11  O   -0.369742
    12  C    0.025006
    13  C    0.018580
    14  C    0.002971
    15  O   -0.394336
    16  Si   0.460962
    17  C   -0.104025
    18  C   -0.067405
    19  C   -0.069333
    37  C   -0.047850
    38  C    0.037835
    39  C   -0.022070
 Electronic spatial extent (au):  <R**2>=           5295.5626
 Charge=              0.0000 electrons
 Dipole moment (field-independent basis, Debye):
    X=             -4.5890    Y=             -1.2023    Z=             -3.4329  Tot=              5.8557
 Quadrupole moment (field-independent basis, Debye-Ang):
   XX=           -131.3380   YY=           -116.9118   ZZ=           -123.9012
   XY=             -4.3577   XZ=            -14.5369   YZ=             -4.5989
 Traceless Quadrupole moment (field-independent basis, Debye-Ang):
   XX=             -7.2877   YY=              7.1386   ZZ=              0.1491
   XY=             -4.3577   XZ=            -14.5369   YZ=             -4.5989
 Octapole moment (field-independent basis, Debye-Ang**2):
  XXX=            -60.0637  YYY=             -0.1223  ZZZ=            -24.9249  XYY=             16.0275
  XXY=            -20.2631  XXZ=            -34.3426  XZZ=            -17.3193  YZZ=             -9.8297
  YYZ=             -6.2939  XYZ=             -7.3394
 Hexadecapole moment (field-independent basis, Debye-Ang**3):
 XXXX=          -3736.3975 YYYY=          -2382.4449 ZZZZ=          -1283.6966 XXXY=             -6.9925
 XXXZ=           -141.6465 YYYX=             36.7830 YYYZ=            -26.6793 ZZZX=            -43.6093
 ZZZY=            -24.4846 XXYY=          -1016.7291 XXZZ=           -880.3989 YYZZ=           -592.3034
 XXYZ=            -20.4332 YYXZ=             -8.6112 ZZXY=            -31.3825
 N-N= 1.636130827545D+03 E-N=-5.765424739420D+03  KE= 1.059305451924D+03
 1\1\GINC-CPU-E-273\SP\RM062X\def2TZVP\C14H26O3Si1\KE291\26-Jun-2019\0\
 \# m062x/def2tzvp int=ultrafine scrf=(solvent=chloroform)\\IP1_4ginp00
 5\\0,1\C,0,2.147592,-0.780463,-0.77427\C,0,1.077047,0.23672,-1.205897\
 C,0,0.007613,0.495631,-0.105344\C,0,0.641743,0.276236,1.301666\C,0,2.1
 5302,0.353754,1.380144\H,0,2.934313,-0.77754,-1.536723\H,0,1.629295,1.
 179005,-1.307854\H,0,0.238779,0.963913,2.047221\H,0,0.375305,-0.734701
 ,1.62489\O,0,2.850325,-0.258052,0.399824\O,0,2.752123,0.883852,2.29365
 4\C,0,1.713689,-2.233986,-0.559382\C,0,2.875767,-3.154548,-0.171861\C,
 0,0.48296,-0.09959,-2.577967\O,0,-1.048424,-0.446469,-0.282155\Si,0,-2
 .638611,-0.582653,0.256935\C,0,-3.064773,-2.383122,-0.082875\C,0,-2.81
 0167,-0.211187,2.100974\C,0,-3.797027,0.537031,-0.726672\H,0,-3.847289
 ,-0.384478,2.411743\H,0,-2.171645,-0.860814,2.708678\H,0,-2.567015,0.8
 27317,2.348631\H,0,-4.839088,0.313052,-0.469483\H,0,-3.628649,1.599197
 ,-0.524314\H,0,-3.680431,0.376937,-1.803855\H,0,-4.102692,-2.598035,0.
 194751\H,0,-2.946925,-2.62216,-1.144951\H,0,-2.418076,-3.058864,0.4863
 43\H,0,1.282754,-0.228616,-3.314816\H,0,-0.114463,-1.012083,-2.547432\
 H,0,-0.162474,0.708569,-2.933143\H,0,1.270818,-2.580436,-1.500025\H,0,
 0.916026,-2.293849,0.186111\H,0,2.530926,-4.187144,-0.062673\H,0,3.661
 23,-3.143222,-0.935893\H,0,3.328195,-2.846331,0.774639\C,0,-0.54747,1.
 943703,-0.224122\C,0,0.461648,3.039979,-0.010797\C,0,0.7397,3.998681,-
 0.896319\H,0,-1.339591,2.045412,0.530239\H,0,-1.022533,2.059177,-1.203
 717\H,0,0.982019,3.044772,0.94703\H,0,1.466136,4.776996,-0.682661\H,0,
 0.245395,4.043382,-1.86408\\Version=ES64L-G09RevD.01\State=1-A\HF=-106
 4.338394\RMSD=1.265e-09\Dipole=-1.8054574,-0.4730038,-1.3506186\Quadru
 pole=-5.4182123,5.3073429,0.1108694,-3.2398151,-10.8078608,-3.4191798\
 PG=C01 [X(C14H26O3Si1)]\\@


 Cherishing children is the mark of a civilized society.
 -- Joan Ganz Cooney
 Job cpu time:       0 days  2 hours 30 minutes 23.9 seconds.
 File lengths (MBytes):  RWF=    410 Int=      0 D2E=      0 Chk=     21 Scr=      1
 Normal termination of Gaussian 09 at Wed Jun 26 13:49:14 2019.
