 Entering Gaussian System, Link 0=/usr/local/Cluster-Apps/gaussian/g09/g09
 Initial command:
 /usr/local/Cluster-Apps/gaussian/g09/l1.exe "/home/ke291/rds/hpc-work/26Jun1304IP1NMR/Gau-297390.inp" -scrdir="/home/ke291/rds/hpc-work/26Jun1304IP1NMR/"
 Entering Link 1 = /usr/local/Cluster-Apps/gaussian/g09/l1.exe PID=    297395.
  
 Copyright (c) 1988,1990,1992,1993,1995,1998,2003,2009,2013,
            Gaussian, Inc.  All Rights Reserved.
  
 This is part of the Gaussian(R) 09 program.  It is based on
 the Gaussian(R) 03 system (copyright 2003, Gaussian, Inc.),
 the Gaussian(R) 98 system (copyright 1998, Gaussian, Inc.),
 the Gaussian(R) 94 system (copyright 1995, Gaussian, Inc.),
 the Gaussian 92(TM) system (copyright 1992, Gaussian, Inc.),
 the Gaussian 90(TM) system (copyright 1990, Gaussian, Inc.),
 the Gaussian 88(TM) system (copyright 1988, Gaussian, Inc.),
 the Gaussian 86(TM) system (copyright 1986, Carnegie Mellon
 University), and the Gaussian 82(TM) system (copyright 1983,
 Carnegie Mellon University). Gaussian is a federally registered
 trademark of Gaussian, Inc.
  
 This software contains proprietary and confidential information,
 including trade secrets, belonging to Gaussian, Inc.
  
 This software is provided under written license and may be
 used, copied, transmitted, or stored only in accord with that
 written license.
  
 The following legend is applicable only to US Government
 contracts under FAR:
  
                    RESTRICTED RIGHTS LEGEND
  
 Use, reproduction and disclosure by the US Government is
 subject to restrictions as set forth in subparagraphs (a)
 and (c) of the Commercial Computer Software - Restricted
 Rights clause in FAR 52.227-19.
  
 Gaussian, Inc.
 340 Quinnipiac St., Bldg. 40, Wallingford CT 06492
  
  
 ---------------------------------------------------------------
 Warning -- This program may not be used in any manner that
 competes with the business of Gaussian, Inc. or will provide
 assistance to any competitor of Gaussian, Inc.  The licensee
 of this program is prohibited from giving any competitor of
 Gaussian, Inc. access to this program.  By using this program,
 the user acknowledges that Gaussian, Inc. is engaged in the
 business of creating and licensing software in the field of
 computational chemistry and represents and warrants to the
 licensee that it is not a competitor of Gaussian, Inc. and that
 it will not use this program in any manner prohibited above.
 ---------------------------------------------------------------
  

 Cite this work as:
 Gaussian 09, Revision D.01,
 M. J. Frisch, G. W. Trucks, H. B. Schlegel, G. E. Scuseria, 
 M. A. Robb, J. R. Cheeseman, G. Scalmani, V. Barone, B. Mennucci, 
 G. A. Petersson, H. Nakatsuji, M. Caricato, X. Li, H. P. Hratchian, 
 A. F. Izmaylov, J. Bloino, G. Zheng, J. L. Sonnenberg, M. Hada, 
 M. Ehara, K. Toyota, R. Fukuda, J. Hasegawa, M. Ishida, T. Nakajima, 
 Y. Honda, O. Kitao, H. Nakai, T. Vreven, J. A. Montgomery, Jr., 
 J. E. Peralta, F. Ogliaro, M. Bearpark, J. J. Heyd, E. Brothers, 
 K. N. Kudin, V. N. Staroverov, T. Keith, R. Kobayashi, J. Normand, 
 K. Raghavachari, A. Rendell, J. C. Burant, S. S. Iyengar, J. Tomasi, 
 M. Cossi, N. Rega, J. M. Millam, M. Klene, J. E. Knox, J. B. Cross, 
 V. Bakken, C. Adamo, J. Jaramillo, R. Gomperts, R. E. Stratmann, 
 O. Yazyev, A. J. Austin, R. Cammi, C. Pomelli, J. W. Ochterski, 
 R. L. Martin, K. Morokuma, V. G. Zakrzewski, G. A. Voth, 
 P. Salvador, J. J. Dannenberg, S. Dapprich, A. D. Daniels, 
 O. Farkas, J. B. Foresman, J. V. Ortiz, J. Cioslowski, 
 and D. J. Fox, Gaussian, Inc., Wallingford CT, 2013.
 
 ******************************************
 Gaussian 09:  ES64L-G09RevD.01 24-Apr-2013
                26-Jun-2019 
 ******************************************
 %nprocshared=4
 Will use up to    4 processors via shared memory.
 %mem=6000MB
 %chk=IP1_2ginp001.chk
 --------------------------------------------------------
 # m062x/def2tzvp int=ultrafine scrf=(solvent=chloroform)
 --------------------------------------------------------
 1/38=1/1;
 2/12=2,17=6,18=5,40=1/2;
 3/5=44,7=101,11=2,16=1,25=1,30=1,70=2201,72=7,74=-55,75=-5/1,2,3;
 4//1;
 5/5=2,38=5,53=7/2;
 6/7=2,8=2,9=2,10=2,28=1/1;
 99/5=1,9=1/99;
 ------------
 IP1_2ginp001
 ------------
 Symbolic Z-matrix:
 Charge =  0 Multiplicity = 1
 C                    -2.31423  -0.55239  -0.36899 
 C                    -0.84113  -0.9352   -0.59074 
 C                     0.09798   0.28973  -0.3985 
 C                    -0.13057   0.81113   1.02708 
 C                    -1.58144   1.07148   1.38113 
 H                    -2.67516  -0.00001  -1.24629 
 H                    -0.55858  -1.64896   0.19495 
 H                     0.2234    0.06595   1.7498 
 H                     0.42006   1.73466   1.21356 
 O                    -2.53697   0.3512    0.75942 
 O                    -1.91394   1.8605    2.24075 
 C                    -3.2341   -1.75156  -0.12607 
 C                    -4.71411  -1.37809   0.00068 
 C                    -0.66054  -1.63093  -1.94897 
 O                     1.44951  -0.11515  -0.59704 
 Si                    2.67671  -0.7868    0.33862 
 C                     3.37921   0.47994   1.5473 
 C                     2.11024  -2.32568   1.27645 
 C                     3.98404  -1.25865  -0.92875 
 H                     2.96603  -2.77145   1.7972 
 H                     1.34838  -2.11192   2.03341 
 H                     1.70704  -3.08395   0.59689 
 H                     4.86437  -1.69044  -0.43974 
 H                     3.59804  -1.99812  -1.63808 
 H                     4.3142   -0.38558  -1.50115 
 H                     3.6764    1.3963    1.02638 
 H                     2.66716   0.75628   2.33114 
 H                     4.27056   0.07468   2.04051 
 H                     0.40274  -1.74097  -2.17094 
 H                    -1.1087   -2.62745  -1.94666 
 H                    -1.1209   -1.06271  -2.76384 
 H                    -2.89383  -2.26728   0.7807 
 H                    -3.10542  -2.45371  -0.95642 
 H                    -4.87911  -0.69646   0.83855 
 H                    -5.07632  -0.8875   -0.90978 
 H                    -5.32375  -2.27209   0.16254 
 C                    -0.17187   1.40748  -1.44244 
 C                     0.73919   2.59779  -1.31317 
 C                     0.33058   3.84983  -1.10051 
 H                    -1.21419   1.73794  -1.37227 
 H                    -0.03834   0.96315  -2.43601 
 H                     1.80273   2.39063  -1.41459 
 H                     1.03402   4.67439  -1.0293 
 H                    -0.72303   4.0982   -0.99344 
 
                          Input orientation:                          
 ---------------------------------------------------------------------
 Center     Atomic      Atomic             Coordinates (Angstroms)
 Number     Number       Type             X           Y           Z
 ---------------------------------------------------------------------
      1          6           0       -2.314229   -0.552391   -0.368994
      2          6           0       -0.841134   -0.935202   -0.590736
      3          6           0        0.097984    0.289727   -0.398498
      4          6           0       -0.130569    0.811133    1.027083
      5          6           0       -1.581442    1.071482    1.381133
      6          1           0       -2.675157   -0.000006   -1.246288
      7          1           0       -0.558583   -1.648957    0.194945
      8          1           0        0.223403    0.065953    1.749799
      9          1           0        0.420057    1.734657    1.213559
     10          8           0       -2.536968    0.351195    0.759415
     11          8           0       -1.913943    1.860496    2.240751
     12          6           0       -3.234096   -1.751561   -0.126072
     13          6           0       -4.714114   -1.378085    0.000678
     14          6           0       -0.660535   -1.630928   -1.948965
     15          8           0        1.449513   -0.115148   -0.597035
     16         14           0        2.676705   -0.786802    0.338620
     17          6           0        3.379208    0.479940    1.547302
     18          6           0        2.110237   -2.325682    1.276453
     19          6           0        3.984036   -1.258649   -0.928748
     20          1           0        2.966027   -2.771445    1.797201
     21          1           0        1.348376   -2.111923    2.033411
     22          1           0        1.707039   -3.083946    0.596892
     23          1           0        4.864372   -1.690437   -0.439742
     24          1           0        3.598044   -1.998116   -1.638082
     25          1           0        4.314198   -0.385575   -1.501145
     26          1           0        3.676400    1.396296    1.026383
     27          1           0        2.667159    0.756275    2.331138
     28          1           0        4.270560    0.074681    2.040513
     29          1           0        0.402736   -1.740968   -2.170936
     30          1           0       -1.108702   -2.627453   -1.946660
     31          1           0       -1.120896   -1.062709   -2.763835
     32          1           0       -2.893830   -2.267278    0.780703
     33          1           0       -3.105419   -2.453711   -0.956419
     34          1           0       -4.879111   -0.696461    0.838550
     35          1           0       -5.076323   -0.887496   -0.909776
     36          1           0       -5.323750   -2.272089    0.162544
     37          6           0       -0.171866    1.407477   -1.442436
     38          6           0        0.739194    2.597793   -1.313171
     39          6           0        0.330583    3.849825   -1.100507
     40          1           0       -1.214187    1.737943   -1.372266
     41          1           0       -0.038336    0.963145   -2.436014
     42          1           0        1.802726    2.390631   -1.414586
     43          1           0        1.034022    4.674390   -1.029305
     44          1           0       -0.723032    4.098199   -0.993443
 ---------------------------------------------------------------------
                    Distance matrix (angstroms):
                    1          2          3          4          5
     1  C    0.000000
     2  C    1.538091   0.000000
     3  C    2.555153   1.555426   0.000000
     4  C    2.928583   2.484336   1.535051   0.000000
     5  C    2.497376   2.909141   2.568793   1.515970   0.000000
     6  H    1.097744   2.160551   2.914276   3.507291   3.040993
     7  H    2.145408   1.098442   2.131138   2.632051   3.139119
     8  H    3.363214   2.759285   2.163558   1.096772   2.098683
     9  H    3.900177   3.460380   2.188671   1.091265   2.115155
    10  O    1.462664   2.520630   2.878804   2.464538   1.348472
    11  O    3.576733   4.121185   3.671621   2.398870   1.213278
    12  C    1.530743   2.570724   3.917120   4.186770   3.601736
    13  C    2.564737   3.942828   5.108544   5.182188   4.209474
    14  C    2.528686   1.536697   2.582289   3.886050   4.386416
    15  O    3.795911   2.433021   1.424771   2.447941   3.808927
    16  Si   5.046295   3.641554   2.889993   3.302751   4.761499
    17  C    6.095336   4.938129   3.819522   3.563545   4.998558
    18  C    5.042614   3.759045   3.700674   3.863031   5.017985
    19  C    6.362410   4.847797   4.216638   5.003923   6.460620
    20  H    6.123537   4.854741   4.734716   4.797588   5.968306
    21  H    4.649555   3.614523   3.639448   3.426986   4.375313
    22  H    4.848949   3.538467   3.868014   4.328222   5.356932
    23  H    7.268595   5.757254   5.161512   5.775713   7.245157
    24  H    6.217369   4.683270   4.361332   5.375643   6.735367
    25  H    6.726488   5.263875   4.410025   5.251666   6.722285
    26  H    6.452294   5.334704   4.007473   3.851679   5.279797
    27  H    5.815286   4.868938   3.777465   3.087208   4.364914
    28  H    7.039772   5.837187   4.837914   4.575952   5.972798
    29  H    3.470102   2.166450   2.712588   4.126131   4.946113
    30  H    2.871969   2.184911   3.516082   4.650136   4.997981
    31  H    2.723918   2.194740   2.984890   4.343166   4.684830
    32  H    2.144430   2.805144   4.108496   4.144023   3.637334
    33  H    2.141511   2.750742   4.254353   4.841820   4.495958
    34  H    2.838580   4.290118   5.222483   4.985683   3.780825
    35  H    2.834414   4.247457   5.331108   5.576490   4.615198
    36  H    3.506724   4.737989   6.022696   6.101050   5.164232
    37  C    3.095655   2.580980   1.553058   2.540838   3.173695
    38  C    4.487596   3.937182   2.564166   3.070086   3.869658
    39  C    5.187451   4.952703   3.636099   3.738041   4.187310
    40  H    2.731717   2.809922   2.183425   2.791072   2.856616
    41  H    3.427697   2.766452   2.150243   3.467658   4.118680
    42  H    5.167587   4.327804   2.890048   3.492018   4.583535
    43  H    6.242278   5.930942   4.527621   4.528770   5.062787
    44  H    4.954779   5.050866   3.941127   3.903632   3.941636
                    6          7          8          9         10
     6  H    0.000000
     7  H    3.045665   0.000000
     8  H    4.169237   2.443356   0.000000
     9  H    4.317436   3.666627   1.763746   0.000000
    10  O    2.040902   2.869363   2.946502   3.296090   0.000000
    11  O    4.024967   4.282357   2.833667   2.553138   2.204656
    12  C    2.152961   2.696655   4.333191   5.225051   2.385719
    13  C    2.758871   4.168879   5.433576   6.125353   2.882023
    14  C    2.685584   2.146408   4.164325   4.743037   3.845144
    15  O    4.177043   2.648066   2.654011   2.785643   4.236681
    16  Si   5.636791   3.351275   2.955894   3.495101   5.352989
    17  C    6.685045   4.676245   3.189278   3.231451   5.969797
    18  C    5.888377   2.958076   3.082875   4.398524   5.387904
    19  C    6.784531   4.695787   4.803285   5.123603   6.925676
    20  H    6.983313   4.031139   3.946525   5.208412   6.411773
    21  H    5.604055   2.689012   2.467619   4.041053   4.773459
    22  H    5.666713   2.711789   3.667729   5.025489   5.462436
    23  H    7.768692   5.460127   5.423798   5.849496   7.770848
    24  H    6.595377   4.556254   5.208293   5.671424   6.993256
    25  H    7.004620   5.311954   5.244723   5.198974   7.251995
    26  H    6.888902   5.282039   3.770455   3.279221   6.306302
    27  H    6.473815   4.555642   2.605080   2.693637   5.451361
    28  H    7.684505   5.449557   4.057594   4.273844   6.932540
    29  H    3.655044   2.555385   4.320797   4.851296   4.648221
    30  H    3.138117   2.417966   4.763691   5.599294   4.270261
    31  H    2.418267   3.068267   4.842924   5.100927   4.051873
    32  H    3.049104   2.485722   4.012512   5.213894   2.642765
    33  H    2.507951   2.908546   4.975277   5.888991   3.336873
    34  H    3.112718   4.470843   5.239017   5.842273   2.566998
    35  H    2.581952   4.712771   6.005789   6.449374   3.281597
    36  H    3.763272   4.805846   6.225490   7.081664   3.873503
    37  C    2.878532   3.488890   3.485153   2.740753   3.399645
    38  C    4.290784   4.689725   4.007248   2.689092   4.480631
    39  C    4.886402   5.718865   4.738504   3.136374   4.891070
    40  H    2.273933   3.789071   3.822238   3.058963   2.866511
    41  H    3.048923   3.743752   4.288880   3.758289   4.102245
    42  H    5.078869   4.948196   4.232224   3.041253   5.264838
    43  H    5.971187   6.634749   5.442262   3.748256   5.885703
    44  H    4.546428   5.871040   4.967909   3.429846   4.516958
                   11         12         13         14         15
    11  O    0.000000
    12  C    4.515707   0.000000
    13  C    4.831904   1.531667   0.000000
    14  C    5.595962   3.156059   4.505168   0.000000
    15  O    4.823799   4.983558   6.320013   2.928755   0.000000
    16  Si   5.630305   6.007018   7.422131   4.133130   1.683024
    17  C    5.514005   7.177435   8.446666   5.744490   2.945511
    18  C    5.886254   5.555051   7.006947   4.308501   2.972032
    19  C    7.386538   7.279332   8.748481   4.769851   2.800256
    20  H    6.742827   6.571200   8.009589   5.337274   3.884340
    21  H    5.144495   5.078610   6.436172   4.486245   3.304026
    22  H    6.345178   5.168437   6.670580   3.768031   3.210225
    23  H    8.108004   8.104771   9.593692   5.727643   3.763979
    24  H    7.766353   7.001793   8.494819   4.285670   3.040647
    25  H    7.605022   7.793169   9.206029   5.147758   3.016118
    26  H    5.739521   7.680632   8.896628   6.068425   3.143084
    27  H    4.713170   6.866727   8.029304   5.923814   3.288805
    28  H    6.440288   8.021790   9.327155   6.568161   3.866652
    29  H    6.148213   4.172305   5.570435   1.091753   2.493230
    30  H    6.190679   2.932410   4.283928   1.092667   3.831139
    31  H    5.849781   3.449337   4.544580   1.094906   3.492835
    32  H    4.486696   1.097263   2.170838   3.583802   5.039291
    33  H    5.500354   1.095011   2.158913   2.763979   5.132781
    34  H    4.158896   2.179405   1.092641   5.141970   6.515390
    35  H    5.241939   2.180505   1.095810   4.596933   6.578819
    36  H    5.746650   2.172764   1.094121   5.158986   7.148877
    37  C    4.099503   4.592340   5.520322   3.118858   2.379487
    38  C    4.495899   6.009419   6.875491   4.499506   2.894383
    39  C    4.489914   6.710588   7.347967   5.633902   4.150482
    40  H    3.682196   4.220150   4.883042   3.462427   3.336199
    41  H    5.118132   4.787311   5.769032   2.711745   2.599664
    42  H    5.239863   6.647375   7.659987   4.746172   2.659338
    43  H    5.225109   7.766950   8.410374   6.593507   4.826921
    44  H    4.109209   6.424754   6.848847   5.808599   4.757035
                   16         17         18         19         20
    16  Si   0.000000
    17  C    1.886547   0.000000
    18  C    1.889065   3.091142   0.000000
    19  C    1.880951   3.085342   3.084249   0.000000
    20  H    2.479914   3.287046   1.096476   3.279587   0.000000
    21  H    2.528383   3.328413   1.095039   4.055757   1.762827
    22  H    2.506756   4.049779   1.095142   3.293023   1.767328
    23  H    2.491644   3.296148   3.306678   1.095700   3.126693
    24  H    2.494694   4.041698   3.288675   1.094968   3.577520
    25  H    2.495416   3.303990   4.041845   1.094945   4.288243
    26  H    2.497664   1.095166   4.045803   3.311482   4.297541
    27  H    2.520180   1.094428   3.304691   4.052276   3.580394
    28  H    2.485753   1.096358   3.318513   3.267472   3.140293
    29  H    3.518414   5.255199   3.891265   3.821174   4.835127
    30  H    4.789552   6.481126   4.565204   5.370824   5.535399
    31  H    4.911530   6.420016   5.325340   5.428284   6.358126
    32  H    5.780840   6.891000   5.028903   7.158533   5.968700
    33  H    6.155377   7.544887   5.674960   7.189528   6.674267
    34  H    7.572876   8.371743   7.190070   9.055096   8.171338
    35  H    7.853539   8.910843   7.648178   9.067978   8.692317
    36  H    8.139064   9.232156   7.517169   9.426179   8.464152
    37  C    4.012652   4.733813   5.151391   4.964235   6.148578
    38  C    4.235309   4.431397   5.729443   5.054594   6.592565
    39  C    5.392002   5.259385   6.852298   6.282812   7.693081
    40  H    4.943734   5.586209   5.880523   6.016460   6.917680
    41  H    4.258210   5.270664   5.405105   4.836083   6.394800
    42  H    3.732781   3.861194   5.438737   4.279182   6.189982
    43  H    5.864661   5.452725   7.448206   6.626737   8.195257
    44  H    6.098839   6.031215   7.378759   7.131374   8.281839
                   21         22         23         24         25
    21  H    0.000000
    22  H    1.771173   0.000000
    23  H    4.319301   3.603502   0.000000
    24  H    4.307414   3.122505   1.770387   0.000000
    25  H    4.926405   4.298865   1.769727   1.769722   0.000000
    26  H    4.329134   4.912781   3.617834   4.315964   3.157570
    27  H    3.170866   4.321659   4.300223   4.920155   4.324691
    28  H    3.649719   4.316550   3.101599   4.275608   3.571706
    29  H    4.325318   3.341507   4.785999   3.249623   4.193476
    30  H    4.705738   3.821837   6.231084   4.758649   5.884925
    31  H    5.496519   4.834987   6.451270   4.940719   5.620778
    32  H    4.426028   4.676401   7.874765   6.933065   7.791233
    33  H    5.375146   5.096050   8.022912   6.753417   7.721699
    34  H    6.497139   7.009697   9.877119   8.926935   9.491457
    35  H    7.172052   7.287554   9.984141   8.775452   9.422501
    36  H    6.931310   7.090823  10.222470   9.105807   9.960765
    37  C    5.174826   5.278449   5.997179   5.084148   4.831486
    38  C    5.809659   6.071838   6.014058   5.422266   4.660094
    39  C    6.811739   7.270005   7.189322   6.720394   5.828234
    40  H    5.743417   5.971747   7.040758   6.098062   5.923595
    41  H    5.599533   5.350121   5.921414   4.756997   4.651621
    42  H    5.689298   5.833198   5.194142   4.747022   3.744637
    43  H    7.452053   7.955454   7.451858   7.174061   6.048589
    44  H    7.212364   7.747104   8.064365   7.500154   6.762816
                   26         27         28         29         30
    26  H    0.000000
    27  H    1.769344   0.000000
    28  H    1.768658   1.766332   0.000000
    29  H    5.548166   5.624278   5.999412   0.000000
    30  H    6.922914   6.633724   7.220494   1.766522   0.000000
    31  H    6.589879   6.604303   7.310487   1.770034   1.765318
    32  H    7.526623   6.516926   7.642014   4.456066   3.279469
    33  H    8.046560   7.377987   8.353409   3.780239   2.235541
    34  H    8.809749   7.828439   9.260446   6.168137   5.069725
    35  H    9.250653   8.553772   9.848564   5.686741   4.454727
    36  H    9.757354   8.816372  10.054098   6.206437   4.726696
    37  C    4.572127   4.766968   5.800209   3.282314   4.172836
    38  C    3.942624   4.515443   5.484873   4.435517   5.578461
    39  C    4.662398   5.177434   6.296121   5.692802   6.688994
    40  H    5.457846   5.453780   6.670529   3.918563   4.404286
    41  H    5.096575   5.485275   6.276563   2.752642   3.778564
    42  H    3.233835   4.177178   4.836480   4.427431   5.825863
    43  H    4.685500   5.413995   6.407518   6.546653   7.664836
    44  H    5.543914   5.806435   7.094332   6.062154   6.803805
                   31         32         33         34         35
    31  H    0.000000
    32  H    4.142225   0.000000
    33  H    3.023238   1.759864   0.000000
    34  H    5.218764   2.532223   3.075032   0.000000
    35  H    4.371915   3.086226   2.517870   1.769754   0.000000
    36  H    5.262155   2.507320   2.491196   1.771240   1.768668
    37  C    2.957799   5.084807   4.873471   5.638050   5.440986
    38  C    4.354726   6.422779   6.358145   6.859108   6.791922
    39  C    5.385763   7.166222   7.180629   7.181196   7.191191
    40  H    3.128709   4.847502   4.617321   4.923992   4.692859
    41  H    2.320234   5.379289   4.824013   6.075374   5.579927
    42  H    4.721609   6.969437   6.911400   7.697643   7.636902
    43  H    6.369189   8.178686   8.243186   8.203662   8.263485
    44  H    5.470608   6.955520   6.971704   6.604389   6.619312
                   36         37         38         39         40
    36  H    0.000000
    37  C    6.531238   0.000000
    38  C    7.915351   1.504524   0.000000
    39  C    8.428797   2.516830   1.334081   0.000000
    40  H    5.943442   1.095703   2.135072   2.630630   0.000000
    41  H    6.719735   1.096567   2.130118   3.201968   1.764794
    42  H    8.661118   2.205988   1.088256   2.096449   3.086998
    43  H    9.491856   3.506788   2.116544   1.086188   3.714133
    44  H    7.942511   2.783049   2.119327   1.087776   2.440399
                   41         42         43         44
    41  H    0.000000
    42  H    2.543726   0.000000
    43  H    4.111219   2.440267   0.000000
    44  H    3.518293   3.077759   1.849465   0.000000
 Stoichiometry    C14H26O3Si
 Framework group  C1[X(C14H26O3Si)]
 Deg. of freedom   126
 Full point group                 C1      NOp   1
 Largest Abelian subgroup         C1      NOp   1
 Largest concise Abelian subgroup C1      NOp   1
                         Standard orientation:                         
 ---------------------------------------------------------------------
 Center     Atomic      Atomic             Coordinates (Angstroms)
 Number     Number       Type             X           Y           Z
 ---------------------------------------------------------------------
      1          6           0       -2.314229   -0.552391   -0.368994
      2          6           0       -0.841134   -0.935202   -0.590736
      3          6           0        0.097984    0.289727   -0.398498
      4          6           0       -0.130569    0.811133    1.027083
      5          6           0       -1.581442    1.071482    1.381133
      6          1           0       -2.675157   -0.000006   -1.246288
      7          1           0       -0.558583   -1.648957    0.194945
      8          1           0        0.223403    0.065953    1.749799
      9          1           0        0.420057    1.734657    1.213559
     10          8           0       -2.536968    0.351195    0.759415
     11          8           0       -1.913943    1.860496    2.240751
     12          6           0       -3.234096   -1.751561   -0.126072
     13          6           0       -4.714114   -1.378085    0.000678
     14          6           0       -0.660535   -1.630928   -1.948965
     15          8           0        1.449513   -0.115148   -0.597035
     16         14           0        2.676705   -0.786802    0.338620
     17          6           0        3.379208    0.479940    1.547302
     18          6           0        2.110237   -2.325682    1.276453
     19          6           0        3.984036   -1.258648   -0.928748
     20          1           0        2.966027   -2.771445    1.797201
     21          1           0        1.348376   -2.111923    2.033411
     22          1           0        1.707039   -3.083946    0.596892
     23          1           0        4.864372   -1.690436   -0.439742
     24          1           0        3.598044   -1.998116   -1.638082
     25          1           0        4.314198   -0.385574   -1.501145
     26          1           0        3.676400    1.396296    1.026383
     27          1           0        2.667159    0.756275    2.331138
     28          1           0        4.270560    0.074682    2.040513
     29          1           0        0.402736   -1.740968   -2.170936
     30          1           0       -1.108702   -2.627453   -1.946660
     31          1           0       -1.120896   -1.062709   -2.763835
     32          1           0       -2.893830   -2.267278    0.780703
     33          1           0       -3.105419   -2.453711   -0.956419
     34          1           0       -4.879111   -0.696461    0.838550
     35          1           0       -5.076323   -0.887497   -0.909776
     36          1           0       -5.323750   -2.272090    0.162544
     37          6           0       -0.171866    1.407477   -1.442436
     38          6           0        0.739194    2.597793   -1.313171
     39          6           0        0.330582    3.849825   -1.100507
     40          1           0       -1.214187    1.737943   -1.372266
     41          1           0       -0.038336    0.963145   -2.436014
     42          1           0        1.802726    2.390631   -1.414586
     43          1           0        1.034021    4.674390   -1.029305
     44          1           0       -0.723033    4.098199   -0.993443
 ---------------------------------------------------------------------
 Rotational constants (GHZ):      0.4796772      0.2695697      0.2302905
 Standard basis: def2TZVP (5D, 7F)
 There are   810 symmetry adapted cartesian basis functions of A   symmetry.
 There are   720 symmetry adapted basis functions of A   symmetry.
   720 basis functions,  1144 primitive gaussians,   810 cartesian basis functions
    74 alpha electrons       74 beta electrons
       nuclear repulsion energy      1622.7880934225 Hartrees.
 NAtoms=   44 NActive=   44 NUniq=   44 SFac= 1.00D+00 NAtFMM=   60 NAOKFM=F Big=F
 Integral buffers will be    131072 words long.
 Raffenetti 2 integral format.
 Two-electron integral symmetry is turned on.
 ------------------------------------------------------------------------------
 Polarizable Continuum Model (PCM)
 =================================
 Model                : PCM (using non-symmetric T matrix).
 Atomic radii         : UFF (Universal Force Field).
 Polarization charges : Total charges.
 Charge compensation  : None.
 Solution method      : On-the-fly selection.
 Cavity type          : Scaled VdW (van der Waals Surface) (Alpha=1.100).
 Cavity algorithm     : GePol (No added spheres)
                        Default sphere list used, NSphG=   44.
                        Lebedev-Laikov grids with approx.  5.0 points / Ang**2.
                        Smoothing algorithm: Karplus/York (Gamma=1.0000).
                        Polarization charges: spherical gaussians, with
                                              point-specific exponents (IZeta= 3).
                        Self-potential: point-specific (ISelfS= 7).
                        Self-field    : sphere-specific E.n sum rule (ISelfD= 2).
 Solvent              : Chloroform, Eps=   4.711300 Eps(inf)=   2.090627
 ------------------------------------------------------------------------------
 One-electron integrals computed using PRISM.
   1 Symmetry operations used in ECPInt.
 ECPInt:  NShTT=   46360 NPrTT=  137514 LenC2=   42025 LenP2D=   90055.
 LDataN:  DoStor=T MaxTD1= 6 Len=  172
 NBasis=   720 RedAO= T EigKep=  3.88D-05  NBF=   720
 NBsUse=   720 1.00D-06 EigRej= -1.00D+00 NBFU=   720
 ExpMin= 7.01D-02 ExpMax= 4.48D+04 ExpMxC= 1.53D+03 IAcc=3 IRadAn=         5 AccDes= 0.00D+00
 Harris functional with IExCor= 1009 and IRadAn=       5 diagonalized for initial guess.
 HarFok:  IExCor= 1009 AccDes= 0.00D+00 IRadAn=         5 IDoV= 1 UseB2=F ITyADJ=14
 ICtDFT=  3500011 ScaDFX=  1.000000  1.000000  1.000000  1.000000
 FoFCou: FMM=F IPFlag=           0 FMFlag=      100000 FMFlg1=           0
         NFxFlg=           0 DoJE=T BraDBF=F KetDBF=T FulRan=T
         wScrn=  0.000000 ICntrl=     500 IOpCl=  0 I1Cent=   200000004 NGrid=           0
         NMat0=    1 NMatS0=      1 NMatT0=    0 NMatD0=    1 NMtDS0=    0 NMtDT0=    0
 Petite list used in FoFCou.
 Requested convergence on RMS density matrix=1.00D-08 within 128 cycles.
 Requested convergence on MAX density matrix=1.00D-06.
 Requested convergence on             energy=1.00D-06.
 No special actions if energy rises.
 Inv3:  Mode=1 IEnd=    26284800.
 Iteration    1 A*A^-1 deviation from unit magnitude is 5.44D-15 for   2942.
 Iteration    1 A*A^-1 deviation from orthogonality  is 4.46D-15 for   2954   1605.
 Iteration    1 A^-1*A deviation from unit magnitude is 5.33D-15 for   2942.
 Iteration    1 A^-1*A deviation from orthogonality  is 3.08D-10 for   2898   2269.
 Iteration    2 A*A^-1 deviation from unit magnitude is 3.11D-15 for    876.
 Iteration    2 A*A^-1 deviation from orthogonality  is 1.97D-15 for   2231    313.
 Iteration    2 A^-1*A deviation from unit magnitude is 1.11D-15 for   1441.
 Iteration    2 A^-1*A deviation from orthogonality  is 3.43D-16 for   2394    995.
 Error on total polarization charges =  0.01489
 SCF Done:  E(RM062X) =  -1064.34100202     A.U. after   14 cycles
            NFock= 14  Conv=0.14D-08     -V/T= 2.0047

 **********************************************************************

            Population analysis using the SCF density.

 **********************************************************************

 Orbital symmetries:
       Occupied  (A) (A) (A) (A) (A) (A) (A) (A) (A) (A) (A) (A)
                 (A) (A) (A) (A) (A) (A) (A) (A) (A) (A) (A) (A)
                 (A) (A) (A) (A) (A) (A) (A) (A) (A) (A) (A) (A)
                 (A) (A) (A) (A) (A) (A) (A) (A) (A) (A) (A) (A)
                 (A) (A) (A) (A) (A) (A) (A) (A) (A) (A) (A) (A)
                 (A) (A) (A) (A) (A) (A) (A) (A) (A) (A) (A) (A)
                 (A) (A)
       Virtual   (A) (A) (A) (A) (A) (A) (A) (A) (A) (A) (A) (A)
                 (A) (A) (A) (A) (A) (A) (A) (A) (A) (A) (A) (A)
                 (A) (A) (A) (A) (A) (A) (A) (A) (A) (A) (A) (A)
                 (A) (A) (A) (A) (A) (A) (A) (A) (A) (A) (A) (A)
                 (A) (A) (A) (A) (A) (A) (A) (A) (A) (A) (A) (A)
                 (A) (A) (A) (A) (A) (A) (A) (A) (A) (A) (A) (A)
                 (A) (A) (A) (A) (A) (A) (A) (A) (A) (A) (A) (A)
                 (A) (A) (A) (A) (A) (A) (A) (A) (A) (A) (A) (A)
                 (A) (A) (A) (A) (A) (A) (A) (A) (A) (A) (A) (A)
                 (A) (A) (A) (A) (A) (A) (A) (A) (A) (A) (A) (A)
                 (A) (A) (A) (A) (A) (A) (A) (A) (A) (A) (A) (A)
                 (A) (A) (A) (A) (A) (A) (A) (A) (A) (A) (A) (A)
                 (A) (A) (A) (A) (A) (A) (A) (A) (A) (A) (A) (A)
                 (A) (A) (A) (A) (A) (A) (A) (A) (A) (A) (A) (A)
                 (A) (A) (A) (A) (A) (A) (A) (A) (A) (A) (A) (A)
                 (A) (A) (A) (A) (A) (A) (A) (A) (A) (A) (A) (A)
                 (A) (A) (A) (A) (A) (A) (A) (A) (A) (A) (A) (A)
                 (A) (A) (A) (A) (A) (A) (A) (A) (A) (A) (A) (A)
                 (A) (A) (A) (A) (A) (A) (A) (A) (A) (A) (A) (A)
                 (A) (A) (A) (A) (A) (A) (A) (A) (A) (A) (A) (A)
                 (A) (A) (A) (A) (A) (A) (A) (A) (A) (A) (A) (A)
                 (A) (A) (A) (A) (A) (A) (A) (A) (A) (A) (A) (A)
                 (A) (A) (A) (A) (A) (A) (A) (A) (A) (A) (A) (A)
                 (A) (A) (A) (A) (A) (A) (A) (A) (A) (A) (A) (A)
                 (A) (A) (A) (A) (A) (A) (A) (A) (A) (A) (A) (A)
                 (A) (A) (A) (A) (A) (A) (A) (A) (A) (A) (A) (A)
                 (A) (A) (A) (A) (A) (A) (A) (A) (A) (A) (A) (A)
                 (A) (A) (A) (A) (A) (A) (A) (A) (A) (A) (A) (A)
                 (A) (A) (A) (A) (A) (A) (A) (A) (A) (A) (A) (A)
                 (A) (A) (A) (A) (A) (A) (A) (A) (A) (A) (A) (A)
                 (A) (A) (A) (A) (A) (A) (A) (A) (A) (A) (A) (A)
                 (A) (A) (A) (A) (A) (A) (A) (A) (A) (A) (A) (A)
                 (A) (A) (A) (A) (A) (A) (A) (A) (A) (A) (A) (A)
                 (A) (A) (A) (A) (A) (A) (A) (A) (A) (A) (A) (A)
                 (A) (A) (A) (A) (A) (A) (A) (A) (A) (A) (A) (A)
                 (A) (A) (A) (A) (A) (A) (A) (A) (A) (A) (A) (A)
                 (A) (A) (A) (A) (A) (A) (A) (A) (A) (A) (A) (A)
                 (A) (A) (A) (A) (A) (A) (A) (A) (A) (A) (A) (A)
                 (A) (A) (A) (A) (A) (A) (A) (A) (A) (A) (A) (A)
                 (A) (A) (A) (A) (A) (A) (A) (A) (A) (A) (A) (A)
                 (A) (A) (A) (A) (A) (A) (A) (A) (A) (A) (A) (A)
                 (A) (A) (A) (A) (A) (A) (A) (A) (A) (A) (A) (A)
                 (A) (A) (A) (A) (A) (A) (A) (A) (A) (A) (A) (A)
                 (A) (A) (A) (A) (A) (A) (A) (A) (A) (A) (A) (A)
                 (A) (A) (A) (A) (A) (A) (A) (A) (A) (A) (A) (A)
                 (A) (A) (A) (A) (A) (A) (A) (A) (A) (A) (A) (A)
                 (A) (A) (A) (A) (A) (A) (A) (A) (A) (A) (A) (A)
                 (A) (A) (A) (A) (A) (A) (A) (A) (A) (A) (A) (A)
                 (A) (A) (A) (A) (A) (A) (A) (A) (A) (A) (A) (A)
                 (A) (A) (A) (A) (A) (A) (A) (A) (A) (A) (A) (A)
                 (A) (A) (A) (A) (A) (A) (A) (A) (A) (A) (A) (A)
                 (A) (A) (A) (A) (A) (A) (A) (A) (A) (A) (A) (A)
                 (A) (A) (A) (A) (A) (A) (A) (A) (A) (A) (A) (A)
                 (A) (A) (A) (A) (A) (A) (A) (A) (A) (A)
 The electronic state is 1-A.
 Alpha  occ. eigenvalues --  -67.01752 -19.67304 -19.62014 -19.61655 -10.68318
 Alpha  occ. eigenvalues --  -10.62105 -10.61193 -10.55732 -10.55687 -10.54504
 Alpha  occ. eigenvalues --  -10.54460 -10.54232 -10.53343 -10.53307 -10.52556
 Alpha  occ. eigenvalues --  -10.51353 -10.51018 -10.50887  -5.55201  -3.86389
 Alpha  occ. eigenvalues --   -3.86246  -3.86230  -1.22982  -1.14256  -1.13428
 Alpha  occ. eigenvalues --   -0.93619  -0.90833  -0.87927  -0.85041  -0.81036
 Alpha  occ. eigenvalues --   -0.79422  -0.78895  -0.77115  -0.76849  -0.73164
 Alpha  occ. eigenvalues --   -0.70490  -0.68402  -0.64800  -0.62476  -0.60042
 Alpha  occ. eigenvalues --   -0.57984  -0.55909  -0.55676  -0.54682  -0.54017
 Alpha  occ. eigenvalues --   -0.51565  -0.51058  -0.50266  -0.49785  -0.48702
 Alpha  occ. eigenvalues --   -0.47872  -0.47559  -0.47348  -0.46847  -0.46594
 Alpha  occ. eigenvalues --   -0.45903  -0.45579  -0.44810  -0.44603  -0.43939
 Alpha  occ. eigenvalues --   -0.43437  -0.43170  -0.42249  -0.41807  -0.41001
 Alpha  occ. eigenvalues --   -0.40597  -0.39487  -0.38760  -0.37152  -0.36529
 Alpha  occ. eigenvalues --   -0.36015  -0.34297  -0.33491  -0.31938
 Alpha virt. eigenvalues --    0.03217   0.03828   0.05058   0.06903   0.07123
 Alpha virt. eigenvalues --    0.07660   0.09105   0.09546   0.09786   0.10014
 Alpha virt. eigenvalues --    0.11139   0.11278   0.11568   0.11904   0.12497
 Alpha virt. eigenvalues --    0.13117   0.13383   0.14207   0.14391   0.14703
 Alpha virt. eigenvalues --    0.15324   0.15695   0.15910   0.16343   0.16584
 Alpha virt. eigenvalues --    0.16711   0.17151   0.17519   0.18060   0.18627
 Alpha virt. eigenvalues --    0.18857   0.19736   0.19932   0.20249   0.20464
 Alpha virt. eigenvalues --    0.21115   0.21533   0.22023   0.22824   0.23034
 Alpha virt. eigenvalues --    0.23262   0.24164   0.24435   0.24828   0.25121
 Alpha virt. eigenvalues --    0.25972   0.26800   0.27373   0.27630   0.28694
 Alpha virt. eigenvalues --    0.28753   0.29103   0.29495   0.30131   0.31109
 Alpha virt. eigenvalues --    0.31565   0.31736   0.31889   0.33065   0.33746
 Alpha virt. eigenvalues --    0.34215   0.34935   0.35698   0.35953   0.36646
 Alpha virt. eigenvalues --    0.37175   0.37937   0.38259   0.38800   0.38888
 Alpha virt. eigenvalues --    0.39478   0.40078   0.40655   0.41168   0.41429
 Alpha virt. eigenvalues --    0.42358   0.42518   0.42635   0.43228   0.43687
 Alpha virt. eigenvalues --    0.43989   0.44831   0.45269   0.45608   0.46126
 Alpha virt. eigenvalues --    0.46332   0.46735   0.47093   0.47463   0.47950
 Alpha virt. eigenvalues --    0.48576   0.48793   0.48882   0.49590   0.50032
 Alpha virt. eigenvalues --    0.50112   0.50366   0.50543   0.51118   0.51201
 Alpha virt. eigenvalues --    0.51996   0.52219   0.52509   0.52763   0.53230
 Alpha virt. eigenvalues --    0.53276   0.54063   0.55009   0.55453   0.56137
 Alpha virt. eigenvalues --    0.56873   0.57184   0.57789   0.58011   0.58473
 Alpha virt. eigenvalues --    0.59009   0.60261   0.61247   0.61556   0.62044
 Alpha virt. eigenvalues --    0.62539   0.63139   0.63742   0.64256   0.65351
 Alpha virt. eigenvalues --    0.65752   0.66406   0.66684   0.68314   0.68643
 Alpha virt. eigenvalues --    0.69251   0.70259   0.70914   0.72065   0.72953
 Alpha virt. eigenvalues --    0.73926   0.74733   0.75371   0.76647   0.77318
 Alpha virt. eigenvalues --    0.78449   0.78942   0.79730   0.80249   0.81250
 Alpha virt. eigenvalues --    0.82222   0.82932   0.84098   0.84453   0.85330
 Alpha virt. eigenvalues --    0.86655   0.86880   0.87803   0.89559   0.89951
 Alpha virt. eigenvalues --    0.90448   0.92020   0.92528   0.92939   0.93242
 Alpha virt. eigenvalues --    0.93520   0.95480   0.95856   0.96430   0.97821
 Alpha virt. eigenvalues --    0.98132   0.99181   0.99922   1.00606   1.01437
 Alpha virt. eigenvalues --    1.01629   1.03061   1.03690   1.04091   1.04598
 Alpha virt. eigenvalues --    1.04955   1.05385   1.06011   1.06761   1.07433
 Alpha virt. eigenvalues --    1.07804   1.09013   1.09473   1.10091   1.10722
 Alpha virt. eigenvalues --    1.11208   1.12687   1.13686   1.14190   1.14611
 Alpha virt. eigenvalues --    1.15276   1.15387   1.16490   1.17381   1.18981
 Alpha virt. eigenvalues --    1.20119   1.21262   1.21917   1.22759   1.24116
 Alpha virt. eigenvalues --    1.24984   1.26718   1.26848   1.27969   1.28484
 Alpha virt. eigenvalues --    1.29053   1.30444   1.31986   1.32436   1.34424
 Alpha virt. eigenvalues --    1.34807   1.35147   1.36827   1.37821   1.38599
 Alpha virt. eigenvalues --    1.38798   1.39103   1.41076   1.41364   1.41828
 Alpha virt. eigenvalues --    1.43098   1.44243   1.44697   1.45503   1.46179
 Alpha virt. eigenvalues --    1.47806   1.48704   1.49766   1.50858   1.53563
 Alpha virt. eigenvalues --    1.54353   1.54687   1.55436   1.55835   1.56471
 Alpha virt. eigenvalues --    1.57089   1.57685   1.58444   1.58880   1.59390
 Alpha virt. eigenvalues --    1.59692   1.60134   1.60501   1.60995   1.61561
 Alpha virt. eigenvalues --    1.61675   1.62070   1.63968   1.64205   1.64566
 Alpha virt. eigenvalues --    1.64809   1.65623   1.66015   1.66192   1.66904
 Alpha virt. eigenvalues --    1.67697   1.67926   1.68176   1.68260   1.68802
 Alpha virt. eigenvalues --    1.69174   1.70181   1.71290   1.71575   1.73755
 Alpha virt. eigenvalues --    1.74936   1.75223   1.75733   1.77230   1.77698
 Alpha virt. eigenvalues --    1.78294   1.79389   1.79629   1.81091   1.82447
 Alpha virt. eigenvalues --    1.83064   1.84341   1.85896   1.86768   1.87565
 Alpha virt. eigenvalues --    1.88272   1.89000   1.89802   1.90517   1.91877
 Alpha virt. eigenvalues --    1.92660   1.93872   1.94573   1.96199   1.97594
 Alpha virt. eigenvalues --    1.98402   1.99661   2.00009   2.00829   2.02680
 Alpha virt. eigenvalues --    2.03149   2.04096   2.04650   2.06336   2.06996
 Alpha virt. eigenvalues --    2.07510   2.07588   2.08702   2.09571   2.09902
 Alpha virt. eigenvalues --    2.10767   2.10870   2.12695   2.13104   2.14577
 Alpha virt. eigenvalues --    2.15663   2.17036   2.18308   2.18848   2.19289
 Alpha virt. eigenvalues --    2.20563   2.21705   2.22008   2.22491   2.24353
 Alpha virt. eigenvalues --    2.25117   2.25372   2.26727   2.27036   2.28322
 Alpha virt. eigenvalues --    2.29155   2.30363   2.30832   2.31746   2.32315
 Alpha virt. eigenvalues --    2.33861   2.34940   2.35534   2.36501   2.37302
 Alpha virt. eigenvalues --    2.37414   2.38079   2.38233   2.39687   2.39953
 Alpha virt. eigenvalues --    2.40243   2.41114   2.41624   2.42340   2.42616
 Alpha virt. eigenvalues --    2.42936   2.43915   2.44310   2.44680   2.45668
 Alpha virt. eigenvalues --    2.45830   2.46289   2.47050   2.48353   2.49527
 Alpha virt. eigenvalues --    2.50161   2.51680   2.52273   2.53131   2.55187
 Alpha virt. eigenvalues --    2.55646   2.56685   2.57635   2.57854   2.58073
 Alpha virt. eigenvalues --    2.58739   2.59617   2.59973   2.60844   2.60911
 Alpha virt. eigenvalues --    2.61259   2.62311   2.62551   2.63586   2.63872
 Alpha virt. eigenvalues --    2.63897   2.64620   2.65769   2.66964   2.67264
 Alpha virt. eigenvalues --    2.68106   2.68462   2.69458   2.69667   2.70135
 Alpha virt. eigenvalues --    2.70911   2.71944   2.72397   2.72849   2.73411
 Alpha virt. eigenvalues --    2.73761   2.75279   2.75319   2.76784   2.78342
 Alpha virt. eigenvalues --    2.79180   2.79783   2.81958   2.82639   2.84084
 Alpha virt. eigenvalues --    2.84288   2.85438   2.86523   2.86902   2.87417
 Alpha virt. eigenvalues --    2.88537   2.89885   2.91006   2.92853   2.93502
 Alpha virt. eigenvalues --    2.95612   2.95962   2.96150   2.98377   2.98931
 Alpha virt. eigenvalues --    2.99758   3.01165   3.03352   3.03647   3.04587
 Alpha virt. eigenvalues --    3.06224   3.07809   3.09002   3.09878   3.10494
 Alpha virt. eigenvalues --    3.10937   3.11211   3.12392   3.12716   3.13336
 Alpha virt. eigenvalues --    3.13629   3.14473   3.15012   3.15530   3.15590
 Alpha virt. eigenvalues --    3.16999   3.18066   3.18837   3.19498   3.20108
 Alpha virt. eigenvalues --    3.20914   3.22354   3.22475   3.23654   3.24065
 Alpha virt. eigenvalues --    3.24236   3.24512   3.25118   3.26407   3.26502
 Alpha virt. eigenvalues --    3.27450   3.27542   3.27862   3.28987   3.29711
 Alpha virt. eigenvalues --    3.29974   3.30164   3.30769   3.31675   3.32967
 Alpha virt. eigenvalues --    3.33024   3.33585   3.33652   3.34948   3.35462
 Alpha virt. eigenvalues --    3.36337   3.36953   3.37497   3.38449   3.39445
 Alpha virt. eigenvalues --    3.40330   3.41815   3.41931   3.42396   3.42995
 Alpha virt. eigenvalues --    3.43604   3.44078   3.44877   3.45276   3.45972
 Alpha virt. eigenvalues --    3.46760   3.47732   3.48445   3.50236   3.51128
 Alpha virt. eigenvalues --    3.52454   3.53232   3.53866   3.54153   3.55299
 Alpha virt. eigenvalues --    3.56113   3.56583   3.57559   3.58087   3.58445
 Alpha virt. eigenvalues --    3.59745   3.60157   3.60659   3.61562   3.62952
 Alpha virt. eigenvalues --    3.63015   3.63407   3.64464   3.64634   3.65270
 Alpha virt. eigenvalues --    3.65725   3.66242   3.67055   3.68787   3.70142
 Alpha virt. eigenvalues --    3.72191   3.73952   3.74931   3.76397   3.77432
 Alpha virt. eigenvalues --    3.78156   3.78796   3.79496   3.81621   3.83529
 Alpha virt. eigenvalues --    3.86164   3.87108   3.87684   3.90411   3.91899
 Alpha virt. eigenvalues --    3.92674   3.95039   3.96193   3.98932   4.00056
 Alpha virt. eigenvalues --    4.01213   4.03734   4.05085   4.07702   4.09769
 Alpha virt. eigenvalues --    4.10635   4.13988   4.15035   4.16418   4.17628
 Alpha virt. eigenvalues --    4.19516   4.21035   4.24679   4.26191   4.26789
 Alpha virt. eigenvalues --    4.27040   4.27482   4.28764   4.29659   4.29885
 Alpha virt. eigenvalues --    4.31052   4.32905   4.33748   4.34956   4.35737
 Alpha virt. eigenvalues --    4.37149   4.38257   4.38589   4.39264   4.40186
 Alpha virt. eigenvalues --    4.41363   4.44183   4.45132   4.47929   4.50179
 Alpha virt. eigenvalues --    4.50602   4.53337   4.55231   4.55983   4.57678
 Alpha virt. eigenvalues --    4.59641   4.61888   4.63449   4.67259   4.70775
 Alpha virt. eigenvalues --    4.71524   4.74232   4.75537   4.80626   4.83655
 Alpha virt. eigenvalues --    4.85298   4.86959   4.92829   4.96730   5.02162
 Alpha virt. eigenvalues --    5.03588   5.06988   5.19377   5.22190   5.22328
 Alpha virt. eigenvalues --    5.24608   5.25659   5.26620   5.28869   5.35315
 Alpha virt. eigenvalues --    5.48418   5.49549   5.51948   5.60738   5.81697
 Alpha virt. eigenvalues --    5.85536   5.86590   5.88816   5.91729   6.03735
 Alpha virt. eigenvalues --    6.14117   6.17584   6.23602   6.36925   6.38593
 Alpha virt. eigenvalues --    6.51601   6.61710   6.62443   6.62951   6.65743
 Alpha virt. eigenvalues --    6.69638   6.76850   6.81425   6.86118   6.89483
 Alpha virt. eigenvalues --    6.92212   6.98132   7.04485   7.06054   7.15990
 Alpha virt. eigenvalues --    7.20612   7.34655   7.42904  12.17581  22.28761
 Alpha virt. eigenvalues --   22.37803  22.41910  22.42556  22.44822  22.52063
 Alpha virt. eigenvalues --   22.55649  22.64000  22.68712  22.77661  22.80453
 Alpha virt. eigenvalues --   22.89469  22.90568  23.45002  44.06661  44.49361
 Alpha virt. eigenvalues --   44.51357
          Condensed to atoms (all electrons):
               1          2          3          4          5          6
     1  C    5.427705   0.039186  -0.006226   0.015913  -0.048357   0.452180
     2  C    0.039186   5.793505   0.042280  -0.046296  -0.001641  -0.034256
     3  C   -0.006226   0.042280   5.797331  -0.194292   0.059772  -0.034864
     4  C    0.015913  -0.046296  -0.194292   6.182537   0.130926   0.005447
     5  C   -0.048357  -0.001641   0.059772   0.130926   4.406064  -0.003381
     6  H    0.452180  -0.034256  -0.034864   0.005447  -0.003381   0.513227
     7  H   -0.040471   0.445617  -0.061690  -0.014166   0.002784   0.006536
     8  H    0.004374  -0.025859  -0.027965   0.391330  -0.013712  -0.000044
     9  H   -0.000936   0.011346  -0.028542   0.379713  -0.008925   0.000147
    10  O    0.158723  -0.015658   0.029676  -0.158149   0.392462  -0.041834
    11  O    0.000497  -0.000201   0.014672  -0.150818   0.734518   0.000158
    12  C    0.215909  -0.024567   0.013590  -0.007981   0.002050  -0.045427
    13  C   -0.044317   0.007417   0.000106  -0.000206   0.000160  -0.008616
    14  C   -0.056396   0.230041  -0.020432  -0.002161   0.002146  -0.011146
    15  O    0.008705  -0.040724   0.163867  -0.021128  -0.002294  -0.000103
    16  Si   0.001484  -0.003951  -0.077025   0.015631  -0.000961   0.000020
    17  C    0.000104   0.000075  -0.005465   0.007895  -0.000103  -0.000003
    18  C   -0.001000  -0.000771   0.021962  -0.013082   0.000161  -0.000019
    19  C   -0.000074   0.001060   0.000214  -0.001034  -0.000032   0.000000
    20  H   -0.000005   0.000355  -0.000853   0.000335  -0.000009   0.000000
    21  H   -0.000457  -0.001947   0.002608  -0.003949  -0.000356   0.000001
    22  H    0.000387   0.001896  -0.001599   0.000808   0.000023  -0.000001
    23  H    0.000001  -0.000018  -0.000021   0.000030   0.000000   0.000000
    24  H    0.000017  -0.000468   0.000748   0.000084  -0.000001   0.000000
    25  H    0.000005  -0.000060  -0.000014   0.000150   0.000002   0.000000
    26  H   -0.000001  -0.000091   0.003822  -0.003305  -0.000008   0.000000
    27  H    0.000003   0.000508  -0.004074   0.003930   0.000500   0.000000
    28  H   -0.000005   0.000014   0.000172  -0.000370  -0.000009   0.000000
    29  H    0.013334  -0.066270   0.010755   0.003018  -0.000370  -0.000127
    30  H   -0.006328  -0.043387   0.012881  -0.000571  -0.000002   0.000222
    31  H   -0.008603  -0.021563  -0.027906  -0.001058   0.000257   0.004053
    32  H   -0.032740  -0.005211  -0.002463   0.000866  -0.001146   0.006292
    33  H   -0.062646   0.001146  -0.001019   0.000764   0.000263   0.001471
    34  H   -0.018127  -0.000032  -0.000246   0.000697   0.001263   0.001265
    35  H    0.001006   0.001474  -0.000194   0.000068  -0.000250   0.001616
    36  H    0.014320  -0.000956   0.000062   0.000019   0.000005  -0.000202
    37  C    0.013882  -0.051299   0.155985  -0.049655   0.001957   0.011177
    38  C   -0.004321   0.012195  -0.030337  -0.001303   0.000540  -0.000458
    39  C    0.000720  -0.000927  -0.008746   0.000098   0.000325   0.000210
    40  H    0.007264  -0.024225  -0.008546  -0.013501   0.000647  -0.009269
    41  H   -0.008081   0.010860  -0.076931   0.005886   0.000087  -0.000285
    42  H    0.000000  -0.000389   0.004622  -0.002768   0.000437  -0.000010
    43  H    0.000004   0.000022  -0.000161  -0.000025   0.000020   0.000000
    44  H   -0.000014   0.000130  -0.002353   0.000227  -0.000060   0.000060
               7          8          9         10         11         12
     1  C   -0.040471   0.004374  -0.000936   0.158723   0.000497   0.215909
     2  C    0.445617  -0.025859   0.011346  -0.015658  -0.000201  -0.024567
     3  C   -0.061690  -0.027965  -0.028542   0.029676   0.014672   0.013590
     4  C   -0.014166   0.391330   0.379713  -0.158149  -0.150818  -0.007981
     5  C    0.002784  -0.013712  -0.008925   0.392462   0.734518   0.002050
     6  H    0.006536  -0.000044   0.000147  -0.041834   0.000158  -0.045427
     7  H    0.510419   0.002151   0.000059   0.001913  -0.000084  -0.008025
     8  H    0.002151   0.466936  -0.012483   0.002430   0.004361  -0.000019
     9  H    0.000059  -0.012483   0.441315   0.005482   0.009594   0.000093
    10  O    0.001913   0.002430   0.005482   8.001979  -0.102470  -0.038596
    11  O   -0.000084   0.004361   0.009594  -0.102470   7.859491  -0.000249
    12  C   -0.008025  -0.000019   0.000093  -0.038596  -0.000249   5.172232
    13  C   -0.000071   0.000024  -0.000013  -0.005816  -0.000030   0.261115
    14  C   -0.036130   0.000295  -0.000064   0.004165   0.000029   0.001789
    15  O   -0.004024  -0.006879  -0.000850  -0.000340  -0.000198  -0.000202
    16  Si   0.004566   0.009688  -0.002739   0.000003  -0.000132  -0.000246
    17  C   -0.000156  -0.005975  -0.004407  -0.000033  -0.000090  -0.000001
    18  C   -0.005240  -0.001229   0.000615  -0.000037   0.000008   0.000170
    19  C    0.000128   0.000169   0.000070   0.000000   0.000000   0.000003
    20  H    0.000450   0.000052  -0.000019   0.000000   0.000000   0.000001
    21  H   -0.000509   0.004406   0.000115   0.000026  -0.000010   0.000088
    22  H   -0.001696  -0.000406  -0.000027  -0.000002   0.000000   0.000009
    23  H   -0.000003   0.000002   0.000000   0.000000   0.000000   0.000000
    24  H    0.000065   0.000002  -0.000006   0.000000   0.000000  -0.000001
    25  H   -0.000005  -0.000015  -0.000002   0.000000   0.000000   0.000000
    26  H    0.000008   0.000185   0.000606   0.000001   0.000004   0.000000
    27  H   -0.000062   0.000835  -0.002981   0.000001   0.000026   0.000000
    28  H   -0.000004   0.000026   0.000233   0.000000  -0.000001   0.000000
    29  H   -0.003238  -0.000007  -0.000049  -0.000148   0.000000   0.000491
    30  H   -0.009727   0.000001   0.000011  -0.000077   0.000000  -0.003920
    31  H    0.007563   0.000018  -0.000006   0.000083   0.000001  -0.002307
    32  H    0.002123   0.000055   0.000007   0.000060  -0.000102   0.415808
    33  H    0.000319  -0.000032  -0.000001   0.005128   0.000011   0.433246
    34  H    0.000078  -0.000018  -0.000005   0.008461   0.000365  -0.036249
    35  H   -0.000076  -0.000001   0.000000  -0.000903   0.000003  -0.044897
    36  H   -0.000002  -0.000001   0.000000   0.000233   0.000003  -0.053245
    37  C    0.012551   0.006680  -0.007606  -0.008309   0.003479  -0.000101
    38  C   -0.000791   0.000331   0.000278   0.000795  -0.001565   0.000020
    39  C   -0.000006   0.000142  -0.000943  -0.000349   0.000718   0.000006
    40  H   -0.000368  -0.000193   0.000948   0.004919  -0.000978   0.001299
    41  H   -0.000650  -0.000149  -0.000058   0.000186  -0.000021   0.000027
    42  H    0.000008  -0.000092   0.001214   0.000009   0.000022   0.000005
    43  H    0.000000   0.000000   0.000021  -0.000002   0.000008   0.000000
    44  H    0.000003  -0.000018   0.000201  -0.000057   0.000097   0.000004
              13         14         15         16         17         18
     1  C   -0.044317  -0.056396   0.008705   0.001484   0.000104  -0.001000
     2  C    0.007417   0.230041  -0.040724  -0.003951   0.000075  -0.000771
     3  C    0.000106  -0.020432   0.163867  -0.077025  -0.005465   0.021962
     4  C   -0.000206  -0.002161  -0.021128   0.015631   0.007895  -0.013082
     5  C    0.000160   0.002146  -0.002294  -0.000961  -0.000103   0.000161
     6  H   -0.008616  -0.011146  -0.000103   0.000020  -0.000003  -0.000019
     7  H   -0.000071  -0.036130  -0.004024   0.004566  -0.000156  -0.005240
     8  H    0.000024   0.000295  -0.006879   0.009688  -0.005975  -0.001229
     9  H   -0.000013  -0.000064  -0.000850  -0.002739  -0.004407   0.000615
    10  O   -0.005816   0.004165  -0.000340   0.000003  -0.000033  -0.000037
    11  O   -0.000030   0.000029  -0.000198  -0.000132  -0.000090   0.000008
    12  C    0.261115   0.001789  -0.000202  -0.000246  -0.000001   0.000170
    13  C    5.051317  -0.000315   0.000017   0.000006   0.000000  -0.000002
    14  C   -0.000315   5.143097  -0.015641  -0.000541  -0.000175  -0.000937
    15  O    0.000017  -0.015641   8.066236   0.375715  -0.019402  -0.028572
    16  Si   0.000006  -0.000541   0.375715  12.455779   0.350593   0.327634
    17  C    0.000000  -0.000175  -0.019402   0.350593   5.139652  -0.045704
    18  C   -0.000002  -0.000937  -0.028572   0.327634  -0.045704   5.191581
    19  C    0.000000  -0.000156  -0.018410   0.391303  -0.045565  -0.045301
    20  H    0.000000  -0.000010   0.001228  -0.022386   0.000956   0.381981
    21  H   -0.000001   0.000548   0.000686  -0.036137   0.001435   0.393440
    22  H    0.000002  -0.001346   0.000266  -0.040411   0.003421   0.393434
    23  H    0.000000  -0.000022   0.001321  -0.043062   0.002898   0.002992
    24  H    0.000000  -0.000128  -0.000092  -0.031781   0.002944   0.000414
    25  H    0.000000   0.000021   0.000672  -0.034255   0.000754   0.003141
    26  H    0.000000   0.000010  -0.001036  -0.040939   0.395381   0.003141
    27  H    0.000000   0.000007   0.001394  -0.030440   0.389082   0.000894
    28  H    0.000000   0.000005   0.001254  -0.032901   0.386710   0.002162
    29  H    0.000045   0.423551   0.008242  -0.000297   0.000201  -0.000449
    30  H    0.000195   0.423559   0.000298  -0.000677   0.000002   0.000363
    31  H   -0.000039   0.416527   0.000645   0.000159   0.000006  -0.000026
    32  H   -0.035785  -0.000699  -0.000005  -0.000004   0.000000  -0.000007
    33  H   -0.036672  -0.001028  -0.000031  -0.000022   0.000000   0.000014
    34  H    0.421120  -0.000067   0.000000   0.000000   0.000000   0.000000
    35  H    0.409771  -0.000102   0.000000   0.000000   0.000000   0.000000
    36  H    0.422385   0.000015   0.000000   0.000000   0.000000   0.000000
    37  C   -0.000229  -0.002300  -0.096510   0.010745   0.000418  -0.001342
    38  C   -0.000012  -0.000249   0.012710   0.000953  -0.002307   0.000318
    39  C   -0.000001  -0.000117   0.002980  -0.000109   0.000150   0.000017
    40  H    0.000128   0.002296   0.004041  -0.000239   0.000028   0.000033
    41  H   -0.000005  -0.003371   0.001456  -0.000875   0.000045   0.000071
    42  H    0.000000   0.000109   0.002988  -0.001155   0.000024   0.000182
    43  H    0.000000   0.000001   0.000018   0.000004  -0.000004   0.000000
    44  H   -0.000001  -0.000007  -0.000026   0.000008  -0.000003   0.000000
              19         20         21         22         23         24
     1  C   -0.000074  -0.000005  -0.000457   0.000387   0.000001   0.000017
     2  C    0.001060   0.000355  -0.001947   0.001896  -0.000018  -0.000468
     3  C    0.000214  -0.000853   0.002608  -0.001599  -0.000021   0.000748
     4  C   -0.001034   0.000335  -0.003949   0.000808   0.000030   0.000084
     5  C   -0.000032  -0.000009  -0.000356   0.000023   0.000000  -0.000001
     6  H    0.000000   0.000000   0.000001  -0.000001   0.000000   0.000000
     7  H    0.000128   0.000450  -0.000509  -0.001696  -0.000003   0.000065
     8  H    0.000169   0.000052   0.004406  -0.000406   0.000002   0.000002
     9  H    0.000070  -0.000019   0.000115  -0.000027   0.000000  -0.000006
    10  O    0.000000   0.000000   0.000026  -0.000002   0.000000   0.000000
    11  O    0.000000   0.000000  -0.000010   0.000000   0.000000   0.000000
    12  C    0.000003   0.000001   0.000088   0.000009   0.000000  -0.000001
    13  C    0.000000   0.000000  -0.000001   0.000002   0.000000   0.000000
    14  C   -0.000156  -0.000010   0.000548  -0.001346  -0.000022  -0.000128
    15  O   -0.018410   0.001228   0.000686   0.000266   0.001321  -0.000092
    16  Si   0.391303  -0.022386  -0.036137  -0.040411  -0.043062  -0.031781
    17  C   -0.045565   0.000956   0.001435   0.003421   0.002898   0.002944
    18  C   -0.045301   0.381981   0.393440   0.393434   0.002992   0.000414
    19  C    5.105039   0.000321   0.003065   0.000855   0.393024   0.389962
    20  H    0.000321   0.494078  -0.014390  -0.015108   0.000138   0.000261
    21  H    0.003065  -0.014390   0.507503  -0.020828  -0.000165  -0.000123
    22  H    0.000855  -0.015108  -0.020828   0.512521   0.000270   0.000790
    23  H    0.393024   0.000138  -0.000165   0.000270   0.526126  -0.019711
    24  H    0.389962   0.000261  -0.000123   0.000790  -0.019711   0.518265
    25  H    0.391409  -0.000136  -0.000089  -0.000190  -0.018284  -0.017994
    26  H    0.001819  -0.000126  -0.000198  -0.000095   0.000237  -0.000175
    27  H    0.002618   0.000203   0.000583  -0.000165  -0.000140  -0.000092
    28  H    0.001793   0.000152   0.000187  -0.000194  -0.000153  -0.000124
    29  H   -0.001028  -0.000006  -0.000009   0.000414   0.000052   0.000909
    30  H    0.000028  -0.000003  -0.000001   0.000053   0.000000  -0.000010
    31  H    0.000005   0.000001  -0.000006   0.000022   0.000000   0.000012
    32  H    0.000000   0.000000   0.000028   0.000019   0.000000   0.000000
    33  H    0.000001   0.000000   0.000000  -0.000007   0.000000   0.000000
    34  H    0.000000   0.000000   0.000000   0.000000   0.000000   0.000000
    35  H    0.000000   0.000000   0.000000   0.000000   0.000000   0.000000
    36  H    0.000000   0.000000   0.000000   0.000000   0.000000   0.000000
    37  C   -0.000394   0.000026  -0.000017   0.000008   0.000004   0.000088
    38  C   -0.000087  -0.000004   0.000000  -0.000009  -0.000004   0.000014
    39  C   -0.000010   0.000000   0.000000   0.000000   0.000001  -0.000001
    40  H    0.000006   0.000000  -0.000003   0.000001   0.000000  -0.000001
    41  H   -0.000035  -0.000001  -0.000002   0.000001   0.000002  -0.000003
    42  H   -0.000117  -0.000003  -0.000008  -0.000003   0.000015  -0.000007
    43  H    0.000001   0.000000   0.000000   0.000000   0.000000   0.000000
    44  H    0.000000   0.000000   0.000000   0.000000   0.000000   0.000000
              25         26         27         28         29         30
     1  C    0.000005  -0.000001   0.000003  -0.000005   0.013334  -0.006328
     2  C   -0.000060  -0.000091   0.000508   0.000014  -0.066270  -0.043387
     3  C   -0.000014   0.003822  -0.004074   0.000172   0.010755   0.012881
     4  C    0.000150  -0.003305   0.003930  -0.000370   0.003018  -0.000571
     5  C    0.000002  -0.000008   0.000500  -0.000009  -0.000370  -0.000002
     6  H    0.000000   0.000000   0.000000   0.000000  -0.000127   0.000222
     7  H   -0.000005   0.000008  -0.000062  -0.000004  -0.003238  -0.009727
     8  H   -0.000015   0.000185   0.000835   0.000026  -0.000007   0.000001
     9  H   -0.000002   0.000606  -0.002981   0.000233  -0.000049   0.000011
    10  O    0.000000   0.000001   0.000001   0.000000  -0.000148  -0.000077
    11  O    0.000000   0.000004   0.000026  -0.000001   0.000000   0.000000
    12  C    0.000000   0.000000   0.000000   0.000000   0.000491  -0.003920
    13  C    0.000000   0.000000   0.000000   0.000000   0.000045   0.000195
    14  C    0.000021   0.000010   0.000007   0.000005   0.423551   0.423559
    15  O    0.000672  -0.001036   0.001394   0.001254   0.008242   0.000298
    16  Si  -0.034255  -0.040939  -0.030440  -0.032901  -0.000297  -0.000677
    17  C    0.000754   0.395381   0.389082   0.386710   0.000201   0.000002
    18  C    0.003141   0.003141   0.000894   0.002162  -0.000449   0.000363
    19  C    0.391409   0.001819   0.002618   0.001793  -0.001028   0.000028
    20  H   -0.000136  -0.000126   0.000203   0.000152  -0.000006  -0.000003
    21  H   -0.000089  -0.000198   0.000583   0.000187  -0.000009  -0.000001
    22  H   -0.000190  -0.000095  -0.000165  -0.000194   0.000414   0.000053
    23  H   -0.018284   0.000237  -0.000140  -0.000153   0.000052   0.000000
    24  H   -0.017994  -0.000175  -0.000092  -0.000124   0.000909  -0.000010
    25  H    0.514796   0.000793  -0.000128   0.000243   0.000011   0.000000
    26  H    0.000793   0.507664  -0.018018  -0.015896  -0.000005   0.000000
    27  H   -0.000128  -0.018018   0.509626  -0.018035  -0.000003   0.000000
    28  H    0.000243  -0.015896  -0.018035   0.511209  -0.000008   0.000000
    29  H    0.000011  -0.000005  -0.000003  -0.000008   0.489185  -0.019426
    30  H    0.000000   0.000000   0.000000   0.000000  -0.019426   0.504811
    31  H   -0.000001   0.000000   0.000000   0.000000  -0.024064  -0.023448
    32  H    0.000000   0.000000   0.000000   0.000000  -0.000096   0.000592
    33  H    0.000000   0.000000   0.000000   0.000000   0.000406  -0.003875
    34  H    0.000000   0.000000   0.000000   0.000000   0.000001  -0.000032
    35  H    0.000000   0.000000   0.000000   0.000000  -0.000003   0.000068
    36  H    0.000000   0.000000   0.000000   0.000000   0.000000   0.000011
    37  C    0.000022  -0.000114   0.000010  -0.000051  -0.008060   0.000252
    38  C   -0.000125  -0.000263   0.000086   0.000083  -0.000133   0.000053
    39  C    0.000011   0.000115   0.000070  -0.000004   0.000040   0.000000
    40  H    0.000002   0.000002  -0.000007   0.000000  -0.000061  -0.000036
    41  H   -0.000019   0.000002   0.000000   0.000000   0.000640   0.000416
    42  H    0.000560   0.000955  -0.000075  -0.000007   0.000002   0.000001
    43  H   -0.000001  -0.000001  -0.000001   0.000000   0.000000   0.000000
    44  H    0.000000   0.000004   0.000000   0.000000   0.000001   0.000000
              31         32         33         34         35         36
     1  C   -0.008603  -0.032740  -0.062646  -0.018127   0.001006   0.014320
     2  C   -0.021563  -0.005211   0.001146  -0.000032   0.001474  -0.000956
     3  C   -0.027906  -0.002463  -0.001019  -0.000246  -0.000194   0.000062
     4  C   -0.001058   0.000866   0.000764   0.000697   0.000068   0.000019
     5  C    0.000257  -0.001146   0.000263   0.001263  -0.000250   0.000005
     6  H    0.004053   0.006292   0.001471   0.001265   0.001616  -0.000202
     7  H    0.007563   0.002123   0.000319   0.000078  -0.000076  -0.000002
     8  H    0.000018   0.000055  -0.000032  -0.000018  -0.000001  -0.000001
     9  H   -0.000006   0.000007  -0.000001  -0.000005   0.000000   0.000000
    10  O    0.000083   0.000060   0.005128   0.008461  -0.000903   0.000233
    11  O    0.000001  -0.000102   0.000011   0.000365   0.000003   0.000003
    12  C   -0.002307   0.415808   0.433246  -0.036249  -0.044897  -0.053245
    13  C   -0.000039  -0.035785  -0.036672   0.421120   0.409771   0.422385
    14  C    0.416527  -0.000699  -0.001028  -0.000067  -0.000102   0.000015
    15  O    0.000645  -0.000005  -0.000031   0.000000   0.000000   0.000000
    16  Si   0.000159  -0.000004  -0.000022   0.000000   0.000000   0.000000
    17  C    0.000006   0.000000   0.000000   0.000000   0.000000   0.000000
    18  C   -0.000026  -0.000007   0.000014   0.000000   0.000000   0.000000
    19  C    0.000005   0.000000   0.000001   0.000000   0.000000   0.000000
    20  H    0.000001   0.000000   0.000000   0.000000   0.000000   0.000000
    21  H   -0.000006   0.000028   0.000000   0.000000   0.000000   0.000000
    22  H    0.000022   0.000019  -0.000007   0.000000   0.000000   0.000000
    23  H    0.000000   0.000000   0.000000   0.000000   0.000000   0.000000
    24  H    0.000012   0.000000   0.000000   0.000000   0.000000   0.000000
    25  H   -0.000001   0.000000   0.000000   0.000000   0.000000   0.000000
    26  H    0.000000   0.000000   0.000000   0.000000   0.000000   0.000000
    27  H    0.000000   0.000000   0.000000   0.000000   0.000000   0.000000
    28  H    0.000000   0.000000   0.000000   0.000000   0.000000   0.000000
    29  H   -0.024064  -0.000096   0.000406   0.000001  -0.000003   0.000000
    30  H   -0.023448   0.000592  -0.003875  -0.000032   0.000068   0.000011
    31  H    0.508527   0.000137  -0.000322   0.000004   0.000037  -0.000005
    32  H    0.000137   0.526498  -0.024055  -0.003308   0.006244  -0.003970
    33  H   -0.000322  -0.024055   0.543268   0.006609  -0.003925  -0.004489
    34  H    0.000004  -0.003308   0.006609   0.509346  -0.025940  -0.023343
    35  H    0.000037   0.006244  -0.003925  -0.025940   0.538994  -0.024403
    36  H   -0.000005  -0.003970  -0.004489  -0.023343  -0.024403   0.523758
    37  C    0.009840   0.000091   0.000056  -0.000004   0.000015   0.000002
    38  C   -0.000175  -0.000003   0.000005   0.000000   0.000000   0.000000
    39  C   -0.000026   0.000001   0.000000   0.000000   0.000000   0.000000
    40  H    0.000299  -0.000070  -0.000053  -0.000014   0.000001   0.000003
    41  H   -0.006466  -0.000005  -0.000009   0.000001   0.000000   0.000000
    42  H    0.000024   0.000000   0.000000   0.000000   0.000000   0.000000
    43  H    0.000000   0.000000   0.000000   0.000000   0.000000   0.000000
    44  H    0.000001   0.000000   0.000000   0.000000   0.000000   0.000000
              37         38         39         40         41         42
     1  C    0.013882  -0.004321   0.000720   0.007264  -0.008081   0.000000
     2  C   -0.051299   0.012195  -0.000927  -0.024225   0.010860  -0.000389
     3  C    0.155985  -0.030337  -0.008746  -0.008546  -0.076931   0.004622
     4  C   -0.049655  -0.001303   0.000098  -0.013501   0.005886  -0.002768
     5  C    0.001957   0.000540   0.000325   0.000647   0.000087   0.000437
     6  H    0.011177  -0.000458   0.000210  -0.009269  -0.000285  -0.000010
     7  H    0.012551  -0.000791  -0.000006  -0.000368  -0.000650   0.000008
     8  H    0.006680   0.000331   0.000142  -0.000193  -0.000149  -0.000092
     9  H   -0.007606   0.000278  -0.000943   0.000948  -0.000058   0.001214
    10  O   -0.008309   0.000795  -0.000349   0.004919   0.000186   0.000009
    11  O    0.003479  -0.001565   0.000718  -0.000978  -0.000021   0.000022
    12  C   -0.000101   0.000020   0.000006   0.001299   0.000027   0.000005
    13  C   -0.000229  -0.000012  -0.000001   0.000128  -0.000005   0.000000
    14  C   -0.002300  -0.000249  -0.000117   0.002296  -0.003371   0.000109
    15  O   -0.096510   0.012710   0.002980   0.004041   0.001456   0.002988
    16  Si   0.010745   0.000953  -0.000109  -0.000239  -0.000875  -0.001155
    17  C    0.000418  -0.002307   0.000150   0.000028   0.000045   0.000024
    18  C   -0.001342   0.000318   0.000017   0.000033   0.000071   0.000182
    19  C   -0.000394  -0.000087  -0.000010   0.000006  -0.000035  -0.000117
    20  H    0.000026  -0.000004   0.000000   0.000000  -0.000001  -0.000003
    21  H   -0.000017   0.000000   0.000000  -0.000003  -0.000002  -0.000008
    22  H    0.000008  -0.000009   0.000000   0.000001   0.000001  -0.000003
    23  H    0.000004  -0.000004   0.000001   0.000000   0.000002   0.000015
    24  H    0.000088   0.000014  -0.000001  -0.000001  -0.000003  -0.000007
    25  H    0.000022  -0.000125   0.000011   0.000002  -0.000019   0.000560
    26  H   -0.000114  -0.000263   0.000115   0.000002   0.000002   0.000955
    27  H    0.000010   0.000086   0.000070  -0.000007   0.000000  -0.000075
    28  H   -0.000051   0.000083  -0.000004   0.000000   0.000000  -0.000007
    29  H   -0.008060  -0.000133   0.000040  -0.000061   0.000640   0.000002
    30  H    0.000252   0.000053   0.000000  -0.000036   0.000416   0.000001
    31  H    0.009840  -0.000175  -0.000026   0.000299  -0.006466   0.000024
    32  H    0.000091  -0.000003   0.000001  -0.000070  -0.000005   0.000000
    33  H    0.000056   0.000005   0.000000  -0.000053  -0.000009   0.000000
    34  H   -0.000004   0.000000   0.000000  -0.000014   0.000001   0.000000
    35  H    0.000015   0.000000   0.000000   0.000001   0.000000   0.000000
    36  H    0.000002   0.000000   0.000000   0.000003   0.000000   0.000000
    37  C    5.373262   0.213889  -0.039849   0.416636   0.443554  -0.039542
    38  C    0.213889   5.202967   0.524614  -0.042556  -0.031290   0.409338
    39  C   -0.039849   0.524614   5.007814   0.003194  -0.004729  -0.026639
    40  H    0.416636  -0.042556   0.003194   0.473810  -0.012123   0.002843
    41  H    0.443554  -0.031290  -0.004729  -0.012123   0.493575   0.000323
    42  H   -0.039542   0.409338  -0.026639   0.002843   0.000323   0.489436
    43  H    0.006409  -0.054522   0.427366   0.000195  -0.000342  -0.005949
    44  H    0.008063  -0.065066   0.430529  -0.001113   0.000679   0.003838
              43         44
     1  C    0.000004  -0.000014
     2  C    0.000022   0.000130
     3  C   -0.000161  -0.002353
     4  C   -0.000025   0.000227
     5  C    0.000020  -0.000060
     6  H    0.000000   0.000060
     7  H    0.000000   0.000003
     8  H    0.000000  -0.000018
     9  H    0.000021   0.000201
    10  O   -0.000002  -0.000057
    11  O    0.000008   0.000097
    12  C    0.000000   0.000004
    13  C    0.000000  -0.000001
    14  C    0.000001  -0.000007
    15  O    0.000018  -0.000026
    16  Si   0.000004   0.000008
    17  C   -0.000004  -0.000003
    18  C    0.000000   0.000000
    19  C    0.000001   0.000000
    20  H    0.000000   0.000000
    21  H    0.000000   0.000000
    22  H    0.000000   0.000000
    23  H    0.000000   0.000000
    24  H    0.000000   0.000000
    25  H   -0.000001   0.000000
    26  H   -0.000001   0.000004
    27  H   -0.000001   0.000000
    28  H    0.000000   0.000000
    29  H    0.000000   0.000001
    30  H    0.000000   0.000000
    31  H    0.000000   0.000001
    32  H    0.000000   0.000000
    33  H    0.000000   0.000000
    34  H    0.000000   0.000000
    35  H    0.000000   0.000000
    36  H    0.000000   0.000000
    37  C    0.006409   0.008063
    38  C   -0.054522  -0.065066
    39  C    0.427366   0.430529
    40  H    0.000195  -0.001113
    41  H   -0.000342   0.000679
    42  H   -0.005949   0.003838
    43  H    0.503197  -0.023224
    44  H   -0.023224   0.504090
 Mulliken charges:
               1
     1  C   -0.036618
     2  C   -0.188358
     3  C    0.286841
     4  C   -0.460557
     5  C    0.344249
     6  H    0.185961
     7  H    0.189856
     8  H    0.200603
     9  H    0.218596
    10  O   -0.243953
    11  O   -0.371115
    12  C   -0.251922
    13  C   -0.441678
    14  C   -0.494669
    15  O   -0.398268
    16  Si   0.456994
    17  C   -0.553380
    18  C   -0.581007
    19  C   -0.570650
    20  H    0.172520
    21  H    0.164486
    22  H    0.166886
    23  H    0.154472
    24  H    0.156144
    25  H    0.158729
    26  H    0.165523
    27  H    0.163843
    28  H    0.163518
    29  H    0.172559
    30  H    0.167702
    31  H    0.167799
    32  H    0.150846
    33  H    0.145477
    34  H    0.158177
    35  H    0.141399
    36  H    0.149804
    37  C   -0.383723
    38  C   -0.143607
    39  C   -0.316670
    40  H    0.194764
    41  H    0.187640
    42  H    0.159810
    43  H    0.146966
    44  H    0.144010
 Sum of Mulliken charges =   0.00000
 Mulliken charges with hydrogens summed into heavy atoms:
               1
     1  C    0.149343
     2  C    0.001498
     3  C    0.286841
     4  C   -0.041359
     5  C    0.344249
    10  O   -0.243953
    11  O   -0.371115
    12  C    0.044401
    13  C    0.007703
    14  C    0.013392
    15  O   -0.398268
    16  Si   0.456994
    17  C   -0.060495
    18  C   -0.077115
    19  C   -0.101305
    37  C   -0.001319
    38  C    0.016203
    39  C   -0.025694
 Electronic spatial extent (au):  <R**2>=           5549.5983
 Charge=              0.0000 electrons
 Dipole moment (field-independent basis, Debye):
    X=              2.2570    Y=             -4.0856    Z=             -3.0277  Tot=              5.5636
 Quadrupole moment (field-independent basis, Debye-Ang):
   XX=           -120.6689   YY=           -121.3164   ZZ=           -128.0640
   XY=              7.9565   XZ=             12.9245   YZ=             -7.2078
 Traceless Quadrupole moment (field-independent basis, Debye-Ang):
   XX=              2.6808   YY=              2.0334   ZZ=             -4.7142
   XY=              7.9565   XZ=             12.9245   YZ=             -7.2078
 Octapole moment (field-independent basis, Debye-Ang**2):
  XXX=             15.8873  YYY=             -3.2288  ZZZ=            -10.3260  XYY=              5.6149
  XXY=            -25.2991  XXZ=            -16.1876  XZZ=             10.7948  YZZ=            -26.6738
  YYZ=            -14.1555  XYZ=             11.9745
 Hexadecapole moment (field-independent basis, Debye-Ang**3):
 XXXX=          -4326.4280 YYYY=          -2063.0814 ZZZZ=          -1225.7333 XXXY=             38.4230
 XXXZ=             73.1494 YYYX=             37.9000 YYYZ=              1.5414 ZZZX=             32.2195
 ZZZY=            -11.0519 XXYY=          -1057.1474 XXZZ=           -958.9460 YYZZ=           -617.0952
 XXYZ=            -58.7110 YYXZ=             25.7751 ZZXY=             29.5159
 N-N= 1.622788093422D+03 E-N=-5.738672011501D+03  KE= 1.059318216786D+03
 1\1\GINC-CPU-E-68\SP\RM062X\def2TZVP\C14H26O3Si1\KE291\26-Jun-2019\0\\
 # m062x/def2tzvp int=ultrafine scrf=(solvent=chloroform)\\IP1_2ginp001
 \\0,1\C,0,-2.314229,-0.552391,-0.368994\C,0,-0.841134,-0.935202,-0.590
 736\C,0,0.097984,0.289727,-0.398498\C,0,-0.130569,0.811133,1.027083\C,
 0,-1.581442,1.071482,1.381133\H,0,-2.675157,-0.000006,-1.246288\H,0,-0
 .558583,-1.648957,0.194945\H,0,0.223403,0.065953,1.749799\H,0,0.420057
 ,1.734657,1.213559\O,0,-2.536968,0.351195,0.759415\O,0,-1.913943,1.860
 496,2.240751\C,0,-3.234096,-1.751561,-0.126072\C,0,-4.714114,-1.378085
 ,0.000678\C,0,-0.660535,-1.630928,-1.948965\O,0,1.449513,-0.115148,-0.
 597035\Si,0,2.676705,-0.786802,0.33862\C,0,3.379208,0.47994,1.547302\C
 ,0,2.110237,-2.325682,1.276453\C,0,3.984036,-1.258649,-0.928748\H,0,2.
 966027,-2.771445,1.797201\H,0,1.348376,-2.111923,2.033411\H,0,1.707039
 ,-3.083946,0.596892\H,0,4.864372,-1.690437,-0.439742\H,0,3.598044,-1.9
 98116,-1.638082\H,0,4.314198,-0.385575,-1.501145\H,0,3.6764,1.396296,1
 .026383\H,0,2.667159,0.756275,2.331138\H,0,4.27056,0.074681,2.040513\H
 ,0,0.402736,-1.740968,-2.170936\H,0,-1.108702,-2.627453,-1.94666\H,0,-
 1.120896,-1.062709,-2.763835\H,0,-2.89383,-2.267278,0.780703\H,0,-3.10
 5419,-2.453711,-0.956419\H,0,-4.879111,-0.696461,0.83855\H,0,-5.076323
 ,-0.887496,-0.909776\H,0,-5.32375,-2.272089,0.162544\C,0,-0.171866,1.4
 07477,-1.442436\C,0,0.739194,2.597793,-1.313171\C,0,0.330583,3.849825,
 -1.100507\H,0,-1.214187,1.737943,-1.372266\H,0,-0.038336,0.963145,-2.4
 36014\H,0,1.802726,2.390631,-1.414586\H,0,1.034022,4.67439,-1.029305\H
 ,0,-0.723032,4.098199,-0.993443\\Version=ES64L-G09RevD.01\State=1-A\HF
 =-1064.341002\RMSD=1.420e-09\Dipole=0.8879822,-1.6073846,-1.1912071\Qu
 adrupole=1.9931428,1.5117847,-3.5049275,5.9154273,9.6090581,-5.3588372
 \PG=C01 [X(C14H26O3Si1)]\\@


 MOM AND DAD WENT TO ALPHA CENTAURI AND ALL
 I GOT WAS THIS DUMB T-SHIRT.
 Job cpu time:       0 days  2 hours 17 minutes  4.2 seconds.
 File lengths (MBytes):  RWF=    416 Int=      0 D2E=      0 Chk=     21 Scr=      1
 Normal termination of Gaussian 09 at Wed Jun 26 13:53:26 2019.
