 Entering Gaussian System, Link 0=/usr/local/Cluster-Apps/gaussian/g09/g09
 Initial command:
 /usr/local/Cluster-Apps/gaussian/g09/l1.exe "/home/ke291/rds/hpc-work/26Jun1304IP1NMR/Gau-330993.inp" -scrdir="/home/ke291/rds/hpc-work/26Jun1304IP1NMR/"
 Entering Link 1 = /usr/local/Cluster-Apps/gaussian/g09/l1.exe PID=    331001.
  
 Copyright (c) 1988,1990,1992,1993,1995,1998,2003,2009,2013,
            Gaussian, Inc.  All Rights Reserved.
  
 This is part of the Gaussian(R) 09 program.  It is based on
 the Gaussian(R) 03 system (copyright 2003, Gaussian, Inc.),
 the Gaussian(R) 98 system (copyright 1998, Gaussian, Inc.),
 the Gaussian(R) 94 system (copyright 1995, Gaussian, Inc.),
 the Gaussian 92(TM) system (copyright 1992, Gaussian, Inc.),
 the Gaussian 90(TM) system (copyright 1990, Gaussian, Inc.),
 the Gaussian 88(TM) system (copyright 1988, Gaussian, Inc.),
 the Gaussian 86(TM) system (copyright 1986, Carnegie Mellon
 University), and the Gaussian 82(TM) system (copyright 1983,
 Carnegie Mellon University). Gaussian is a federally registered
 trademark of Gaussian, Inc.
  
 This software contains proprietary and confidential information,
 including trade secrets, belonging to Gaussian, Inc.
  
 This software is provided under written license and may be
 used, copied, transmitted, or stored only in accord with that
 written license.
  
 The following legend is applicable only to US Government
 contracts under FAR:
  
                    RESTRICTED RIGHTS LEGEND
  
 Use, reproduction and disclosure by the US Government is
 subject to restrictions as set forth in subparagraphs (a)
 and (c) of the Commercial Computer Software - Restricted
 Rights clause in FAR 52.227-19.
  
 Gaussian, Inc.
 340 Quinnipiac St., Bldg. 40, Wallingford CT 06492
  
  
 ---------------------------------------------------------------
 Warning -- This program may not be used in any manner that
 competes with the business of Gaussian, Inc. or will provide
 assistance to any competitor of Gaussian, Inc.  The licensee
 of this program is prohibited from giving any competitor of
 Gaussian, Inc. access to this program.  By using this program,
 the user acknowledges that Gaussian, Inc. is engaged in the
 business of creating and licensing software in the field of
 computational chemistry and represents and warrants to the
 licensee that it is not a competitor of Gaussian, Inc. and that
 it will not use this program in any manner prohibited above.
 ---------------------------------------------------------------
  

 Cite this work as:
 Gaussian 09, Revision D.01,
 M. J. Frisch, G. W. Trucks, H. B. Schlegel, G. E. Scuseria, 
 M. A. Robb, J. R. Cheeseman, G. Scalmani, V. Barone, B. Mennucci, 
 G. A. Petersson, H. Nakatsuji, M. Caricato, X. Li, H. P. Hratchian, 
 A. F. Izmaylov, J. Bloino, G. Zheng, J. L. Sonnenberg, M. Hada, 
 M. Ehara, K. Toyota, R. Fukuda, J. Hasegawa, M. Ishida, T. Nakajima, 
 Y. Honda, O. Kitao, H. Nakai, T. Vreven, J. A. Montgomery, Jr., 
 J. E. Peralta, F. Ogliaro, M. Bearpark, J. J. Heyd, E. Brothers, 
 K. N. Kudin, V. N. Staroverov, T. Keith, R. Kobayashi, J. Normand, 
 K. Raghavachari, A. Rendell, J. C. Burant, S. S. Iyengar, J. Tomasi, 
 M. Cossi, N. Rega, J. M. Millam, M. Klene, J. E. Knox, J. B. Cross, 
 V. Bakken, C. Adamo, J. Jaramillo, R. Gomperts, R. E. Stratmann, 
 O. Yazyev, A. J. Austin, R. Cammi, C. Pomelli, J. W. Ochterski, 
 R. L. Martin, K. Morokuma, V. G. Zakrzewski, G. A. Voth, 
 P. Salvador, J. J. Dannenberg, S. Dapprich, A. D. Daniels, 
 O. Farkas, J. B. Foresman, J. V. Ortiz, J. Cioslowski, 
 and D. J. Fox, Gaussian, Inc., Wallingford CT, 2013.
 
 ******************************************
 Gaussian 09:  ES64L-G09RevD.01 24-Apr-2013
                26-Jun-2019 
 ******************************************
 %nprocshared=4
 Will use up to    4 processors via shared memory.
 %mem=6000MB
 %chk=IP1_3ginp003.chk
 --------------------------------------------------------
 # m062x/def2tzvp int=ultrafine scrf=(solvent=chloroform)
 --------------------------------------------------------
 1/38=1/1;
 2/12=2,17=6,18=5,40=1/2;
 3/5=44,7=101,11=2,16=1,25=1,30=1,70=2201,72=7,74=-55,75=-5/1,2,3;
 4//1;
 5/5=2,38=5,53=7/2;
 6/7=2,8=2,9=2,10=2,28=1/1;
 99/5=1,9=1/99;
 ------------
 IP1_3ginp003
 ------------
 Symbolic Z-matrix:
 Charge =  0 Multiplicity = 1
 C                     2.35848   0.22285   0.28658 
 C                     0.99004   0.24489   0.98152 
 C                    -0.1195   -0.00821  -0.07665 
 C                     0.13918  -1.38692  -0.70906 
 C                     1.58254  -1.696    -1.07637 
 H                     2.39861   1.03924  -0.44293 
 H                     0.85318   1.26811   1.35064 
 H                    -0.16053  -2.16343   0.00385 
 H                    -0.45934  -1.54393  -1.60904 
 O                     2.57685  -1.00779  -0.47722 
 O                     1.8718   -2.59401  -1.83987 
 C                     3.56311   0.36185   1.2158 
 C                     4.88788   0.53762   0.46701 
 C                     0.90285  -0.71439   2.17986 
 O                    -1.36288  -0.00594   0.62001 
 Si                   -2.98945  -0.18356   0.22181 
 C                    -3.73126   1.45482  -0.35087 
 C                    -3.28472  -1.49367  -1.10497 
 C                    -3.79216  -0.70974   1.83976 
 H                    -4.36404  -1.62363  -1.24799 
 H                    -2.86097  -1.21452  -2.07529 
 H                    -2.86976  -2.46582  -0.82059 
 H                    -3.60253   0.02321   2.63089 
 H                    -4.87768  -0.80447   1.72452 
 H                    -3.40504  -1.67634   2.17862 
 H                    -4.80888   1.33616  -0.51451 
 H                    -3.59638   2.23967   0.40097 
 H                    -3.29305   1.80894  -1.2894 
 H                    -0.12155  -0.75533   2.5521 
 H                     1.21529  -1.73107   1.92057 
 H                     1.54578  -0.37286   2.99495 
 H                     3.61646  -0.51615   1.86781 
 H                     3.38207   1.22904   1.8629 
 H                     5.72058   0.63342   1.17019 
 H                     5.088    -0.31949  -0.18135 
 H                     4.87287   1.43738  -0.15827 
 C                    -0.1354    1.07932  -1.18792 
 C                    -0.22186   2.49433  -0.68547 
 C                     0.58163   3.48782  -1.0698 
 H                    -1.00402   0.85868  -1.82335 
 H                     0.73918   0.971    -1.83899 
 H                    -1.01172   2.69756   0.03535 
 H                     0.46369   4.49677  -0.68554 
 H                     1.38096   3.33215  -1.79124 
 
                          Input orientation:                          
 ---------------------------------------------------------------------
 Center     Atomic      Atomic             Coordinates (Angstroms)
 Number     Number       Type             X           Y           Z
 ---------------------------------------------------------------------
      1          6           0        2.358477    0.222846    0.286580
      2          6           0        0.990035    0.244894    0.981522
      3          6           0       -0.119503   -0.008209   -0.076645
      4          6           0        0.139176   -1.386923   -0.709060
      5          6           0        1.582536   -1.695998   -1.076372
      6          1           0        2.398606    1.039243   -0.442925
      7          1           0        0.853182    1.268110    1.350643
      8          1           0       -0.160526   -2.163428    0.003845
      9          1           0       -0.459337   -1.543927   -1.609040
     10          8           0        2.576852   -1.007795   -0.477223
     11          8           0        1.871801   -2.594010   -1.839872
     12          6           0        3.563114    0.361845    1.215796
     13          6           0        4.887882    0.537623    0.467010
     14          6           0        0.902851   -0.714386    2.179864
     15          8           0       -1.362878   -0.005940    0.620013
     16         14           0       -2.989446   -0.183557    0.221806
     17          6           0       -3.731258    1.454820   -0.350866
     18          6           0       -3.284719   -1.493671   -1.104974
     19          6           0       -3.792162   -0.709738    1.839758
     20          1           0       -4.364045   -1.623632   -1.247988
     21          1           0       -2.860967   -1.214523   -2.075291
     22          1           0       -2.869755   -2.465819   -0.820593
     23          1           0       -3.602528    0.023210    2.630892
     24          1           0       -4.877684   -0.804470    1.724515
     25          1           0       -3.405037   -1.676341    2.178615
     26          1           0       -4.808882    1.336155   -0.514510
     27          1           0       -3.596376    2.239674    0.400966
     28          1           0       -3.293049    1.808939   -1.289403
     29          1           0       -0.121547   -0.755330    2.552101
     30          1           0        1.215294   -1.731065    1.920573
     31          1           0        1.545782   -0.372859    2.994949
     32          1           0        3.616461   -0.516147    1.867808
     33          1           0        3.382074    1.229038    1.862903
     34          1           0        5.720578    0.633424    1.170192
     35          1           0        5.087997   -0.319486   -0.181352
     36          1           0        4.872867    1.437384   -0.158268
     37          6           0       -0.135396    1.079321   -1.187921
     38          6           0       -0.221855    2.494325   -0.685473
     39          6           0        0.581632    3.487825   -1.069800
     40          1           0       -1.004024    0.858679   -1.823353
     41          1           0        0.739182    0.970998   -1.838987
     42          1           0       -1.011723    2.697563    0.035349
     43          1           0        0.463688    4.496766   -0.685541
     44          1           0        1.380955    3.332150   -1.791235
 ---------------------------------------------------------------------
                    Distance matrix (angstroms):
                    1          2          3          4          5
     1  C    0.000000
     2  C    1.534948   0.000000
     3  C    2.515095   1.553980   0.000000
     4  C    2.916839   2.498971   1.538738   0.000000
     5  C    2.478242   2.890164   2.597118   1.521096   0.000000
     6  H    1.095578   2.155020   2.751761   3.325979   2.923828
     7  H    2.119132   1.096335   2.147617   3.435314   3.899781
     8  H    3.481324   2.842474   2.157112   1.095908   2.103241
     9  H    3.828177   3.465771   2.195940   1.092169   2.115681
    10  O    1.464773   2.493021   2.903440   2.477852   1.349543
    11  O    3.562770   4.098433   3.709532   2.395367   1.213685
    12  C    1.527715   2.586368   3.920333   4.299606   3.662163
    13  C    2.555294   3.942540   5.066300   5.257112   4.277429
    14  C    2.565497   1.537479   2.575990   3.062905   3.468228
    15  O    3.743261   2.393701   1.425243   2.435101   3.795982
    16  Si   5.363734   4.073943   2.890743   3.478919   4.987561
    17  C    6.245716   5.052701   3.906459   4.814983   6.220162
    18  C    6.060405   5.064543   3.644537   3.448362   4.871542
    19  C    6.411898   4.951495   4.201567   4.733970   6.193860
    20  H    7.138395   6.093298   4.690178   4.541528   5.949497
    21  H    5.906527   5.128764   3.600750   3.301086   4.579779
    22  H    5.982404   5.049115   3.762604   3.198456   4.525588
    23  H    6.408528   4.884793   4.411712   5.210000   6.601846
    24  H    7.448830   6.006940   5.149611   5.606284   7.097481
    25  H    6.356477   4.943767   4.320138   4.580816   5.955771
    26  H    7.297413   6.087397   4.897889   5.651219   7.096468
    27  H    6.288160   5.035013   4.167702   5.323412   6.670320
    28  H    6.077759   5.093932   3.852818   4.725516   6.008435
    29  H    3.498562   2.168590   2.732856   3.331975   4.117593
    30  H    2.791875   2.199312   2.956145   2.862068   3.019565
    31  H    2.889741   2.178156   3.512952   4.089810   4.281087
    32  H    2.151492   2.874509   4.242208   4.414749   3.767903
    33  H    2.131893   2.732622   4.189710   4.896390   4.520344
    34  H    3.500438   4.750220   6.006067   6.226190   5.253251
    35  H    2.821943   4.296987   5.217846   5.090062   3.870930
    36  H    2.827570   4.218713   5.198092   5.539667   4.635437
    37  C    3.021110   2.582508   1.554963   2.527263   3.265904
    38  C    3.572481   3.050818   2.577562   3.898075   4.579021
    39  C    3.956897   3.858927   3.701378   4.908062   5.279571
    40  H    4.020263   3.495758   2.141229   2.755228   3.711421
    41  H    2.774866   2.923256   2.191355   2.682636   2.899258
    42  H    4.188746   3.304219   2.851281   4.308334   5.222019
    43  H    4.775106   4.597233   4.583194   5.892678   6.305148
    44  H    3.865312   4.167991   4.043413   4.998276   5.082710
                    6          7          8          9         10
     6  H    0.000000
     7  H    2.378571   0.000000
     8  H    4.123816   3.823208   0.000000
     9  H    4.024976   4.288354   1.753416   0.000000
    10  O    2.055070   3.389967   3.010009   3.284340   0.000000
    11  O    3.928042   5.112039   2.777597   2.567131   2.206805
    12  C    2.136891   2.860635   4.659541   5.271791   2.390594
    13  C    2.697425   4.194428   5.744269   6.102097   2.936112
    14  C    3.491636   2.149503   2.822331   4.110899   3.154121
    15  O    4.046110   2.658561   2.545598   2.854902   4.210595
    16  Si   5.564909   4.259977   3.459795   3.406473   5.670245
    17  C    6.144625   4.893576   5.095848   4.613128   6.772938
    18  C    6.257327   5.547947   3.382105   2.870434   5.915079
    19  C    6.826067   5.072508   4.321177   4.868039   6.783921
    20  H    7.312488   6.506498   4.419054   3.922175   7.010662
    21  H    5.950394   5.629866   3.537741   2.468547   5.671546
    22  H    6.339063   5.702346   2.847992   2.698453   5.648829
    23  H    6.818672   4.800226   4.850788   5.505687   6.993432
    24  H    7.812904   6.105587   5.201832   5.584011   7.775545
    25  H    6.923087   5.242877   3.936208   4.800105   6.579014
    26  H    7.213956   5.961744   5.841488   5.330235   7.748842
    27  H    6.171952   4.652353   5.599114   5.310063   7.030364
    28  H    5.805505   4.945055   5.221579   4.401568   6.561201
    29  H    4.306024   2.547137   2.911678   4.248656   4.064714
    30  H    3.828963   3.074247   2.398680   3.911212   2.850682
    31  H    3.813177   2.424091   3.881279   5.156415   3.677258
    32  H    3.040049   3.329676   4.522557   5.454992   2.611834
    33  H    2.513976   2.580549   5.245468   5.873684   3.335865
    34  H    3.715149   4.911917   6.615900   7.117327   3.910318
    35  H    3.024465   4.775053   5.566095   5.857513   2.620526
    36  H    2.522204   4.296898   6.190894   6.278961   3.369320
    37  C    2.641551   2.730794   3.454904   2.676511   3.495345
    38  C    3.007143   2.608654   4.708883   4.149320   4.487870
    39  C    3.112864   3.295363   5.800015   5.166520   4.954054
    40  H    3.676422   3.700148   3.630878   2.472879   4.256579
    41  H    2.169639   3.205466   3.745682   2.795384   3.024410
    42  H    3.822187   2.692806   4.935054   4.582508   5.183655
    43  H    3.969538   3.836922   6.724811   6.180194   5.899920
    44  H    2.847978   3.796077   5.983298   5.214978   4.689554
                   11         12         13         14         15
    11  O    0.000000
    12  C    4.575448   0.000000
    13  C    4.921948   1.531858   0.000000
    14  C    4.542040   3.027325   4.514628   0.000000
    15  O    4.817913   4.975502   6.276215   2.840521   0.000000
    16  Si   5.804526   6.649926   7.914071   4.389276   1.683995
    17  C    7.071381   7.540351   8.706305   5.708329   2.947143
    18  C    5.323581   7.464699   8.566720   5.378958   2.980335
    19  C    7.012178   7.459069   8.876008   4.707318   2.807941
    20  H    6.338591   8.535350   9.654553   6.349574   3.887590
    21  H    4.935332   7.388167   8.341341   5.702877   3.312040
    22  H    4.851568   7.316035   8.417810   5.128627   3.224442
    23  H    7.536966   7.311880   8.776905   4.587583   3.010069
    24  H    7.839825   8.536168   9.937244   5.799142   3.769806
    25  H    6.695922   7.323684   8.752356   4.413984   3.064293
    26  H    7.863479   8.604275   9.778971   6.639899   3.868243
    27  H    7.634580   7.446374   8.653553   5.668685   3.174788
    28  H    6.809159   7.441577   8.463384   6.000713   3.265764
    29  H    5.161745   4.075600   5.577967   1.090701   2.415668
    30  H    3.913646   3.223235   4.554964   1.094755   3.363701
    31  H    5.330600   2.788334   4.288250   1.092870   3.772963
    32  H    4.594371   1.094913   2.165451   2.738678   5.158597
    33  H    5.532374   1.097063   2.166571   3.166056   5.058114
    34  H    5.855758   2.174968   1.094087   5.103579   7.133501
    35  H    4.274116   2.177499   1.093186   4.821487   6.508017
    36  H    5.299653   2.181809   1.095796   5.085076   6.447745
    37  C    4.236418   4.468960   5.316536   3.954405   2.439903
    38  C    5.622027   4.742181   5.591629   4.446453   3.042623
    39  C    6.264684   4.887222   5.441440   5.321849   4.340850
    40  H    4.493518   5.508359   6.329565   4.704939   2.616559
    41  H    3.740603   4.204445   4.766251   4.361017   3.379311
    42  H    6.311253   5.270500   6.297381   4.461607   2.788202
    43  H    7.320817   5.506278   6.047866   5.963180   5.031419
    44  H    5.946652   4.756760   5.020716   5.689698   4.948291
                   16         17         18         19         20
    16  Si   0.000000
    17  C    1.887463   0.000000
    18  C    1.887837   3.075984   0.000000
    19  C    1.881220   3.080236   3.089255   0.000000
    20  H    2.474598   3.268350   1.096489   3.270539   0.000000
    21  H    2.521121   3.294911   1.094991   4.055803   1.763815
    22  H    2.511900   4.041564   1.094596   3.318452   1.767724
    23  H    2.494457   3.310130   4.044580   1.095019   4.282255
    24  H    2.491809   3.275040   3.319419   1.095725   3.125800
    25  H    2.496041   4.038423   3.290866   1.094994   3.558663
    26  H    2.482344   1.096419   3.267971   3.280545   3.081592
    27  H    2.504498   1.095190   4.037679   3.287474   4.270070
    28  H    2.519120   1.094659   3.307766   4.047777   3.596010
    29  H    3.739257   5.132445   4.891319   3.739375   5.761373
    30  H    4.791704   6.306954   5.427744   5.111189   6.417191
    31  H    5.319253   6.510149   6.434231   5.471892   7.381938
    32  H    6.816007   7.924405   7.577550   7.411205   8.638471
    33  H    6.729405   7.453271   7.788939   7.431625   8.821436
    34  H    8.799512   9.608617   9.528709   9.630401  10.613271
    35  H    8.088640   8.997564   8.504949   9.115613   9.601021
    36  H    8.036658   8.606298   8.719722   9.147949   9.791724
    37  C    3.424586   3.711049   4.067604   5.073412   5.019067
    38  C    3.956484   3.675383   5.045912   5.421246   5.867856
    39  C    5.282035   4.821929   6.305966   6.724220   7.114665
    40  H    3.034935   3.156170   3.354279   4.863335   4.216948
    41  H    4.413902   4.736393   4.775474   6.073806   5.755372
    42  H    3.499572   3.014870   4.902376   4.753571   5.617628
    43  H    5.886666   5.192592   7.078970   7.183111   7.815537
    44  H    5.959273   5.633272   6.747445   7.502140   7.606571
                   21         22         23         24         25
    21  H    0.000000
    22  H    1.772029   0.000000
    23  H    4.922403   4.317982   0.000000
    24  H    4.321321   3.642723   1.769914   0.000000
    25  H    4.313352   3.147229   1.769754   1.770609   0.000000
    26  H    3.568805   4.278891   3.615615   3.098426   4.277714
    27  H    4.313253   4.915470   3.144093   3.558138   4.304860
    28  H    3.153670   4.321171   4.318949   4.292398   4.918015
    29  H    5.397040   4.674771   3.567851   4.827852   3.430606
    30  H    5.731461   4.974081   5.176238   6.166149   4.627855
    31  H    6.770168   6.199662   5.176341   6.562104   5.184214
    32  H    7.615303   7.286955   7.279217   8.500245   7.123488
    33  H    7.775341   7.741995   7.129410   8.507521   7.389572
    34  H    9.359005   9.346783   9.456549  10.709714   9.467248
    35  H    8.220348   8.266873   9.140644  10.157871   8.918639
    36  H    8.397605   8.696083   9.033915  10.180571   9.147677
    37  C    3.671224   4.492178   5.264951   5.875393   5.442223
    38  C    4.759418   5.624292   5.341689   6.194097   5.977466
    39  C    5.913931   6.886222   6.573117   7.485728   7.287959
    40  H    2.794616   3.941924   5.224034   5.509871   5.311020
    41  H    4.218224   5.086577   6.303060   6.884767   6.350124
    42  H    4.814449   5.553867   4.538863   5.482989   5.427023
    43  H    6.753041   7.720600   6.895328   7.902008   7.828006
    44  H    6.224695   7.254456   7.439045   8.285088   7.984385
                   26         27         28         29         30
    26  H    0.000000
    27  H    1.767658   0.000000
    28  H    1.766843   1.770561   0.000000
    29  H    5.979090   5.066741   5.602772   0.000000
    30  H    7.185274   6.420914   6.569683   1.771449   0.000000
    31  H    7.457800   6.324228   6.821305   1.767027   1.763017
    32  H    8.949462   7.859465   7.944516   3.807646   2.691545
    33  H    8.529673   7.201209   7.404768   4.085103   3.668851
    34  H   10.686514   9.485641   9.416842   6.161878   5.143099
    35  H   10.039938   9.072306   8.717792   5.899244   4.626929
    36  H    9.688830   8.525520   8.252254   6.090835   5.266734
    37  C    4.728733   3.981126   3.242439   4.165801   4.402882
    38  C    4.734068   3.554235   3.204172   4.588268   5.168249
    39  C    5.830581   4.601824   4.228479   5.622899   6.048196
    40  H    4.051913   3.684431   2.535297   4.746408   5.064497
    41  H    5.715645   5.042221   4.154886   4.796115   4.654258
    42  H    4.071142   2.650239   2.783715   4.364507   5.303435
    43  H    6.149692   4.770648   4.658555   6.197527   6.792836
    44  H    6.627828   5.547348   4.941490   6.150575   6.280216
                   31         32         33         34         35
    31  H    0.000000
    32  H    2.361925   0.000000
    33  H    2.686926   1.760861   0.000000
    34  H    4.665969   2.497096   2.510619   0.000000
    35  H    4.758048   2.530445   3.080110   1.770556   0.000000
    36  H    4.928413   3.082178   2.520120   1.769116   1.770143
    37  C    4.736200   5.095040   4.658598   6.328661   5.500334
    38  C    4.989067   5.505893   4.591675   6.497611   6.030439
    39  C    5.688291   5.819924   4.641696   6.290782   5.965927
    40  H    5.588759   6.071548   5.741385   7.364260   6.418486
    41  H    5.081682   4.922465   4.555815   5.829530   4.829627
    42  H    4.972681   5.925025   4.980158   7.132490   6.808533
    43  H    6.199208   6.448943   5.068490   6.782628   6.695874
    44  H    6.054900   5.761551   4.666935   5.906395   5.446864
                   36         37         38         39         40
    36  H    0.000000
    37  C    5.125533   0.000000
    38  C    5.229843   1.504050   0.000000
    39  C    4.842509   2.515745   1.334294   0.000000
    40  H    6.135573   1.098622   2.140537   3.161417   0.000000
    41  H    4.486612   1.095677   2.138858   2.636454   1.746891
    42  H    6.021124   2.209761   1.088477   2.093955   2.614637
    43  H    5.392466   3.505741   2.116539   1.086061   4.084663
    44  H    4.295366   2.781824   2.119826   1.087943   3.436163
                   41         42         43         44
    41  H    0.000000
    42  H    3.091898   0.000000
    43  H    3.719862   2.435909   0.000000
    44  H    2.447282   3.076364   1.849397   0.000000
 Stoichiometry    C14H26O3Si
 Framework group  C1[X(C14H26O3Si)]
 Deg. of freedom   126
 Full point group                 C1      NOp   1
 Largest Abelian subgroup         C1      NOp   1
 Largest concise Abelian subgroup C1      NOp   1
                         Standard orientation:                         
 ---------------------------------------------------------------------
 Center     Atomic      Atomic             Coordinates (Angstroms)
 Number     Number       Type             X           Y           Z
 ---------------------------------------------------------------------
      1          6           0        2.358477    0.222846    0.286580
      2          6           0        0.990035    0.244894    0.981522
      3          6           0       -0.119503   -0.008209   -0.076645
      4          6           0        0.139176   -1.386923   -0.709060
      5          6           0        1.582536   -1.695998   -1.076372
      6          1           0        2.398606    1.039243   -0.442925
      7          1           0        0.853182    1.268110    1.350643
      8          1           0       -0.160526   -2.163428    0.003845
      9          1           0       -0.459337   -1.543927   -1.609040
     10          8           0        2.576852   -1.007795   -0.477223
     11          8           0        1.871801   -2.594010   -1.839872
     12          6           0        3.563114    0.361845    1.215796
     13          6           0        4.887882    0.537623    0.467010
     14          6           0        0.902851   -0.714386    2.179864
     15          8           0       -1.362878   -0.005940    0.620013
     16         14           0       -2.989446   -0.183557    0.221806
     17          6           0       -3.731258    1.454820   -0.350866
     18          6           0       -3.284719   -1.493671   -1.104974
     19          6           0       -3.792162   -0.709738    1.839758
     20          1           0       -4.364045   -1.623632   -1.247988
     21          1           0       -2.860967   -1.214523   -2.075291
     22          1           0       -2.869755   -2.465819   -0.820593
     23          1           0       -3.602528    0.023210    2.630892
     24          1           0       -4.877684   -0.804470    1.724515
     25          1           0       -3.405037   -1.676341    2.178615
     26          1           0       -4.808882    1.336155   -0.514510
     27          1           0       -3.596376    2.239674    0.400966
     28          1           0       -3.293049    1.808939   -1.289403
     29          1           0       -0.121547   -0.755330    2.552101
     30          1           0        1.215294   -1.731065    1.920573
     31          1           0        1.545782   -0.372859    2.994949
     32          1           0        3.616461   -0.516147    1.867808
     33          1           0        3.382074    1.229038    1.862903
     34          1           0        5.720578    0.633424    1.170192
     35          1           0        5.087997   -0.319486   -0.181352
     36          1           0        4.872867    1.437384   -0.158268
     37          6           0       -0.135396    1.079321   -1.187921
     38          6           0       -0.221855    2.494325   -0.685473
     39          6           0        0.581632    3.487825   -1.069800
     40          1           0       -1.004024    0.858679   -1.823353
     41          1           0        0.739182    0.970998   -1.838987
     42          1           0       -1.011723    2.697563    0.035349
     43          1           0        0.463688    4.496766   -0.685541
     44          1           0        1.380955    3.332150   -1.791235
 ---------------------------------------------------------------------
 Rotational constants (GHZ):      0.5592059      0.2449965      0.2197883
 Standard basis: def2TZVP (5D, 7F)
 There are   810 symmetry adapted cartesian basis functions of A   symmetry.
 There are   720 symmetry adapted basis functions of A   symmetry.
   720 basis functions,  1144 primitive gaussians,   810 cartesian basis functions
    74 alpha electrons       74 beta electrons
       nuclear repulsion energy      1620.7241639402 Hartrees.
 NAtoms=   44 NActive=   44 NUniq=   44 SFac= 1.00D+00 NAtFMM=   60 NAOKFM=F Big=F
 Integral buffers will be    131072 words long.
 Raffenetti 2 integral format.
 Two-electron integral symmetry is turned on.
 ------------------------------------------------------------------------------
 Polarizable Continuum Model (PCM)
 =================================
 Model                : PCM (using non-symmetric T matrix).
 Atomic radii         : UFF (Universal Force Field).
 Polarization charges : Total charges.
 Charge compensation  : None.
 Solution method      : On-the-fly selection.
 Cavity type          : Scaled VdW (van der Waals Surface) (Alpha=1.100).
 Cavity algorithm     : GePol (No added spheres)
                        Default sphere list used, NSphG=   44.
                        Lebedev-Laikov grids with approx.  5.0 points / Ang**2.
                        Smoothing algorithm: Karplus/York (Gamma=1.0000).
                        Polarization charges: spherical gaussians, with
                                              point-specific exponents (IZeta= 3).
                        Self-potential: point-specific (ISelfS= 7).
                        Self-field    : sphere-specific E.n sum rule (ISelfD= 2).
 Solvent              : Chloroform, Eps=   4.711300 Eps(inf)=   2.090627
 ------------------------------------------------------------------------------
 One-electron integrals computed using PRISM.
   1 Symmetry operations used in ECPInt.
 ECPInt:  NShTT=   46360 NPrTT=  137514 LenC2=   41877 LenP2D=   89805.
 LDataN:  DoStor=T MaxTD1= 6 Len=  172
 NBasis=   720 RedAO= T EigKep=  4.09D-05  NBF=   720
 NBsUse=   720 1.00D-06 EigRej= -1.00D+00 NBFU=   720
 ExpMin= 7.01D-02 ExpMax= 4.48D+04 ExpMxC= 1.53D+03 IAcc=3 IRadAn=         5 AccDes= 0.00D+00
 Harris functional with IExCor= 1009 and IRadAn=       5 diagonalized for initial guess.
 HarFok:  IExCor= 1009 AccDes= 0.00D+00 IRadAn=         5 IDoV= 1 UseB2=F ITyADJ=14
 ICtDFT=  3500011 ScaDFX=  1.000000  1.000000  1.000000  1.000000
 FoFCou: FMM=F IPFlag=           0 FMFlag=      100000 FMFlg1=           0
         NFxFlg=           0 DoJE=T BraDBF=F KetDBF=T FulRan=T
         wScrn=  0.000000 ICntrl=     500 IOpCl=  0 I1Cent=   200000004 NGrid=           0
         NMat0=    1 NMatS0=      1 NMatT0=    0 NMatD0=    1 NMtDS0=    0 NMtDT0=    0
 Petite list used in FoFCou.
 Requested convergence on RMS density matrix=1.00D-08 within 128 cycles.
 Requested convergence on MAX density matrix=1.00D-06.
 Requested convergence on             energy=1.00D-06.
 No special actions if energy rises.
 Inv3:  Mode=1 IEnd=    24986988.
 Iteration    1 A*A^-1 deviation from unit magnitude is 3.89D-15 for   2469.
 Iteration    1 A*A^-1 deviation from orthogonality  is 3.05D-15 for   2251   1787.
 Iteration    1 A^-1*A deviation from unit magnitude is 4.00D-15 for   1757.
 Iteration    1 A^-1*A deviation from orthogonality  is 2.02D-10 for   2772   2719.
 Iteration    2 A*A^-1 deviation from unit magnitude is 2.66D-15 for   1121.
 Iteration    2 A*A^-1 deviation from orthogonality  is 3.37D-15 for   2366    440.
 Iteration    2 A^-1*A deviation from unit magnitude is 1.22D-15 for    468.
 Iteration    2 A^-1*A deviation from orthogonality  is 3.70D-16 for   1222    150.
 Error on total polarization charges =  0.01472
 SCF Done:  E(RM062X) =  -1064.34169531     A.U. after   14 cycles
            NFock= 14  Conv=0.16D-08     -V/T= 2.0047

 **********************************************************************

            Population analysis using the SCF density.

 **********************************************************************

 Orbital symmetries:
       Occupied  (A) (A) (A) (A) (A) (A) (A) (A) (A) (A) (A) (A)
                 (A) (A) (A) (A) (A) (A) (A) (A) (A) (A) (A) (A)
                 (A) (A) (A) (A) (A) (A) (A) (A) (A) (A) (A) (A)
                 (A) (A) (A) (A) (A) (A) (A) (A) (A) (A) (A) (A)
                 (A) (A) (A) (A) (A) (A) (A) (A) (A) (A) (A) (A)
                 (A) (A) (A) (A) (A) (A) (A) (A) (A) (A) (A) (A)
                 (A) (A)
       Virtual   (A) (A) (A) (A) (A) (A) (A) (A) (A) (A) (A) (A)
                 (A) (A) (A) (A) (A) (A) (A) (A) (A) (A) (A) (A)
                 (A) (A) (A) (A) (A) (A) (A) (A) (A) (A) (A) (A)
                 (A) (A) (A) (A) (A) (A) (A) (A) (A) (A) (A) (A)
                 (A) (A) (A) (A) (A) (A) (A) (A) (A) (A) (A) (A)
                 (A) (A) (A) (A) (A) (A) (A) (A) (A) (A) (A) (A)
                 (A) (A) (A) (A) (A) (A) (A) (A) (A) (A) (A) (A)
                 (A) (A) (A) (A) (A) (A) (A) (A) (A) (A) (A) (A)
                 (A) (A) (A) (A) (A) (A) (A) (A) (A) (A) (A) (A)
                 (A) (A) (A) (A) (A) (A) (A) (A) (A) (A) (A) (A)
                 (A) (A) (A) (A) (A) (A) (A) (A) (A) (A) (A) (A)
                 (A) (A) (A) (A) (A) (A) (A) (A) (A) (A) (A) (A)
                 (A) (A) (A) (A) (A) (A) (A) (A) (A) (A) (A) (A)
                 (A) (A) (A) (A) (A) (A) (A) (A) (A) (A) (A) (A)
                 (A) (A) (A) (A) (A) (A) (A) (A) (A) (A) (A) (A)
                 (A) (A) (A) (A) (A) (A) (A) (A) (A) (A) (A) (A)
                 (A) (A) (A) (A) (A) (A) (A) (A) (A) (A) (A) (A)
                 (A) (A) (A) (A) (A) (A) (A) (A) (A) (A) (A) (A)
                 (A) (A) (A) (A) (A) (A) (A) (A) (A) (A) (A) (A)
                 (A) (A) (A) (A) (A) (A) (A) (A) (A) (A) (A) (A)
                 (A) (A) (A) (A) (A) (A) (A) (A) (A) (A) (A) (A)
                 (A) (A) (A) (A) (A) (A) (A) (A) (A) (A) (A) (A)
                 (A) (A) (A) (A) (A) (A) (A) (A) (A) (A) (A) (A)
                 (A) (A) (A) (A) (A) (A) (A) (A) (A) (A) (A) (A)
                 (A) (A) (A) (A) (A) (A) (A) (A) (A) (A) (A) (A)
                 (A) (A) (A) (A) (A) (A) (A) (A) (A) (A) (A) (A)
                 (A) (A) (A) (A) (A) (A) (A) (A) (A) (A) (A) (A)
                 (A) (A) (A) (A) (A) (A) (A) (A) (A) (A) (A) (A)
                 (A) (A) (A) (A) (A) (A) (A) (A) (A) (A) (A) (A)
                 (A) (A) (A) (A) (A) (A) (A) (A) (A) (A) (A) (A)
                 (A) (A) (A) (A) (A) (A) (A) (A) (A) (A) (A) (A)
                 (A) (A) (A) (A) (A) (A) (A) (A) (A) (A) (A) (A)
                 (A) (A) (A) (A) (A) (A) (A) (A) (A) (A) (A) (A)
                 (A) (A) (A) (A) (A) (A) (A) (A) (A) (A) (A) (A)
                 (A) (A) (A) (A) (A) (A) (A) (A) (A) (A) (A) (A)
                 (A) (A) (A) (A) (A) (A) (A) (A) (A) (A) (A) (A)
                 (A) (A) (A) (A) (A) (A) (A) (A) (A) (A) (A) (A)
                 (A) (A) (A) (A) (A) (A) (A) (A) (A) (A) (A) (A)
                 (A) (A) (A) (A) (A) (A) (A) (A) (A) (A) (A) (A)
                 (A) (A) (A) (A) (A) (A) (A) (A) (A) (A) (A) (A)
                 (A) (A) (A) (A) (A) (A) (A) (A) (A) (A) (A) (A)
                 (A) (A) (A) (A) (A) (A) (A) (A) (A) (A) (A) (A)
                 (A) (A) (A) (A) (A) (A) (A) (A) (A) (A) (A) (A)
                 (A) (A) (A) (A) (A) (A) (A) (A) (A) (A) (A) (A)
                 (A) (A) (A) (A) (A) (A) (A) (A) (A) (A) (A) (A)
                 (A) (A) (A) (A) (A) (A) (A) (A) (A) (A) (A) (A)
                 (A) (A) (A) (A) (A) (A) (A) (A) (A) (A) (A) (A)
                 (A) (A) (A) (A) (A) (A) (A) (A) (A) (A) (A) (A)
                 (A) (A) (A) (A) (A) (A) (A) (A) (A) (A) (A) (A)
                 (A) (A) (A) (A) (A) (A) (A) (A) (A) (A) (A) (A)
                 (A) (A) (A) (A) (A) (A) (A) (A) (A) (A) (A) (A)
                 (A) (A) (A) (A) (A) (A) (A) (A) (A) (A) (A) (A)
                 (A) (A) (A) (A) (A) (A) (A) (A) (A) (A) (A) (A)
                 (A) (A) (A) (A) (A) (A) (A) (A) (A) (A)
 The electronic state is 1-A.
 Alpha  occ. eigenvalues --  -67.01754 -19.67248 -19.62027 -19.61631 -10.68281
 Alpha  occ. eigenvalues --  -10.62121 -10.60808 -10.55677 -10.55274 -10.55064
 Alpha  occ. eigenvalues --  -10.55010 -10.54073 -10.53809 -10.52775 -10.52523
 Alpha  occ. eigenvalues --  -10.51283 -10.51064 -10.50852  -5.55200  -3.86387
 Alpha  occ. eigenvalues --   -3.86244  -3.86230  -1.22885  -1.14210  -1.13403
 Alpha  occ. eigenvalues --   -0.93633  -0.90521  -0.88423  -0.84613  -0.80877
 Alpha  occ. eigenvalues --   -0.80243  -0.78292  -0.77057  -0.76831  -0.73299
 Alpha  occ. eigenvalues --   -0.70353  -0.68865  -0.65056  -0.60712  -0.59122
 Alpha  occ. eigenvalues --   -0.58727  -0.57284  -0.56483  -0.54235  -0.53326
 Alpha  occ. eigenvalues --   -0.52060  -0.50604  -0.50271  -0.49901  -0.49207
 Alpha  occ. eigenvalues --   -0.48164  -0.47844  -0.47126  -0.46604  -0.46309
 Alpha  occ. eigenvalues --   -0.45850  -0.45227  -0.44729  -0.44565  -0.44054
 Alpha  occ. eigenvalues --   -0.43583  -0.43211  -0.42378  -0.41698  -0.41328
 Alpha  occ. eigenvalues --   -0.40473  -0.39597  -0.38406  -0.36688  -0.36497
 Alpha  occ. eigenvalues --   -0.35660  -0.34650  -0.33702  -0.32169
 Alpha virt. eigenvalues --    0.02907   0.03510   0.04994   0.06684   0.07506
 Alpha virt. eigenvalues --    0.07602   0.08811   0.09594   0.09909   0.10325
 Alpha virt. eigenvalues --    0.10686   0.11265   0.11645   0.12110   0.12714
 Alpha virt. eigenvalues --    0.13085   0.13605   0.14246   0.14747   0.15357
 Alpha virt. eigenvalues --    0.15463   0.15810   0.16068   0.16326   0.16541
 Alpha virt. eigenvalues --    0.17076   0.17229   0.17454   0.17778   0.18236
 Alpha virt. eigenvalues --    0.18756   0.19403   0.19554   0.20321   0.20367
 Alpha virt. eigenvalues --    0.21477   0.21642   0.21825   0.22390   0.22552
 Alpha virt. eigenvalues --    0.23347   0.23900   0.24466   0.24747   0.25384
 Alpha virt. eigenvalues --    0.26019   0.26769   0.27150   0.27414   0.28536
 Alpha virt. eigenvalues --    0.29386   0.29441   0.29589   0.30134   0.30566
 Alpha virt. eigenvalues --    0.31195   0.31576   0.32827   0.33442   0.33674
 Alpha virt. eigenvalues --    0.33991   0.34803   0.35809   0.36162   0.36996
 Alpha virt. eigenvalues --    0.37643   0.37761   0.38120   0.38418   0.38834
 Alpha virt. eigenvalues --    0.39330   0.40354   0.40795   0.41119   0.41661
 Alpha virt. eigenvalues --    0.42192   0.42622   0.43299   0.43632   0.44175
 Alpha virt. eigenvalues --    0.44304   0.44708   0.45002   0.45963   0.46391
 Alpha virt. eigenvalues --    0.46902   0.47218   0.47462   0.47630   0.48356
 Alpha virt. eigenvalues --    0.48724   0.49062   0.49289   0.49397   0.49618
 Alpha virt. eigenvalues --    0.50273   0.50665   0.51123   0.51409   0.51568
 Alpha virt. eigenvalues --    0.51733   0.52401   0.53156   0.53301   0.54006
 Alpha virt. eigenvalues --    0.54522   0.54922   0.55008   0.55911   0.56424
 Alpha virt. eigenvalues --    0.56596   0.56853   0.57393   0.57722   0.58259
 Alpha virt. eigenvalues --    0.59336   0.59985   0.60212   0.60832   0.61848
 Alpha virt. eigenvalues --    0.62309   0.62635   0.63500   0.63611   0.64887
 Alpha virt. eigenvalues --    0.65311   0.66404   0.67705   0.68094   0.68886
 Alpha virt. eigenvalues --    0.69993   0.70892   0.71285   0.72544   0.73101
 Alpha virt. eigenvalues --    0.73918   0.75357   0.75477   0.76369   0.77457
 Alpha virt. eigenvalues --    0.78056   0.78535   0.79303   0.80624   0.81715
 Alpha virt. eigenvalues --    0.82675   0.83217   0.83906   0.84850   0.86078
 Alpha virt. eigenvalues --    0.87227   0.88015   0.88192   0.89277   0.89789
 Alpha virt. eigenvalues --    0.90756   0.91766   0.92562   0.92777   0.93777
 Alpha virt. eigenvalues --    0.94249   0.95687   0.96394   0.96951   0.97830
 Alpha virt. eigenvalues --    0.98522   0.99082   0.99571   0.99968   1.01302
 Alpha virt. eigenvalues --    1.02202   1.03074   1.03556   1.04354   1.04470
 Alpha virt. eigenvalues --    1.04769   1.05561   1.06113   1.06979   1.07352
 Alpha virt. eigenvalues --    1.07841   1.09138   1.10287   1.11163   1.11867
 Alpha virt. eigenvalues --    1.12325   1.12746   1.13461   1.15119   1.15520
 Alpha virt. eigenvalues --    1.16141   1.18034   1.18327   1.19028   1.19775
 Alpha virt. eigenvalues --    1.20879   1.21567   1.22611   1.23407   1.23802
 Alpha virt. eigenvalues --    1.25101   1.26143   1.27782   1.27921   1.29061
 Alpha virt. eigenvalues --    1.29636   1.30201   1.31648   1.32873   1.33511
 Alpha virt. eigenvalues --    1.34931   1.35144   1.36160   1.36752   1.37777
 Alpha virt. eigenvalues --    1.39280   1.40414   1.40910   1.41584   1.42241
 Alpha virt. eigenvalues --    1.43621   1.44825   1.45353   1.45908   1.46420
 Alpha virt. eigenvalues --    1.47900   1.48530   1.49596   1.49954   1.53780
 Alpha virt. eigenvalues --    1.54199   1.55259   1.55635   1.56256   1.56600
 Alpha virt. eigenvalues --    1.57271   1.57986   1.58072   1.58963   1.59040
 Alpha virt. eigenvalues --    1.59464   1.60509   1.60863   1.61091   1.61566
 Alpha virt. eigenvalues --    1.62466   1.62656   1.63522   1.63995   1.64399
 Alpha virt. eigenvalues --    1.65049   1.65373   1.65972   1.66301   1.66594
 Alpha virt. eigenvalues --    1.67442   1.67722   1.68124   1.69039   1.69240
 Alpha virt. eigenvalues --    1.70010   1.70139   1.72006   1.73123   1.73394
 Alpha virt. eigenvalues --    1.74216   1.74606   1.76154   1.76561   1.78464
 Alpha virt. eigenvalues --    1.79621   1.80838   1.81160   1.82260   1.83141
 Alpha virt. eigenvalues --    1.83647   1.84179   1.85199   1.86200   1.87604
 Alpha virt. eigenvalues --    1.87836   1.88279   1.91887   1.92883   1.93463
 Alpha virt. eigenvalues --    1.94110   1.95192   1.96046   1.97628   1.98176
 Alpha virt. eigenvalues --    1.99217   1.99838   2.00758   2.01021   2.02367
 Alpha virt. eigenvalues --    2.03899   2.04477   2.05239   2.06626   2.06719
 Alpha virt. eigenvalues --    2.06997   2.07379   2.08035   2.08941   2.09761
 Alpha virt. eigenvalues --    2.10371   2.12099   2.12324   2.12779   2.14238
 Alpha virt. eigenvalues --    2.15089   2.16050   2.17320   2.18109   2.18707
 Alpha virt. eigenvalues --    2.19795   2.20972   2.21867   2.23087   2.24927
 Alpha virt. eigenvalues --    2.25326   2.25547   2.26616   2.27287   2.29014
 Alpha virt. eigenvalues --    2.29488   2.30700   2.31684   2.32771   2.33302
 Alpha virt. eigenvalues --    2.33835   2.34471   2.35435   2.35813   2.37152
 Alpha virt. eigenvalues --    2.37572   2.38480   2.38783   2.39265   2.39808
 Alpha virt. eigenvalues --    2.40264   2.41050   2.41426   2.42120   2.42566
 Alpha virt. eigenvalues --    2.42954   2.43127   2.43861   2.44235   2.45092
 Alpha virt. eigenvalues --    2.45548   2.46232   2.46782   2.47435   2.48702
 Alpha virt. eigenvalues --    2.49829   2.51158   2.51661   2.54034   2.54446
 Alpha virt. eigenvalues --    2.55320   2.56912   2.57984   2.58175   2.58633
 Alpha virt. eigenvalues --    2.59175   2.59613   2.60516   2.60846   2.61034
 Alpha virt. eigenvalues --    2.61322   2.62708   2.62877   2.63550   2.63743
 Alpha virt. eigenvalues --    2.64694   2.65582   2.66823   2.67074   2.67803
 Alpha virt. eigenvalues --    2.68041   2.68960   2.69112   2.69474   2.70567
 Alpha virt. eigenvalues --    2.70716   2.71842   2.72622   2.72841   2.73862
 Alpha virt. eigenvalues --    2.74384   2.75131   2.77088   2.77533   2.78704
 Alpha virt. eigenvalues --    2.79910   2.81270   2.83034   2.84287   2.84860
 Alpha virt. eigenvalues --    2.85047   2.85989   2.86764   2.87196   2.87932
 Alpha virt. eigenvalues --    2.88893   2.90035   2.91648   2.92596   2.94207
 Alpha virt. eigenvalues --    2.95428   2.96715   2.97481   2.98609   3.00333
 Alpha virt. eigenvalues --    3.00714   3.02272   3.04376   3.04659   3.06963
 Alpha virt. eigenvalues --    3.07205   3.07465   3.09186   3.09561   3.10195
 Alpha virt. eigenvalues --    3.10857   3.11710   3.12248   3.12735   3.13720
 Alpha virt. eigenvalues --    3.14230   3.15037   3.15344   3.15630   3.16108
 Alpha virt. eigenvalues --    3.16366   3.16920   3.18235   3.19050   3.20532
 Alpha virt. eigenvalues --    3.21207   3.21884   3.22666   3.23518   3.24289
 Alpha virt. eigenvalues --    3.24358   3.25170   3.25555   3.25915   3.27019
 Alpha virt. eigenvalues --    3.27428   3.27758   3.28388   3.29570   3.29765
 Alpha virt. eigenvalues --    3.30387   3.31241   3.32006   3.32909   3.33019
 Alpha virt. eigenvalues --    3.33292   3.34057   3.34327   3.35050   3.36058
 Alpha virt. eigenvalues --    3.36659   3.36920   3.37738   3.38067   3.39004
 Alpha virt. eigenvalues --    3.39168   3.40782   3.41232   3.42671   3.42917
 Alpha virt. eigenvalues --    3.43473   3.43856   3.44100   3.44857   3.45811
 Alpha virt. eigenvalues --    3.46515   3.47641   3.48324   3.50522   3.51998
 Alpha virt. eigenvalues --    3.52114   3.52602   3.53067   3.54029   3.55390
 Alpha virt. eigenvalues --    3.55880   3.56581   3.57244   3.58719   3.58951
 Alpha virt. eigenvalues --    3.59951   3.60117   3.61192   3.62116   3.63094
 Alpha virt. eigenvalues --    3.63441   3.64188   3.64552   3.65150   3.65561
 Alpha virt. eigenvalues --    3.65968   3.66724   3.68410   3.69169   3.69445
 Alpha virt. eigenvalues --    3.70780   3.73000   3.74476   3.75779   3.76084
 Alpha virt. eigenvalues --    3.77663   3.78300   3.80535   3.80887   3.83453
 Alpha virt. eigenvalues --    3.84821   3.87713   3.90024   3.90282   3.91537
 Alpha virt. eigenvalues --    3.93733   3.94584   3.96250   3.98392   4.00646
 Alpha virt. eigenvalues --    4.01938   4.04481   4.06605   4.07613   4.11119
 Alpha virt. eigenvalues --    4.11995   4.12439   4.14703   4.15272   4.18941
 Alpha virt. eigenvalues --    4.21559   4.24602   4.24823   4.25293   4.26101
 Alpha virt. eigenvalues --    4.26811   4.27143   4.27890   4.28651   4.29461
 Alpha virt. eigenvalues --    4.30690   4.31314   4.33215   4.35458   4.35942
 Alpha virt. eigenvalues --    4.37112   4.37632   4.38299   4.38855   4.40325
 Alpha virt. eigenvalues --    4.41265   4.42924   4.45467   4.46834   4.48526
 Alpha virt. eigenvalues --    4.51625   4.52851   4.53859   4.55958   4.57188
 Alpha virt. eigenvalues --    4.61829   4.64738   4.66971   4.67219   4.69994
 Alpha virt. eigenvalues --    4.71047   4.74065   4.77223   4.79989   4.83126
 Alpha virt. eigenvalues --    4.84216   4.88472   4.92022   4.95232   4.99945
 Alpha virt. eigenvalues --    5.06596   5.12170   5.14019   5.17208   5.21567
 Alpha virt. eigenvalues --    5.24761   5.25385   5.27928   5.28825   5.38315
 Alpha virt. eigenvalues --    5.48184   5.49579   5.52487   5.60722   5.81260
 Alpha virt. eigenvalues --    5.85261   5.87186   5.89454   5.91524   6.01808
 Alpha virt. eigenvalues --    6.12428   6.17128   6.22534   6.36577   6.38620
 Alpha virt. eigenvalues --    6.51216   6.61193   6.63209   6.66138   6.67419
 Alpha virt. eigenvalues --    6.69521   6.76346   6.81495   6.84978   6.89212
 Alpha virt. eigenvalues --    6.91656   6.96759   7.04957   7.06776   7.15560
 Alpha virt. eigenvalues --    7.21483   7.34629   7.42065  12.16986  22.32089
 Alpha virt. eigenvalues --   22.37568  22.42573  22.43134  22.45424  22.52546
 Alpha virt. eigenvalues --   22.60990  22.65001  22.72444  22.76912  22.83611
 Alpha virt. eigenvalues --   22.86655  22.91864  23.43654  44.05454  44.48724
 Alpha virt. eigenvalues --   44.51019
          Condensed to atoms (all electrons):
               1          2          3          4          5          6
     1  C    5.483070   0.003733   0.009314  -0.008316  -0.039678   0.443292
     2  C    0.003733   5.891363  -0.016596   0.022412  -0.023754  -0.041638
     3  C    0.009314  -0.016596   5.865672  -0.230760   0.089855  -0.040213
     4  C   -0.008316   0.022412  -0.230760   6.193388   0.087305   0.002841
     5  C   -0.039678  -0.023754   0.089855   0.087305   4.430106  -0.004284
     6  H    0.443292  -0.041638  -0.040213   0.002841  -0.004284   0.534128
     7  H   -0.035624   0.435299  -0.040093   0.009238   0.000831   0.001043
     8  H    0.004728  -0.025454  -0.036647   0.407869  -0.007560  -0.000359
     9  H   -0.002728   0.015513  -0.020480   0.370106  -0.009362   0.000357
    10  O    0.136740   0.014199   0.021339  -0.164235   0.403493  -0.040427
    11  O    0.000455   0.000934   0.016507  -0.159222   0.741798   0.000273
    12  C    0.182481  -0.028907   0.015293  -0.002772   0.000772  -0.039208
    13  C   -0.043880   0.007555   0.000251  -0.000506   0.000440  -0.012651
    14  C   -0.029535   0.159440  -0.027291   0.010333  -0.006020   0.006503
    15  O    0.012696  -0.081374   0.173269  -0.020466  -0.002283  -0.000085
    16  Si  -0.001339   0.007733  -0.084029   0.005108  -0.000580   0.000065
    17  C    0.000075  -0.001735  -0.005429   0.000387  -0.000010  -0.000004
    18  C    0.000299   0.000080   0.020082  -0.001677  -0.001231  -0.000019
    19  C   -0.000051   0.000723  -0.000206   0.000051   0.000048   0.000000
    20  H   -0.000002   0.000002  -0.000657   0.000398  -0.000021   0.000000
    21  H   -0.000027   0.000087   0.005707  -0.006486  -0.000102  -0.000001
    22  H    0.000007  -0.000339  -0.003034   0.002291   0.000541   0.000000
    23  H    0.000015   0.000107   0.000046   0.000052  -0.000001   0.000000
    24  H    0.000001  -0.000043   0.000028  -0.000011   0.000000   0.000000
    25  H   -0.000005   0.000007   0.000856  -0.000571   0.000013   0.000000
    26  H   -0.000001   0.000017   0.000256  -0.000020  -0.000001   0.000000
    27  H    0.000008   0.000053   0.002255  -0.000055  -0.000002   0.000000
    28  H    0.000003   0.000161  -0.004445   0.000396   0.000007   0.000001
    29  H    0.009608  -0.063294   0.016706  -0.009127   0.000076  -0.000151
    30  H    0.007792  -0.035007  -0.029237   0.021641  -0.004874   0.000208
    31  H   -0.018798  -0.045099   0.010564  -0.001014   0.000162  -0.000069
    32  H   -0.022936  -0.019622  -0.001759   0.000305  -0.000877   0.006233
    33  H   -0.074814   0.016871  -0.002181   0.000657   0.000098  -0.000061
    34  H    0.013485  -0.000818   0.000063   0.000023   0.000010   0.000025
    35  H   -0.019325   0.000729  -0.000364   0.000647   0.000875   0.001058
    36  H    0.001573   0.000295  -0.000124   0.000064  -0.000215   0.001986
    37  C    0.047951  -0.101957   0.152744  -0.050983  -0.000578   0.012718
    38  C   -0.005503  -0.000698  -0.012613   0.001236   0.000983   0.004860
    39  C   -0.007787   0.005565  -0.011035  -0.000598   0.000080   0.003288
    40  H   -0.002870   0.017876  -0.070916   0.001974  -0.002088   0.001386
    41  H    0.004882  -0.024912  -0.003238  -0.002887  -0.000289  -0.013089
    42  H    0.001057  -0.004632   0.006542  -0.000405  -0.000038  -0.000113
    43  H    0.000020   0.000049  -0.000179   0.000028   0.000001  -0.000073
    44  H   -0.000270  -0.000412  -0.001076  -0.000059   0.000000   0.000334
               7          8          9         10         11         12
     1  C   -0.035624   0.004728  -0.002728   0.136740   0.000455   0.182481
     2  C    0.435299  -0.025454   0.015513   0.014199   0.000934  -0.028907
     3  C   -0.040093  -0.036647  -0.020480   0.021339   0.016507   0.015293
     4  C    0.009238   0.407869   0.370106  -0.164235  -0.159222  -0.002772
     5  C    0.000831  -0.007560  -0.009362   0.403493   0.741798   0.000772
     6  H    0.001043  -0.000359   0.000357  -0.040427   0.000273  -0.039208
     7  H    0.492742  -0.000367  -0.000022   0.002944   0.000035  -0.011276
     8  H   -0.000367   0.440853  -0.011140   0.000513   0.002237   0.000179
     9  H   -0.000022  -0.011140   0.467541   0.006422   0.011077   0.000012
    10  O    0.002944   0.000513   0.006422   7.999958  -0.103062  -0.038217
    11  O    0.000035   0.002237   0.011077  -0.103062   7.859995  -0.000076
    12  C   -0.011276   0.000179   0.000012  -0.038217  -0.000076   5.229667
    13  C   -0.000273   0.000030  -0.000015  -0.002967  -0.000065   0.252051
    14  C   -0.032590  -0.004234   0.000609  -0.005759  -0.000085   0.012077
    15  O    0.002595  -0.001181  -0.001059  -0.000315  -0.000216  -0.000386
    16  Si   0.000066  -0.000480  -0.000518  -0.000006  -0.000175   0.000028
    17  C   -0.000209   0.000216  -0.000198  -0.000001  -0.000001  -0.000001
    18  C    0.000068  -0.001622  -0.004443  -0.000039  -0.000169   0.000002
    19  C   -0.000009  -0.000243   0.000214   0.000000   0.000001   0.000002
    20  H   -0.000001  -0.000006   0.000378   0.000000  -0.000002   0.000000
    21  H   -0.000003   0.000028   0.001198  -0.000001  -0.000017   0.000000
    22  H    0.000003   0.000267  -0.003160   0.000002   0.000027  -0.000001
    23  H    0.000028   0.000002  -0.000007   0.000000   0.000000   0.000000
    24  H    0.000000   0.000019  -0.000003   0.000000   0.000000   0.000000
    25  H   -0.000005   0.000315   0.000000   0.000000   0.000000   0.000000
    26  H    0.000002  -0.000003   0.000003   0.000000   0.000000   0.000000
    27  H    0.000028  -0.000005   0.000003   0.000000   0.000000   0.000000
    28  H   -0.000018  -0.000010  -0.000038   0.000000   0.000000   0.000000
    29  H   -0.003052   0.001294  -0.000280  -0.000230  -0.000004  -0.000466
    30  H    0.006276  -0.006395   0.000386   0.004602  -0.000038  -0.010448
    31  H   -0.006695   0.000350   0.000021   0.000641  -0.000006   0.007425
    32  H    0.001453  -0.000054   0.000005  -0.000039  -0.000068   0.418555
    33  H   -0.000267  -0.000019  -0.000003   0.004708   0.000012   0.436264
    34  H   -0.000024   0.000000   0.000000   0.000218   0.000002  -0.053091
    35  H   -0.000057  -0.000007  -0.000006   0.008700   0.000297  -0.035506
    36  H    0.000164  -0.000001   0.000000  -0.000869   0.000003  -0.046577
    37  C   -0.014031   0.008909  -0.014487  -0.012289   0.001641  -0.002292
    38  C    0.002274  -0.000543   0.000278   0.001398   0.000018   0.000769
    39  C    0.000729  -0.000015   0.000035  -0.000026   0.000003   0.000436
    40  H   -0.000077  -0.000643   0.003302  -0.000063  -0.000079   0.000036
    41  H    0.000895   0.000154  -0.000654   0.003463  -0.000588   0.000507
    42  H    0.000746   0.000013   0.000011  -0.000005   0.000001  -0.000032
    43  H    0.000052   0.000000   0.000000   0.000000   0.000000   0.000014
    44  H    0.000141   0.000001   0.000002   0.000007  -0.000001  -0.000094
              13         14         15         16         17         18
     1  C   -0.043880  -0.029535   0.012696  -0.001339   0.000075   0.000299
     2  C    0.007555   0.159440  -0.081374   0.007733  -0.001735   0.000080
     3  C    0.000251  -0.027291   0.173269  -0.084029  -0.005429   0.020082
     4  C   -0.000506   0.010333  -0.020466   0.005108   0.000387  -0.001677
     5  C    0.000440  -0.006020  -0.002283  -0.000580  -0.000010  -0.001231
     6  H   -0.012651   0.006503  -0.000085   0.000065  -0.000004  -0.000019
     7  H   -0.000273  -0.032590   0.002595   0.000066  -0.000209   0.000068
     8  H    0.000030  -0.004234  -0.001181  -0.000480   0.000216  -0.001622
     9  H   -0.000015   0.000609  -0.001059  -0.000518  -0.000198  -0.004443
    10  O   -0.002967  -0.005759  -0.000315  -0.000006  -0.000001  -0.000039
    11  O   -0.000065  -0.000085  -0.000216  -0.000175  -0.000001  -0.000169
    12  C    0.252051   0.012077  -0.000386   0.000028  -0.000001   0.000002
    13  C    5.052159  -0.000331   0.000013  -0.000003   0.000000   0.000000
    14  C   -0.000331   5.166660  -0.012555   0.000261   0.000065  -0.000416
    15  O    0.000013  -0.012555   8.055130   0.398482  -0.026354  -0.029766
    16  Si  -0.000003   0.000261   0.398482  12.414505   0.346584   0.327046
    17  C    0.000000   0.000065  -0.026354   0.346584   5.186579  -0.058287
    18  C    0.000000  -0.000416  -0.029766   0.327046  -0.058287   5.217419
    19  C    0.000000   0.000946  -0.020919   0.396377  -0.045049  -0.048600
    20  H    0.000000   0.000006   0.001081  -0.020528   0.001480   0.380695
    21  H    0.000000   0.000014   0.000382  -0.037614   0.002200   0.393081
    22  H    0.000000   0.000063   0.000340  -0.038306   0.003452   0.394690
    23  H    0.000000  -0.000129   0.000977  -0.032534   0.000294   0.003590
    24  H    0.000000  -0.000024   0.001218  -0.043084   0.002478   0.002377
    25  H    0.000000   0.000142   0.000973  -0.034518   0.003453   0.000829
    26  H    0.000000   0.000001   0.001100  -0.026766   0.386176   0.001385
    27  H    0.000000  -0.000017  -0.000428  -0.041546   0.396943   0.003606
    28  H    0.000000  -0.000009   0.001134  -0.029996   0.386607   0.001303
    29  H    0.000046   0.424489   0.006541  -0.002078   0.000126   0.000357
    30  H   -0.000220   0.412506  -0.000333  -0.000160  -0.000009   0.000022
    31  H    0.000351   0.431164   0.000598   0.000024   0.000005  -0.000004
    32  H   -0.034024   0.004808  -0.000003   0.000001   0.000000   0.000000
    33  H   -0.030935  -0.006433  -0.000011  -0.000002   0.000000   0.000000
    34  H    0.423124   0.000023   0.000000   0.000000   0.000000   0.000000
    35  H    0.421162  -0.000081   0.000000   0.000000   0.000000   0.000000
    36  H    0.411576  -0.000007   0.000000   0.000000   0.000000   0.000000
    37  C   -0.000158   0.009073  -0.080992   0.026104   0.014852  -0.015041
    38  C    0.000238  -0.000161   0.016322  -0.009674  -0.003830   0.002330
    39  C    0.000015  -0.000279   0.003067  -0.000240   0.000631   0.000045
    40  H   -0.000003  -0.000202  -0.005961   0.002817  -0.006055   0.000365
    41  H    0.000184  -0.000940   0.004029   0.000340   0.000163   0.000006
    42  H    0.000005  -0.000393   0.005003  -0.001762  -0.002157   0.000414
    43  H   -0.000005   0.000002  -0.000007   0.000023   0.000022  -0.000001
    44  H    0.000044  -0.000030   0.000011  -0.000036  -0.000016   0.000003
              19         20         21         22         23         24
     1  C   -0.000051  -0.000002  -0.000027   0.000007   0.000015   0.000001
     2  C    0.000723   0.000002   0.000087  -0.000339   0.000107  -0.000043
     3  C   -0.000206  -0.000657   0.005707  -0.003034   0.000046   0.000028
     4  C    0.000051   0.000398  -0.006486   0.002291   0.000052  -0.000011
     5  C    0.000048  -0.000021  -0.000102   0.000541  -0.000001   0.000000
     6  H    0.000000   0.000000  -0.000001   0.000000   0.000000   0.000000
     7  H   -0.000009  -0.000001  -0.000003   0.000003   0.000028   0.000000
     8  H   -0.000243  -0.000006   0.000028   0.000267   0.000002   0.000019
     9  H    0.000214   0.000378   0.001198  -0.003160  -0.000007  -0.000003
    10  O    0.000000   0.000000  -0.000001   0.000002   0.000000   0.000000
    11  O    0.000001  -0.000002  -0.000017   0.000027   0.000000   0.000000
    12  C    0.000002   0.000000   0.000000  -0.000001   0.000000   0.000000
    13  C    0.000000   0.000000   0.000000   0.000000   0.000000   0.000000
    14  C    0.000946   0.000006   0.000014   0.000063  -0.000129  -0.000024
    15  O   -0.020919   0.001081   0.000382   0.000340   0.000977   0.001218
    16  Si   0.396377  -0.020528  -0.037614  -0.038306  -0.032534  -0.043084
    17  C   -0.045049   0.001480   0.002200   0.003452   0.000294   0.002478
    18  C   -0.048600   0.380695   0.393081   0.394690   0.003590   0.002377
    19  C    5.113923   0.000470   0.003198   0.000830   0.387812   0.394431
    20  H    0.000470   0.493117  -0.014410  -0.015091  -0.000144   0.000255
    21  H    0.003198  -0.014410   0.506351  -0.020507  -0.000095  -0.000169
    22  H    0.000830  -0.015091  -0.020507   0.503100  -0.000185   0.000248
    23  H    0.387812  -0.000144  -0.000095  -0.000185   0.515452  -0.017506
    24  H    0.394431   0.000255  -0.000169   0.000248  -0.017506   0.520139
    25  H    0.389557   0.000251  -0.000130   0.000770  -0.018554  -0.018036
    26  H    0.001053   0.000480   0.000149  -0.000132   0.000235   0.000175
    27  H    0.001421  -0.000124  -0.000210  -0.000088   0.000857   0.000262
    28  H    0.002598   0.000120   0.000632  -0.000165  -0.000125  -0.000121
    29  H   -0.001420  -0.000005  -0.000010   0.000003   0.000155   0.000090
    30  H   -0.000016  -0.000001  -0.000003   0.000008   0.000005   0.000000
    31  H   -0.000019   0.000000   0.000000   0.000000   0.000001   0.000000
    32  H    0.000000   0.000000   0.000000   0.000000   0.000000   0.000000
    33  H    0.000000   0.000000   0.000000   0.000000   0.000000   0.000000
    34  H    0.000000   0.000000   0.000000   0.000000   0.000000   0.000000
    35  H    0.000000   0.000000   0.000000   0.000000   0.000000   0.000000
    36  H    0.000000   0.000000   0.000000   0.000000   0.000000   0.000000
    37  C   -0.001554   0.000286  -0.004049   0.001370   0.000163   0.000066
    38  C    0.000594  -0.000045   0.000406  -0.000110  -0.000072  -0.000023
    39  C    0.000026  -0.000001   0.000005  -0.000001   0.000000  -0.000001
    40  H    0.000343  -0.000008   0.003154  -0.000313  -0.000014  -0.000009
    41  H    0.000009   0.000002   0.000008   0.000001   0.000001  -0.000001
    42  H    0.000039  -0.000008   0.000004  -0.000011   0.000081  -0.000004
    43  H    0.000000   0.000000   0.000000   0.000000   0.000000   0.000000
    44  H    0.000000   0.000000   0.000001   0.000000   0.000000   0.000000
              25         26         27         28         29         30
     1  C   -0.000005  -0.000001   0.000008   0.000003   0.009608   0.007792
     2  C    0.000007   0.000017   0.000053   0.000161  -0.063294  -0.035007
     3  C    0.000856   0.000256   0.002255  -0.004445   0.016706  -0.029237
     4  C   -0.000571  -0.000020  -0.000055   0.000396  -0.009127   0.021641
     5  C    0.000013  -0.000001  -0.000002   0.000007   0.000076  -0.004874
     6  H    0.000000   0.000000   0.000000   0.000001  -0.000151   0.000208
     7  H   -0.000005   0.000002   0.000028  -0.000018  -0.003052   0.006276
     8  H    0.000315  -0.000003  -0.000005  -0.000010   0.001294  -0.006395
     9  H    0.000000   0.000003   0.000003  -0.000038  -0.000280   0.000386
    10  O    0.000000   0.000000   0.000000   0.000000  -0.000230   0.004602
    11  O    0.000000   0.000000   0.000000   0.000000  -0.000004  -0.000038
    12  C    0.000000   0.000000   0.000000   0.000000  -0.000466  -0.010448
    13  C    0.000000   0.000000   0.000000   0.000000   0.000046  -0.000220
    14  C    0.000142   0.000001  -0.000017  -0.000009   0.424489   0.412506
    15  O    0.000973   0.001100  -0.000428   0.001134   0.006541  -0.000333
    16  Si  -0.034518  -0.026766  -0.041546  -0.029996  -0.002078  -0.000160
    17  C    0.003453   0.386176   0.396943   0.386607   0.000126  -0.000009
    18  C    0.000829   0.001385   0.003606   0.001303   0.000357   0.000022
    19  C    0.389557   0.001053   0.001421   0.002598  -0.001420  -0.000016
    20  H    0.000251   0.000480  -0.000124   0.000120  -0.000005  -0.000001
    21  H   -0.000130   0.000149  -0.000210   0.000632  -0.000010  -0.000003
    22  H    0.000770  -0.000132  -0.000088  -0.000165   0.000003   0.000008
    23  H   -0.018554   0.000235   0.000857  -0.000125   0.000155   0.000005
    24  H   -0.018036   0.000175   0.000262  -0.000121   0.000090   0.000000
    25  H    0.517077  -0.000147  -0.000185  -0.000097   0.000055  -0.000023
    26  H   -0.000147   0.499351  -0.015568  -0.016293  -0.000005   0.000000
    27  H   -0.000185  -0.015568   0.507121  -0.019306  -0.000001   0.000000
    28  H   -0.000097  -0.016293  -0.019306   0.510512  -0.000004   0.000000
    29  H    0.000055  -0.000005  -0.000001  -0.000004   0.488284  -0.021978
    30  H   -0.000023   0.000000   0.000000   0.000000  -0.021978   0.512530
    31  H    0.000008   0.000000   0.000000   0.000000  -0.019134  -0.025230
    32  H    0.000000   0.000000   0.000000   0.000000   0.000380   0.000316
    33  H    0.000000   0.000000   0.000000   0.000000  -0.000149   0.000716
    34  H    0.000000   0.000000   0.000000   0.000000  -0.000002  -0.000008
    35  H    0.000000   0.000000   0.000000   0.000000  -0.000001   0.000014
    36  H    0.000000   0.000000   0.000000   0.000000   0.000002   0.000007
    37  C    0.000075  -0.000605  -0.002975   0.005075   0.001281  -0.000110
    38  C   -0.000026   0.000414  -0.001076  -0.002136  -0.000108  -0.000066
    39  C   -0.000001   0.000000   0.000191   0.000992  -0.000010   0.000004
    40  H   -0.000004   0.000189   0.000215   0.000756  -0.000071   0.000010
    41  H    0.000000   0.000001  -0.000026   0.000095  -0.000028  -0.000021
    42  H   -0.000002   0.000321   0.001345  -0.002940   0.000059   0.000004
    43  H    0.000000  -0.000001  -0.000022   0.000014   0.000000   0.000000
    44  H    0.000000   0.000001   0.000005  -0.000025   0.000000   0.000000
              31         32         33         34         35         36
     1  C   -0.018798  -0.022936  -0.074814   0.013485  -0.019325   0.001573
     2  C   -0.045099  -0.019622   0.016871  -0.000818   0.000729   0.000295
     3  C    0.010564  -0.001759  -0.002181   0.000063  -0.000364  -0.000124
     4  C   -0.001014   0.000305   0.000657   0.000023   0.000647   0.000064
     5  C    0.000162  -0.000877   0.000098   0.000010   0.000875  -0.000215
     6  H   -0.000069   0.006233  -0.000061   0.000025   0.001058   0.001986
     7  H   -0.006695   0.001453  -0.000267  -0.000024  -0.000057   0.000164
     8  H    0.000350  -0.000054  -0.000019   0.000000  -0.000007  -0.000001
     9  H    0.000021   0.000005  -0.000003   0.000000  -0.000006   0.000000
    10  O    0.000641  -0.000039   0.004708   0.000218   0.008700  -0.000869
    11  O   -0.000006  -0.000068   0.000012   0.000002   0.000297   0.000003
    12  C    0.007425   0.418555   0.436264  -0.053091  -0.035506  -0.046577
    13  C    0.000351  -0.034024  -0.030935   0.423124   0.421162   0.411576
    14  C    0.431164   0.004808  -0.006433   0.000023  -0.000081  -0.000007
    15  O    0.000598  -0.000003  -0.000011   0.000000   0.000000   0.000000
    16  Si   0.000024   0.000001  -0.000002   0.000000   0.000000   0.000000
    17  C    0.000005   0.000000   0.000000   0.000000   0.000000   0.000000
    18  C   -0.000004   0.000000   0.000000   0.000000   0.000000   0.000000
    19  C   -0.000019   0.000000   0.000000   0.000000   0.000000   0.000000
    20  H    0.000000   0.000000   0.000000   0.000000   0.000000   0.000000
    21  H    0.000000   0.000000   0.000000   0.000000   0.000000   0.000000
    22  H    0.000000   0.000000   0.000000   0.000000   0.000000   0.000000
    23  H    0.000001   0.000000   0.000000   0.000000   0.000000   0.000000
    24  H    0.000000   0.000000   0.000000   0.000000   0.000000   0.000000
    25  H    0.000008   0.000000   0.000000   0.000000   0.000000   0.000000
    26  H    0.000000   0.000000   0.000000   0.000000   0.000000   0.000000
    27  H    0.000000   0.000000   0.000000   0.000000   0.000000   0.000000
    28  H    0.000000   0.000000   0.000000   0.000000   0.000000   0.000000
    29  H   -0.019134   0.000380  -0.000149  -0.000002  -0.000001   0.000002
    30  H   -0.025230   0.000316   0.000716  -0.000008   0.000014   0.000007
    31  H    0.502496  -0.007512  -0.001273   0.000009  -0.000009  -0.000038
    32  H   -0.007512   0.516659  -0.023853  -0.004146  -0.003096   0.006187
    33  H   -0.001273  -0.023853   0.524621  -0.003733   0.006146  -0.004440
    34  H    0.000009  -0.004146  -0.003733   0.522282  -0.022979  -0.024760
    35  H   -0.000009  -0.003096   0.006146  -0.022979   0.510322  -0.026721
    36  H   -0.000038   0.006187  -0.004440  -0.024760  -0.026721   0.541594
    37  C   -0.000331   0.000183   0.000355  -0.000003   0.000022   0.000055
    38  C   -0.000062  -0.000025  -0.000031   0.000005  -0.000016  -0.000003
    39  C    0.000000  -0.000007   0.000307  -0.000001   0.000008  -0.000041
    40  H    0.000010   0.000002   0.000005   0.000000   0.000000   0.000002
    41  H    0.000000  -0.000037  -0.000055   0.000002  -0.000012   0.000004
    42  H    0.000004   0.000000  -0.000005   0.000000   0.000000   0.000001
    43  H    0.000000   0.000000   0.000006   0.000000   0.000000  -0.000004
    44  H    0.000000   0.000001  -0.000006  -0.000001  -0.000002   0.000058
              37         38         39         40         41         42
     1  C    0.047951  -0.005503  -0.007787  -0.002870   0.004882   0.001057
     2  C   -0.101957  -0.000698   0.005565   0.017876  -0.024912  -0.004632
     3  C    0.152744  -0.012613  -0.011035  -0.070916  -0.003238   0.006542
     4  C   -0.050983   0.001236  -0.000598   0.001974  -0.002887  -0.000405
     5  C   -0.000578   0.000983   0.000080  -0.002088  -0.000289  -0.000038
     6  H    0.012718   0.004860   0.003288   0.001386  -0.013089  -0.000113
     7  H   -0.014031   0.002274   0.000729  -0.000077   0.000895   0.000746
     8  H    0.008909  -0.000543  -0.000015  -0.000643   0.000154   0.000013
     9  H   -0.014487   0.000278   0.000035   0.003302  -0.000654   0.000011
    10  O   -0.012289   0.001398  -0.000026  -0.000063   0.003463  -0.000005
    11  O    0.001641   0.000018   0.000003  -0.000079  -0.000588   0.000001
    12  C   -0.002292   0.000769   0.000436   0.000036   0.000507  -0.000032
    13  C   -0.000158   0.000238   0.000015  -0.000003   0.000184   0.000005
    14  C    0.009073  -0.000161  -0.000279  -0.000202  -0.000940  -0.000393
    15  O   -0.080992   0.016322   0.003067  -0.005961   0.004029   0.005003
    16  Si   0.026104  -0.009674  -0.000240   0.002817   0.000340  -0.001762
    17  C    0.014852  -0.003830   0.000631  -0.006055   0.000163  -0.002157
    18  C   -0.015041   0.002330   0.000045   0.000365   0.000006   0.000414
    19  C   -0.001554   0.000594   0.000026   0.000343   0.000009   0.000039
    20  H    0.000286  -0.000045  -0.000001  -0.000008   0.000002  -0.000008
    21  H   -0.004049   0.000406   0.000005   0.003154   0.000008   0.000004
    22  H    0.001370  -0.000110  -0.000001  -0.000313   0.000001  -0.000011
    23  H    0.000163  -0.000072   0.000000  -0.000014   0.000001   0.000081
    24  H    0.000066  -0.000023  -0.000001  -0.000009  -0.000001  -0.000004
    25  H    0.000075  -0.000026  -0.000001  -0.000004   0.000000  -0.000002
    26  H   -0.000605   0.000414   0.000000   0.000189   0.000001   0.000321
    27  H   -0.002975  -0.001076   0.000191   0.000215  -0.000026   0.001345
    28  H    0.005075  -0.002136   0.000992   0.000756   0.000095  -0.002940
    29  H    0.001281  -0.000108  -0.000010  -0.000071  -0.000028   0.000059
    30  H   -0.000110  -0.000066   0.000004   0.000010  -0.000021   0.000004
    31  H   -0.000331  -0.000062   0.000000   0.000010   0.000000   0.000004
    32  H    0.000183  -0.000025  -0.000007   0.000002  -0.000037   0.000000
    33  H    0.000355  -0.000031   0.000307   0.000005  -0.000055  -0.000005
    34  H   -0.000003   0.000005  -0.000001   0.000000   0.000002   0.000000
    35  H    0.000022  -0.000016   0.000008   0.000000  -0.000012   0.000000
    36  H    0.000055  -0.000003  -0.000041   0.000002   0.000004   0.000001
    37  C    5.509806   0.149500  -0.042594   0.437352   0.407966  -0.057962
    38  C    0.149500   5.276560   0.517308  -0.049490  -0.041638   0.411199
    39  C   -0.042594   0.517308   5.011547  -0.004448   0.003299  -0.012693
    40  H    0.437352  -0.049490  -0.004448   0.487364  -0.010627   0.002339
    41  H    0.407966  -0.041638   0.003299  -0.010627   0.472404   0.002219
    42  H   -0.057962   0.411199  -0.012693   0.002339   0.002219   0.470077
    43  H    0.006705  -0.050966   0.424915  -0.000337   0.000173  -0.006049
    44  H    0.005782  -0.075418   0.440753   0.000754   0.000146   0.003986
              43         44
     1  C    0.000020  -0.000270
     2  C    0.000049  -0.000412
     3  C   -0.000179  -0.001076
     4  C    0.000028  -0.000059
     5  C    0.000001   0.000000
     6  H   -0.000073   0.000334
     7  H    0.000052   0.000141
     8  H    0.000000   0.000001
     9  H    0.000000   0.000002
    10  O    0.000000   0.000007
    11  O    0.000000  -0.000001
    12  C    0.000014  -0.000094
    13  C   -0.000005   0.000044
    14  C    0.000002  -0.000030
    15  O   -0.000007   0.000011
    16  Si   0.000023  -0.000036
    17  C    0.000022  -0.000016
    18  C   -0.000001   0.000003
    19  C    0.000000   0.000000
    20  H    0.000000   0.000000
    21  H    0.000000   0.000001
    22  H    0.000000   0.000000
    23  H    0.000000   0.000000
    24  H    0.000000   0.000000
    25  H    0.000000   0.000000
    26  H   -0.000001   0.000001
    27  H   -0.000022   0.000005
    28  H    0.000014  -0.000025
    29  H    0.000000   0.000000
    30  H    0.000000   0.000000
    31  H    0.000000   0.000000
    32  H    0.000000   0.000001
    33  H    0.000006  -0.000006
    34  H    0.000000  -0.000001
    35  H    0.000000  -0.000002
    36  H   -0.000004   0.000058
    37  C    0.006705   0.005782
    38  C   -0.050966  -0.075418
    39  C    0.424915   0.440753
    40  H   -0.000337   0.000754
    41  H    0.000173   0.000146
    42  H   -0.006049   0.003986
    43  H    0.498828  -0.022358
    44  H   -0.022358   0.502732
 Mulliken charges:
               1
     1  C   -0.049800
     2  C   -0.084511
     3  C    0.235253
     4  C   -0.478577
     5  C    0.346352
     6  H    0.171846
     7  H    0.187039
     8  H    0.229010
     9  H    0.191134
    10  O   -0.240797
    11  O   -0.371441
    12  C   -0.287218
    13  C   -0.443210
    14  C   -0.511660
    15  O   -0.400265
    16  Si   0.480407
    17  C   -0.583442
    18  C   -0.588782
    19  C   -0.576581
    20  H    0.172033
    21  H    0.167229
    22  H    0.173429
    23  H    0.159495
    24  H    0.157247
    25  H    0.157922
    26  H    0.168232
    27  H    0.167322
    28  H    0.165320
    29  H    0.172057
    30  H    0.167128
    31  H    0.171461
    32  H    0.162967
    33  H    0.157505
    34  H    0.150294
    35  H    0.158202
    36  H    0.140230
    37  C   -0.397044
    38  C   -0.132359
    39  C   -0.333472
    40  H    0.194024
    41  H    0.198089
    42  H    0.183741
    43  H    0.149149
    44  H    0.145040
 Sum of Mulliken charges =   0.00000
 Mulliken charges with hydrogens summed into heavy atoms:
               1
     1  C    0.122046
     2  C    0.102529
     3  C    0.235253
     4  C   -0.058433
     5  C    0.346352
    10  O   -0.240797
    11  O   -0.371441
    12  C    0.033255
    13  C    0.005516
    14  C   -0.001015
    15  O   -0.400265
    16  Si   0.480407
    17  C   -0.082568
    18  C   -0.076091
    19  C   -0.101916
    37  C   -0.004931
    38  C    0.051382
    39  C   -0.039282
 Electronic spatial extent (au):  <R**2>=           5688.2122
 Charge=              0.0000 electrons
 Dipole moment (field-independent basis, Debye):
    X=             -2.7241    Y=              3.9052    Z=              2.3968  Tot=              5.3307
 Quadrupole moment (field-independent basis, Debye-Ang):
   XX=           -118.7082   YY=           -128.1478   ZZ=           -124.2921
   XY=             12.8060   XZ=              9.2033   YZ=             -8.1157
 Traceless Quadrupole moment (field-independent basis, Debye-Ang):
   XX=              5.0079   YY=             -4.4318   ZZ=             -0.5761
   XY=             12.8060   XZ=              9.2033   YZ=             -8.1157
 Octapole moment (field-independent basis, Debye-Ang**2):
  XXX=            -22.7201  YYY=             26.0464  ZZZ=              8.4441  XYY=            -15.4285
  XXY=             20.2763  XXZ=             19.8095  XZZ=              0.7800  YZZ=             14.7731
  YYZ=             29.8305  XYZ=            -24.0000
 Hexadecapole moment (field-independent basis, Debye-Ang**3):
 XXXX=          -4854.1447 YYYY=          -1739.6344 ZZZZ=          -1127.9716 XXXY=             62.5984
 XXXZ=             70.8102 YYYX=             68.6944 YYYZ=            -48.7350 ZZZX=             23.0193
 ZZZY=             -6.8098 XXYY=          -1183.9665 XXZZ=          -1038.2685 YYZZ=           -532.4421
 XXYZ=            -26.2852 YYXZ=             21.0746 ZZXY=             30.4296
 N-N= 1.620724163940D+03 E-N=-5.734550237336D+03  KE= 1.059314687746D+03
 1\1\GINC-CPU-E-118\SP\RM062X\def2TZVP\C14H26O3Si1\KE291\26-Jun-2019\0\
 \# m062x/def2tzvp int=ultrafine scrf=(solvent=chloroform)\\IP1_3ginp00
 3\\0,1\C,0,2.358477,0.222846,0.28658\C,0,0.990035,0.244894,0.981522\C,
 0,-0.119503,-0.008209,-0.076645\C,0,0.139176,-1.386923,-0.70906\C,0,1.
 582536,-1.695998,-1.076372\H,0,2.398606,1.039243,-0.442925\H,0,0.85318
 2,1.26811,1.350643\H,0,-0.160526,-2.163428,0.003845\H,0,-0.459337,-1.5
 43927,-1.60904\O,0,2.576852,-1.007795,-0.477223\O,0,1.871801,-2.59401,
 -1.839872\C,0,3.563114,0.361845,1.215796\C,0,4.887882,0.537623,0.46701
 \C,0,0.902851,-0.714386,2.179864\O,0,-1.362878,-0.00594,0.620013\Si,0,
 -2.989446,-0.183557,0.221806\C,0,-3.731258,1.45482,-0.350866\C,0,-3.28
 4719,-1.493671,-1.104974\C,0,-3.792162,-0.709738,1.839758\H,0,-4.36404
 5,-1.623632,-1.247988\H,0,-2.860967,-1.214523,-2.075291\H,0,-2.869755,
 -2.465819,-0.820593\H,0,-3.602528,0.02321,2.630892\H,0,-4.877684,-0.80
 447,1.724515\H,0,-3.405037,-1.676341,2.178615\H,0,-4.808882,1.336155,-
 0.51451\H,0,-3.596376,2.239674,0.400966\H,0,-3.293049,1.808939,-1.2894
 03\H,0,-0.121547,-0.75533,2.552101\H,0,1.215294,-1.731065,1.920573\H,0
 ,1.545782,-0.372859,2.994949\H,0,3.616461,-0.516147,1.867808\H,0,3.382
 074,1.229038,1.862903\H,0,5.720578,0.633424,1.170192\H,0,5.087997,-0.3
 19486,-0.181352\H,0,4.872867,1.437384,-0.158268\C,0,-0.135396,1.079321
 ,-1.187921\C,0,-0.221855,2.494325,-0.685473\C,0,0.581632,3.487825,-1.0
 698\H,0,-1.004024,0.858679,-1.823353\H,0,0.739182,0.970998,-1.838987\H
 ,0,-1.011723,2.697563,0.035349\H,0,0.463688,4.496766,-0.685541\H,0,1.3
 80955,3.33215,-1.791235\\Version=ES64L-G09RevD.01\State=1-A\HF=-1064.3
 416953\RMSD=1.597e-09\Dipole=-1.0717494,1.5364206,0.9429909\Quadrupole
 =3.7232219,-3.2949295,-0.4282924,9.5209647,6.842421,-6.033827\PG=C01 [
 X(C14H26O3Si1)]\\@


 BRING ME INTO THE COMPANY OF THOSE WHO SEEK TRUTH,
 AND DELIVER ME FROM THOSE WHO HAVE FOUND IT.
 Job cpu time:       0 days  2 hours 22 minutes 41.3 seconds.
 File lengths (MBytes):  RWF=    409 Int=      0 D2E=      0 Chk=     21 Scr=      1
 Normal termination of Gaussian 09 at Wed Jun 26 13:54:50 2019.
