 Entering Gaussian System, Link 0=/usr/local/Cluster-Apps/gaussian/g09/g09
 Initial command:
 /usr/local/Cluster-Apps/gaussian/g09/l1.exe "/home/ke291/rds/hpc-work/26Jun1304IP1NMR/Gau-202893.inp" -scrdir="/home/ke291/rds/hpc-work/26Jun1304IP1NMR/"
 Entering Link 1 = /usr/local/Cluster-Apps/gaussian/g09/l1.exe PID=    202908.
  
 Copyright (c) 1988,1990,1992,1993,1995,1998,2003,2009,2013,
            Gaussian, Inc.  All Rights Reserved.
  
 This is part of the Gaussian(R) 09 program.  It is based on
 the Gaussian(R) 03 system (copyright 2003, Gaussian, Inc.),
 the Gaussian(R) 98 system (copyright 1998, Gaussian, Inc.),
 the Gaussian(R) 94 system (copyright 1995, Gaussian, Inc.),
 the Gaussian 92(TM) system (copyright 1992, Gaussian, Inc.),
 the Gaussian 90(TM) system (copyright 1990, Gaussian, Inc.),
 the Gaussian 88(TM) system (copyright 1988, Gaussian, Inc.),
 the Gaussian 86(TM) system (copyright 1986, Carnegie Mellon
 University), and the Gaussian 82(TM) system (copyright 1983,
 Carnegie Mellon University). Gaussian is a federally registered
 trademark of Gaussian, Inc.
  
 This software contains proprietary and confidential information,
 including trade secrets, belonging to Gaussian, Inc.
  
 This software is provided under written license and may be
 used, copied, transmitted, or stored only in accord with that
 written license.
  
 The following legend is applicable only to US Government
 contracts under FAR:
  
                    RESTRICTED RIGHTS LEGEND
  
 Use, reproduction and disclosure by the US Government is
 subject to restrictions as set forth in subparagraphs (a)
 and (c) of the Commercial Computer Software - Restricted
 Rights clause in FAR 52.227-19.
  
 Gaussian, Inc.
 340 Quinnipiac St., Bldg. 40, Wallingford CT 06492
  
  
 ---------------------------------------------------------------
 Warning -- This program may not be used in any manner that
 competes with the business of Gaussian, Inc. or will provide
 assistance to any competitor of Gaussian, Inc.  The licensee
 of this program is prohibited from giving any competitor of
 Gaussian, Inc. access to this program.  By using this program,
 the user acknowledges that Gaussian, Inc. is engaged in the
 business of creating and licensing software in the field of
 computational chemistry and represents and warrants to the
 licensee that it is not a competitor of Gaussian, Inc. and that
 it will not use this program in any manner prohibited above.
 ---------------------------------------------------------------
  

 Cite this work as:
 Gaussian 09, Revision D.01,
 M. J. Frisch, G. W. Trucks, H. B. Schlegel, G. E. Scuseria, 
 M. A. Robb, J. R. Cheeseman, G. Scalmani, V. Barone, B. Mennucci, 
 G. A. Petersson, H. Nakatsuji, M. Caricato, X. Li, H. P. Hratchian, 
 A. F. Izmaylov, J. Bloino, G. Zheng, J. L. Sonnenberg, M. Hada, 
 M. Ehara, K. Toyota, R. Fukuda, J. Hasegawa, M. Ishida, T. Nakajima, 
 Y. Honda, O. Kitao, H. Nakai, T. Vreven, J. A. Montgomery, Jr., 
 J. E. Peralta, F. Ogliaro, M. Bearpark, J. J. Heyd, E. Brothers, 
 K. N. Kudin, V. N. Staroverov, T. Keith, R. Kobayashi, J. Normand, 
 K. Raghavachari, A. Rendell, J. C. Burant, S. S. Iyengar, J. Tomasi, 
 M. Cossi, N. Rega, J. M. Millam, M. Klene, J. E. Knox, J. B. Cross, 
 V. Bakken, C. Adamo, J. Jaramillo, R. Gomperts, R. E. Stratmann, 
 O. Yazyev, A. J. Austin, R. Cammi, C. Pomelli, J. W. Ochterski, 
 R. L. Martin, K. Morokuma, V. G. Zakrzewski, G. A. Voth, 
 P. Salvador, J. J. Dannenberg, S. Dapprich, A. D. Daniels, 
 O. Farkas, J. B. Foresman, J. V. Ortiz, J. Cioslowski, 
 and D. J. Fox, Gaussian, Inc., Wallingford CT, 2013.
 
 ******************************************
 Gaussian 09:  ES64L-G09RevD.01 24-Apr-2013
                26-Jun-2019 
 ******************************************
 %nprocshared=4
 Will use up to    4 processors via shared memory.
 %mem=6000MB
 %chk=IP1_1ginp003.chk
 --------------------------------------------------------
 # m062x/def2tzvp int=ultrafine scrf=(solvent=chloroform)
 --------------------------------------------------------
 1/38=1/1;
 2/12=2,17=6,18=5,40=1/2;
 3/5=44,7=101,11=2,16=1,25=1,30=1,70=2201,72=7,74=-55,75=-5/1,2,3;
 4//1;
 5/5=2,38=5,53=7/2;
 6/7=2,8=2,9=2,10=2,28=1/1;
 99/5=1,9=1/99;
 ------------
 IP1_1ginp003
 ------------
 Symbolic Z-matrix:
 Charge =  0 Multiplicity = 1
 C                    -2.40156   0.14188  -0.35012 
 C                    -1.00545   0.3233   -0.96335 
 C                     0.10142   0.03972   0.09227 
 C                    -0.09137  -1.42988   0.50267 
 C                    -1.49436  -1.77834   0.96179 
 H                    -2.60867   0.98299   0.3242 
 H                    -0.87026  -0.4554   -1.72717 
 H                     0.12338  -2.06889  -0.36189 
 H                     0.58815  -1.72974   1.30441 
 O                    -2.52643  -1.05371   0.48734 
 O                    -1.72594  -2.70956   1.70471 
 C                    -3.52754   0.04161  -1.38198 
 C                    -4.9238   -0.07397  -0.76282 
 C                    -0.88      1.68183  -1.66947 
 O                     1.35068   0.22644  -0.56498 
 Si                    2.92033  -0.35234  -0.36553 
 C                     3.53502  -0.18351   1.41164 
 C                     3.06438  -2.1531   -0.91366 
 C                     3.93463   0.74046  -1.51165 
 H                     2.55977  -2.84428  -0.23145 
 H                     2.64414  -2.29856  -1.91461 
 H                     4.12053  -2.4449   -0.95311 
 H                     4.98889   0.44221  -1.50231 
 H                     3.57581   0.66782  -2.54362 
 H                     3.88121   1.79201  -1.21129 
 H                     3.46279   0.84833   1.77103 
 H                     2.98814  -0.82476   2.11098 
 H                     4.59021  -0.4776    1.46032 
 H                    -1.48936   1.70699  -2.57667 
 H                    -1.18878   2.50832  -1.02519 
 H                     0.15869   1.84654  -1.96116 
 H                    -3.32622  -0.82193  -2.02844 
 H                    -3.48519   0.93094  -2.01886 
 H                    -5.68727  -0.1267   -1.54478 
 H                    -5.00877  -0.96922  -0.14238 
 H                    -5.14946   0.79482  -0.13423 
 C                     0.04922   0.92563   1.36855 
 C                     0.31705   2.39526   1.19027 
 C                    -0.38598   3.36959   1.77047 
 H                     0.81479   0.51883   2.0435 
 H                    -0.90844   0.78375   1.88282 
 H                     1.1759    2.6496    0.57206 
 H                    -0.1227    4.41545   1.64234 
 H                    -1.24851   3.15785   2.39868 
 
                          Input orientation:                          
 ---------------------------------------------------------------------
 Center     Atomic      Atomic             Coordinates (Angstroms)
 Number     Number       Type             X           Y           Z
 ---------------------------------------------------------------------
      1          6           0       -2.401560    0.141879   -0.350119
      2          6           0       -1.005449    0.323302   -0.963346
      3          6           0        0.101423    0.039722    0.092271
      4          6           0       -0.091369   -1.429883    0.502673
      5          6           0       -1.494364   -1.778337    0.961789
      6          1           0       -2.608665    0.982993    0.324197
      7          1           0       -0.870255   -0.455399   -1.727172
      8          1           0        0.123381   -2.068892   -0.361889
      9          1           0        0.588149   -1.729736    1.304408
     10          8           0       -2.526426   -1.053705    0.487336
     11          8           0       -1.725936   -2.709556    1.704709
     12          6           0       -3.527539    0.041606   -1.381978
     13          6           0       -4.923801   -0.073971   -0.762820
     14          6           0       -0.879998    1.681826   -1.669469
     15          8           0        1.350682    0.226441   -0.564976
     16         14           0        2.920329   -0.352344   -0.365531
     17          6           0        3.535022   -0.183506    1.411644
     18          6           0        3.064384   -2.153096   -0.913664
     19          6           0        3.934632    0.740458   -1.511651
     20          1           0        2.559767   -2.844280   -0.231447
     21          1           0        2.644140   -2.298563   -1.914605
     22          1           0        4.120532   -2.444897   -0.953106
     23          1           0        4.988886    0.442214   -1.502306
     24          1           0        3.575814    0.667821   -2.543622
     25          1           0        3.881207    1.792013   -1.211287
     26          1           0        3.462791    0.848329    1.771034
     27          1           0        2.988144   -0.824764    2.110977
     28          1           0        4.590208   -0.477599    1.460315
     29          1           0       -1.489359    1.706991   -2.576672
     30          1           0       -1.188779    2.508318   -1.025193
     31          1           0        0.158685    1.846537   -1.961162
     32          1           0       -3.326223   -0.821927   -2.028440
     33          1           0       -3.485187    0.930941   -2.018860
     34          1           0       -5.687271   -0.126700   -1.544783
     35          1           0       -5.008774   -0.969220   -0.142384
     36          1           0       -5.149463    0.794822   -0.134231
     37          6           0        0.049222    0.925627    1.368554
     38          6           0        0.317053    2.395262    1.190265
     39          6           0       -0.385976    3.369590    1.770469
     40          1           0        0.814786    0.518828    2.043500
     41          1           0       -0.908442    0.783753    1.882815
     42          1           0        1.175899    2.649604    0.572060
     43          1           0       -0.122704    4.415450    1.642342
     44          1           0       -1.248505    3.157849    2.398678
 ---------------------------------------------------------------------
                    Distance matrix (angstroms):
                    1          2          3          4          5
     1  C    0.000000
     2  C    1.535607   0.000000
     3  C    2.543830   1.555606   0.000000
     4  C    2.921416   2.461384   1.537965   0.000000
     5  C    2.496265   2.891724   2.570591   1.516774   0.000000
     6  H    1.097756   2.159458   2.878911   3.491504   3.045182
     7  H    2.144274   1.099128   2.121244   2.555091   3.061076
     8  H    3.356035   2.712674   2.157081   1.096320   2.110366
     9  H    3.895993   3.449236   2.199354   1.092902   2.111069
    10  O    1.465040   2.512767   2.873543   2.463990   1.347349
    11  O    3.579032   4.103151   3.673925   2.398804   1.213559
    12  C    1.530561   2.572070   3.916986   4.186222   3.597115
    13  C    2.564881   3.943541   5.098724   5.176135   4.200021
    14  C    2.535207   1.536208   2.600658   3.875935   4.390181
    15  O    3.759340   2.391534   1.423898   2.441883   3.800583
    16  Si   5.344810   4.028103   2.882625   3.314392   4.825427
    17  C    6.201023   5.149108   3.685129   3.940862   5.295336
    18  C    5.954917   4.764300   3.820928   3.533812   4.943678
    19  C    6.469527   4.987891   4.213916   4.997656   6.475819
    20  H    5.791890   4.824937   3.803382   3.093214   4.358443
    21  H    5.819146   4.593318   3.995064   3.752446   5.066704
    22  H    7.042208   5.825694   4.839358   4.570520   5.969772
    23  H    7.485748   6.019690   5.156740   5.773533   7.282523
    24  H    6.388824   4.858388   4.406113   5.208503   6.631614
    25  H    6.552688   5.108620   4.365381   5.394408   6.809289
    26  H    6.276064   5.264756   3.843291   4.408066   5.668125
    27  H    6.003358   5.168975   3.627074   3.526501   4.724702
    28  H    7.248879   6.150362   4.721055   4.872483   6.241992
    29  H    2.870405   2.179813   3.526135   4.612670   4.966713
    30  H    2.743464   2.193566   3.001219   4.364414   4.734648
    31  H    3.472200   2.161270   2.735772   4.107060   4.941247
    32  H    2.144921   2.798565   4.121724   4.152159   3.634817
    33  H    2.140459   2.762686   4.256162   4.842481   4.493087
    34  H    3.506459   4.739201   6.018025   6.099548   5.156673
    35  H    2.841700   4.286164   5.214129   4.980882   3.771597
    36  H    2.832651   4.252366   5.309735   5.562308   4.602408
    37  C    3.094258   2.629236   1.554494   2.513552   3.139990
    38  C    3.852450   3.268038   2.607807   3.907854   4.555476
    39  C    4.356328   4.139730   3.760575   4.972830   5.327630
    40  H    4.026957   3.520314   2.132070   2.644379   3.432090
    41  H    2.761774   2.884798   2.186197   2.733603   2.784941
    42  H    4.465122   3.539411   2.862897   4.272353   5.185446
    43  H    5.237031   4.930976   4.647574   5.955480   6.380251
    44  H    4.240459   4.404196   4.106645   5.097164   5.146944
                    6          7          8          9         10
     6  H    0.000000
     7  H    3.049452   0.000000
     8  H    4.153166   2.335523   0.000000
     9  H    4.305732   3.597409   1.762833   0.000000
    10  O    2.044876   2.829296   2.961970   3.290167   0.000000
    11  O    4.039795   4.194189   2.846270   2.544657   2.205589
    12  C    2.154431   2.725313   4.338663   5.224290   2.386686
    13  C    2.767424   4.184101   5.441921   6.115274   2.875791
    14  C    2.729718   2.138026   4.096879   4.757957   3.853007
    15  O    4.127884   2.597723   2.610760   2.811171   4.216409
    16  Si   5.729627   4.029046   3.281687   3.181976   5.557556
    17  C    6.347295   5.415954   4.282452   3.329623   6.192959
    18  C    6.599306   4.361806   2.993500   3.351241   5.867590
    19  C    6.800287   4.956154   4.872375   5.023046   6.997159
    20  H    6.455188   4.439482   2.560121   2.736482   5.439868
    21  H    6.585803   3.972827   2.969495   3.861698   5.835559
    22  H    7.659244   5.428189   4.058095   4.252711   6.942070
    23  H    7.832709   5.931763   5.592794   5.653450   7.916840
    24  H    6.824331   4.657869   4.916183   5.429711   7.027638
    25  H    6.717936   5.281419   5.454294   5.438352   7.213958
    26  H    6.242920   5.719479   4.920488   3.889438   6.413761
    27  H    6.146937   5.454820   3.983690   2.688774   5.753182
    28  H    7.432891   6.322754   5.079880   4.196264   7.205905
    29  H    3.192501   2.404344   4.665135   5.584793   4.252657
    30  H    2.482649   3.062328   4.807555   5.152244   4.094515
    31  H    3.691450   2.532267   4.229599   4.861904   4.649341
    32  H    3.050824   2.501376   4.028906   5.220565   2.650005
    33  H    2.502182   2.974036   4.976577   5.891976   3.337523
    34  H    3.768597   4.831661   6.239794   7.075911   3.870373
    35  H    3.128795   4.461267   5.253235   5.830707   2.562369
    36  H    2.588671   4.734146   6.004629   6.431428   3.268596
    37  C    2.856280   3.512291   3.459346   2.710260   3.365748
    38  C    3.362202   4.248224   4.730260   4.135472   4.524915
    39  C    3.567617   5.205628   5.863743   5.212414   5.078730
    40  H    3.858947   4.243401   3.600032   2.377743   4.007269
    41  H    2.315112   3.816931   3.773717   2.981940   2.818064
    42  H    4.142699   4.371986   4.923846   4.478884   5.237259
    43  H    4.438386   5.969726   6.791479   6.195387   6.084700
    44  H    3.299016   5.497388   6.068082   5.334718   4.798281
                   11         12         13         14         15
    11  O    0.000000
    12  C    4.510244   0.000000
    13  C    4.823002   1.531751   0.000000
    14  C    5.602225   3.127690   4.500798   0.000000
    15  O    4.820490   4.949616   6.284785   2.883398   0.000000
    16  Si   5.606257   6.539370   7.859116   4.503397   1.684803
    17  C    5.843329   7.598340   8.734528   5.697817   2.974294
    18  C    5.487503   6.963439   8.255702   5.553019   2.953058
    19  C    7.368148   7.495946   8.927255   4.908334   2.799501
    20  H    4.704689   6.834278   7.997547   5.863917   3.316995
    21  H    5.689105   6.621911   7.971772   5.321949   3.141684
    22  H    6.427691   8.053547   9.351869   6.522907   3.867656
    23  H    8.081301   8.526691   9.953625   6.000698   3.763200
    24  H    7.587064   7.224900   8.715788   4.652592   3.010161
    25  H    7.759330   7.614629   9.011725   4.784469   3.045044
    26  H    6.291727   7.710837   8.809426   5.602820   3.210092
    27  H    5.093137   7.443484   8.451111   5.961316   3.308631
    28  H    6.703360   8.616613   9.778630   6.661968   3.884843
    29  H    6.155654   2.890498   4.272853   1.093147   3.782166
    30  H    5.913300   3.417859   4.548345   1.092486   3.444942
    31  H    6.143972   4.145055   5.563815   1.091365   2.448449
    32  H    4.478891   1.097329   2.171057   3.518758   5.011411
    33  H    5.496649   1.094682   2.158030   2.733663   5.098601
    34  H    5.737815   2.172389   1.094136   5.137722   7.114599
    35  H    4.149403   2.180004   1.092535   5.138757   6.484664
    36  H    5.232868   2.180561   1.095832   4.622993   6.539150
    37  C    4.059402   4.597841   5.502082   3.265711   2.433351
    38  C    5.522465   5.190088   6.113772   3.181195   2.975407
    39  C    6.225418   5.557231   6.234382   3.863390   4.283651
    40  H    4.122197   5.551345   6.415468   4.243936   2.678959
    41  H    3.592106   4.250803   4.884484   3.664160   3.377265
    42  H    6.198721   5.722084   6.812203   3.191827   2.682372
    43  H    7.303421   6.314264   6.999303   4.360537   4.958923
    44  H    5.927561   5.403548   5.826451   4.343301   4.912451
                   16         17         18         19         20
    16  Si   0.000000
    17  C    1.888043   0.000000
    18  C    1.887832   3.083479   0.000000
    19  C    1.880590   3.091772   3.080191   0.000000
    20  H    2.521454   3.275758   1.094438   4.047162   0.000000
    21  H    2.502734   4.041172   1.095285   3.326167   1.771425
    22  H    2.482843   3.323967   1.096427   3.239293   1.765301
    23  H    2.490483   3.316075   3.284180   1.095668   4.279807
    24  H    2.492885   4.046054   3.297862   1.094984   4.325894
    25  H    2.497370   3.301861   4.039760   1.094916   4.919502
    26  H    2.510138   1.095017   4.046589   3.318176   4.296597
    27  H    2.522077   1.095150   3.304350   4.058225   3.122323
    28  H    2.477478   1.096484   3.281951   3.278113   3.547665
    29  H    5.345592   6.687679   6.196970   5.611429   6.527601
    30  H    5.050080   5.958052   6.311150   5.441628   6.582700
    31  H    3.873989   5.186188   5.053455   3.960208   5.546249
    32  H    6.481141   7.701847   6.622280   7.445007   6.477961
    33  H    6.738765   7.892635   7.323225   7.439574   7.347694
    34  H    8.690934   9.684750   9.005335   9.660956   8.782012
    35  H    7.956193   8.719450   8.195872   9.207736   7.797858
    36  H    8.154203   8.875085   8.761565   9.188091   8.525535
    37  C    3.589362   3.658256   4.876295   4.840070   4.803648
    38  C    4.092296   4.129695   5.715060   4.808909   5.873996
    39  C    5.417282   5.303534   7.043409   6.029287   7.162210
    40  H    3.315974   2.879618   4.576537   4.735151   4.419371
    41  H    4.583150   4.571867   5.677035   5.914359   5.446210
    42  H    3.596360   3.781121   5.370259   3.949341   5.722191
    43  H    6.001955   5.880695   7.735405   6.317849   7.963066
    44  H    6.110768   5.917856   7.601234   6.928157   7.579317
                   21         22         23         24         25
    21  H    0.000000
    22  H    1.767944   0.000000
    23  H    3.630383   3.064485   0.000000
    24  H    3.172241   3.537721   1.769749   0.000000
    25  H    4.331028   4.251510   1.770198   1.769799   0.000000
    26  H    4.914983   4.324222   3.634371   4.319909   3.155923
    27  H    4.300667   3.646332   4.320187   4.923257   4.322328
    28  H    4.300369   3.148882   3.127639   4.286315   3.576490
    29  H    5.793842   7.165544   6.687420   5.170778   5.542065
    30  H    6.211958   7.261427   6.531460   5.328640   5.123718
    31  H    4.833374   5.926957   5.051090   3.661339   3.797691
    32  H    6.151313   7.697047   8.427094   7.079751   7.710218
    33  H    6.928868   8.389224   8.503858   7.085361   7.460387
    34  H    8.617782  10.095401  10.691389   9.350598   9.764653
    35  H    7.967121   9.283271  10.187970   9.063167   9.370097
    36  H    8.571990   9.853890  10.236312   9.052721   9.149177
    37  C    5.282815   5.772876   5.733743   5.273370   4.700033
    38  C    6.089954   6.518254   5.735012   5.248380   4.339880
    39  C    7.408733   7.844408   6.940441   6.450327   5.439528
    40  H    5.191418   5.356423   5.477383   5.356040   4.649471
    41  H    6.044990   6.614923   6.808390   6.302011   5.790578
    42  H    5.729188   6.078728   4.869747   4.403922   3.351788
    43  H    8.086116   8.473828   7.197483   6.726519   5.572874
    44  H    7.970541   8.452915   7.842028   7.341704   6.419603
                   26         27         28         29         30
    26  H    0.000000
    27  H    1.772030   0.000000
    28  H    1.767965   1.763659   0.000000
    29  H    6.645573   6.959301   7.617797   0.000000
    30  H    5.675522   6.196102   6.963486   1.771880   0.000000
    31  H    5.083584   5.632407   6.061890   1.764759   1.769082
    32  H    7.957165   7.550233   8.657936   3.173335   4.082365
    33  H    7.914829   7.876679   8.905091   2.212857   2.957868
    34  H    9.781051   9.440058  10.713558   4.695709   5.239248
    35  H    8.873109   8.309585   9.744270   5.047192   5.240705
    36  H    8.820647   8.595619   9.951021   4.493766   4.406461
    37  C    3.438084   3.500332   4.753737   4.306108   3.125313
    38  C    3.553303   4.283807   5.156172   4.233988   2.681150
    39  C    4.601061   5.393815   6.297576   4.783234   3.033481
    40  H    2.682301   2.556028   3.948010   5.297811   4.170038
    41  H    4.373139   4.221702   5.657267   4.590954   3.392525
    42  H    3.148334   4.209956   4.714435   4.231623   2.857076
    43  H    5.059317   6.112024   6.796073   5.196496   3.448103
    44  H    5.284329   5.821784   6.941727   5.188170   3.485448
                   31         32         33         34         35
    31  H    0.000000
    32  H    4.389739   0.000000
    33  H    3.757585   1.760087   0.000000
    34  H    6.184031   2.508349   2.488479   0.000000
    35  H    6.159470   2.531774   3.074588   1.771136   0.000000
    36  H    5.711411   3.086440   2.517969   1.768643   1.769662
    37  C    3.456453   5.097759   4.895574   6.519377   5.608627
    38  C    3.202760   5.829565   5.186497   7.063476   6.438954
    39  C    4.067114   6.375388   5.469107   7.163705   6.622276
    40  H    4.269730   5.960392   5.929787   7.454477   6.395798
    41  H    4.128490   4.870502   4.678071   5.951013   4.897659
    42  H    2.845497   6.251658   5.602891   7.700129   7.201146
    43  H    4.434381   7.153132   6.070626   7.858327   7.486895
    44  H    4.765284   6.305149   5.429227   6.785410   6.134274
                   36         37         38         39         40
    36  H    0.000000
    37  C    5.413114   0.000000
    38  C    5.847948   1.504443   0.000000
    39  C    5.740045   2.514734   1.334242   0.000000
    40  H    6.355388   1.098693   2.120555   3.105353   0.000000
    41  H    4.696260   1.096227   2.139725   2.640482   1.750863
    42  H    6.629424   2.208144   1.088340   2.096191   2.614526
    43  H    6.444646   3.504766   2.116346   1.086072   4.027838
    44  H    5.216991   2.779940   2.119616   1.087859   3.368643
                   41         42         43         44
    41  H    0.000000
    42  H    3.089329   0.000000
    43  H    3.723498   2.439280   0.000000
    44  H    2.453179   3.077756   1.849603   0.000000
 Stoichiometry    C14H26O3Si
 Framework group  C1[X(C14H26O3Si)]
 Deg. of freedom   126
 Full point group                 C1      NOp   1
 Largest Abelian subgroup         C1      NOp   1
 Largest concise Abelian subgroup C1      NOp   1
                         Standard orientation:                         
 ---------------------------------------------------------------------
 Center     Atomic      Atomic             Coordinates (Angstroms)
 Number     Number       Type             X           Y           Z
 ---------------------------------------------------------------------
      1          6           0       -2.401560    0.141879   -0.350119
      2          6           0       -1.005449    0.323302   -0.963346
      3          6           0        0.101423    0.039722    0.092271
      4          6           0       -0.091369   -1.429883    0.502673
      5          6           0       -1.494364   -1.778337    0.961789
      6          1           0       -2.608665    0.982993    0.324197
      7          1           0       -0.870255   -0.455399   -1.727172
      8          1           0        0.123381   -2.068892   -0.361889
      9          1           0        0.588149   -1.729736    1.304408
     10          8           0       -2.526426   -1.053705    0.487336
     11          8           0       -1.725936   -2.709556    1.704709
     12          6           0       -3.527539    0.041606   -1.381978
     13          6           0       -4.923801   -0.073971   -0.762820
     14          6           0       -0.879998    1.681826   -1.669469
     15          8           0        1.350682    0.226441   -0.564976
     16         14           0        2.920329   -0.352344   -0.365531
     17          6           0        3.535022   -0.183506    1.411644
     18          6           0        3.064384   -2.153096   -0.913664
     19          6           0        3.934632    0.740458   -1.511651
     20          1           0        2.559767   -2.844280   -0.231447
     21          1           0        2.644140   -2.298563   -1.914605
     22          1           0        4.120532   -2.444897   -0.953106
     23          1           0        4.988886    0.442214   -1.502306
     24          1           0        3.575814    0.667821   -2.543622
     25          1           0        3.881207    1.792013   -1.211287
     26          1           0        3.462791    0.848329    1.771034
     27          1           0        2.988144   -0.824764    2.110977
     28          1           0        4.590208   -0.477599    1.460315
     29          1           0       -1.489359    1.706991   -2.576672
     30          1           0       -1.188779    2.508318   -1.025193
     31          1           0        0.158685    1.846537   -1.961162
     32          1           0       -3.326223   -0.821927   -2.028440
     33          1           0       -3.485187    0.930941   -2.018860
     34          1           0       -5.687271   -0.126700   -1.544783
     35          1           0       -5.008774   -0.969220   -0.142384
     36          1           0       -5.149463    0.794822   -0.134231
     37          6           0        0.049222    0.925627    1.368554
     38          6           0        0.317053    2.395262    1.190265
     39          6           0       -0.385976    3.369590    1.770469
     40          1           0        0.814786    0.518828    2.043500
     41          1           0       -0.908442    0.783753    1.882815
     42          1           0        1.175899    2.649604    0.572060
     43          1           0       -0.122704    4.415450    1.642342
     44          1           0       -1.248505    3.157849    2.398678
 ---------------------------------------------------------------------
 Rotational constants (GHZ):      0.5276036      0.2485199      0.2216601
 Standard basis: def2TZVP (5D, 7F)
 There are   810 symmetry adapted cartesian basis functions of A   symmetry.
 There are   720 symmetry adapted basis functions of A   symmetry.
   720 basis functions,  1144 primitive gaussians,   810 cartesian basis functions
    74 alpha electrons       74 beta electrons
       nuclear repulsion energy      1616.9544108265 Hartrees.
 NAtoms=   44 NActive=   44 NUniq=   44 SFac= 1.00D+00 NAtFMM=   60 NAOKFM=F Big=F
 Integral buffers will be    131072 words long.
 Raffenetti 2 integral format.
 Two-electron integral symmetry is turned on.
 ------------------------------------------------------------------------------
 Polarizable Continuum Model (PCM)
 =================================
 Model                : PCM (using non-symmetric T matrix).
 Atomic radii         : UFF (Universal Force Field).
 Polarization charges : Total charges.
 Charge compensation  : None.
 Solution method      : On-the-fly selection.
 Cavity type          : Scaled VdW (van der Waals Surface) (Alpha=1.100).
 Cavity algorithm     : GePol (No added spheres)
                        Default sphere list used, NSphG=   44.
                        Lebedev-Laikov grids with approx.  5.0 points / Ang**2.
                        Smoothing algorithm: Karplus/York (Gamma=1.0000).
                        Polarization charges: spherical gaussians, with
                                              point-specific exponents (IZeta= 3).
                        Self-potential: point-specific (ISelfS= 7).
                        Self-field    : sphere-specific E.n sum rule (ISelfD= 2).
 Solvent              : Chloroform, Eps=   4.711300 Eps(inf)=   2.090627
 ------------------------------------------------------------------------------
 One-electron integrals computed using PRISM.
   1 Symmetry operations used in ECPInt.
 ECPInt:  NShTT=   46360 NPrTT=  137514 LenC2=   41844 LenP2D=   89690.
 LDataN:  DoStor=T MaxTD1= 6 Len=  172
 NBasis=   720 RedAO= T EigKep=  4.21D-05  NBF=   720
 NBsUse=   720 1.00D-06 EigRej= -1.00D+00 NBFU=   720
 ExpMin= 7.01D-02 ExpMax= 4.48D+04 ExpMxC= 1.53D+03 IAcc=3 IRadAn=         5 AccDes= 0.00D+00
 Harris functional with IExCor= 1009 and IRadAn=       5 diagonalized for initial guess.
 HarFok:  IExCor= 1009 AccDes= 0.00D+00 IRadAn=         5 IDoV= 1 UseB2=F ITyADJ=14
 ICtDFT=  3500011 ScaDFX=  1.000000  1.000000  1.000000  1.000000
 FoFCou: FMM=F IPFlag=           0 FMFlag=      100000 FMFlg1=           0
         NFxFlg=           0 DoJE=T BraDBF=F KetDBF=T FulRan=T
         wScrn=  0.000000 ICntrl=     500 IOpCl=  0 I1Cent=   200000004 NGrid=           0
         NMat0=    1 NMatS0=      1 NMatT0=    0 NMatD0=    1 NMtDS0=    0 NMtDT0=    0
 Petite list used in FoFCou.
 Requested convergence on RMS density matrix=1.00D-08 within 128 cycles.
 Requested convergence on MAX density matrix=1.00D-06.
 Requested convergence on             energy=1.00D-06.
 No special actions if energy rises.
 Inv3:  Mode=1 IEnd=    25614252.
 Iteration    1 A*A^-1 deviation from unit magnitude is 6.44D-15 for   2902.
 Iteration    1 A*A^-1 deviation from orthogonality  is 4.45D-15 for   2902    137.
 Iteration    1 A^-1*A deviation from unit magnitude is 6.00D-15 for   2902.
 Iteration    1 A^-1*A deviation from orthogonality  is 7.63D-10 for   2307   2305.
 Iteration    2 A*A^-1 deviation from unit magnitude is 6.00D-15 for   1460.
 Iteration    2 A*A^-1 deviation from orthogonality  is 2.53D-15 for   2762   1673.
 Iteration    2 A^-1*A deviation from unit magnitude is 1.11D-15 for    956.
 Iteration    2 A^-1*A deviation from orthogonality  is 2.99D-16 for   2161    615.
 Error on total polarization charges =  0.01486
 SCF Done:  E(RM062X) =  -1064.33929449     A.U. after   14 cycles
            NFock= 14  Conv=0.15D-08     -V/T= 2.0047

 **********************************************************************

            Population analysis using the SCF density.

 **********************************************************************

 Orbital symmetries:
       Occupied  (A) (A) (A) (A) (A) (A) (A) (A) (A) (A) (A) (A)
                 (A) (A) (A) (A) (A) (A) (A) (A) (A) (A) (A) (A)
                 (A) (A) (A) (A) (A) (A) (A) (A) (A) (A) (A) (A)
                 (A) (A) (A) (A) (A) (A) (A) (A) (A) (A) (A) (A)
                 (A) (A) (A) (A) (A) (A) (A) (A) (A) (A) (A) (A)
                 (A) (A) (A) (A) (A) (A) (A) (A) (A) (A) (A) (A)
                 (A) (A)
       Virtual   (A) (A) (A) (A) (A) (A) (A) (A) (A) (A) (A) (A)
                 (A) (A) (A) (A) (A) (A) (A) (A) (A) (A) (A) (A)
                 (A) (A) (A) (A) (A) (A) (A) (A) (A) (A) (A) (A)
                 (A) (A) (A) (A) (A) (A) (A) (A) (A) (A) (A) (A)
                 (A) (A) (A) (A) (A) (A) (A) (A) (A) (A) (A) (A)
                 (A) (A) (A) (A) (A) (A) (A) (A) (A) (A) (A) (A)
                 (A) (A) (A) (A) (A) (A) (A) (A) (A) (A) (A) (A)
                 (A) (A) (A) (A) (A) (A) (A) (A) (A) (A) (A) (A)
                 (A) (A) (A) (A) (A) (A) (A) (A) (A) (A) (A) (A)
                 (A) (A) (A) (A) (A) (A) (A) (A) (A) (A) (A) (A)
                 (A) (A) (A) (A) (A) (A) (A) (A) (A) (A) (A) (A)
                 (A) (A) (A) (A) (A) (A) (A) (A) (A) (A) (A) (A)
                 (A) (A) (A) (A) (A) (A) (A) (A) (A) (A) (A) (A)
                 (A) (A) (A) (A) (A) (A) (A) (A) (A) (A) (A) (A)
                 (A) (A) (A) (A) (A) (A) (A) (A) (A) (A) (A) (A)
                 (A) (A) (A) (A) (A) (A) (A) (A) (A) (A) (A) (A)
                 (A) (A) (A) (A) (A) (A) (A) (A) (A) (A) (A) (A)
                 (A) (A) (A) (A) (A) (A) (A) (A) (A) (A) (A) (A)
                 (A) (A) (A) (A) (A) (A) (A) (A) (A) (A) (A) (A)
                 (A) (A) (A) (A) (A) (A) (A) (A) (A) (A) (A) (A)
                 (A) (A) (A) (A) (A) (A) (A) (A) (A) (A) (A) (A)
                 (A) (A) (A) (A) (A) (A) (A) (A) (A) (A) (A) (A)
                 (A) (A) (A) (A) (A) (A) (A) (A) (A) (A) (A) (A)
                 (A) (A) (A) (A) (A) (A) (A) (A) (A) (A) (A) (A)
                 (A) (A) (A) (A) (A) (A) (A) (A) (A) (A) (A) (A)
                 (A) (A) (A) (A) (A) (A) (A) (A) (A) (A) (A) (A)
                 (A) (A) (A) (A) (A) (A) (A) (A) (A) (A) (A) (A)
                 (A) (A) (A) (A) (A) (A) (A) (A) (A) (A) (A) (A)
                 (A) (A) (A) (A) (A) (A) (A) (A) (A) (A) (A) (A)
                 (A) (A) (A) (A) (A) (A) (A) (A) (A) (A) (A) (A)
                 (A) (A) (A) (A) (A) (A) (A) (A) (A) (A) (A) (A)
                 (A) (A) (A) (A) (A) (A) (A) (A) (A) (A) (A) (A)
                 (A) (A) (A) (A) (A) (A) (A) (A) (A) (A) (A) (A)
                 (A) (A) (A) (A) (A) (A) (A) (A) (A) (A) (A) (A)
                 (A) (A) (A) (A) (A) (A) (A) (A) (A) (A) (A) (A)
                 (A) (A) (A) (A) (A) (A) (A) (A) (A) (A) (A) (A)
                 (A) (A) (A) (A) (A) (A) (A) (A) (A) (A) (A) (A)
                 (A) (A) (A) (A) (A) (A) (A) (A) (A) (A) (A) (A)
                 (A) (A) (A) (A) (A) (A) (A) (A) (A) (A) (A) (A)
                 (A) (A) (A) (A) (A) (A) (A) (A) (A) (A) (A) (A)
                 (A) (A) (A) (A) (A) (A) (A) (A) (A) (A) (A) (A)
                 (A) (A) (A) (A) (A) (A) (A) (A) (A) (A) (A) (A)
                 (A) (A) (A) (A) (A) (A) (A) (A) (A) (A) (A) (A)
                 (A) (A) (A) (A) (A) (A) (A) (A) (A) (A) (A) (A)
                 (A) (A) (A) (A) (A) (A) (A) (A) (A) (A) (A) (A)
                 (A) (A) (A) (A) (A) (A) (A) (A) (A) (A) (A) (A)
                 (A) (A) (A) (A) (A) (A) (A) (A) (A) (A) (A) (A)
                 (A) (A) (A) (A) (A) (A) (A) (A) (A) (A) (A) (A)
                 (A) (A) (A) (A) (A) (A) (A) (A) (A) (A) (A) (A)
                 (A) (A) (A) (A) (A) (A) (A) (A) (A) (A) (A) (A)
                 (A) (A) (A) (A) (A) (A) (A) (A) (A) (A) (A) (A)
                 (A) (A) (A) (A) (A) (A) (A) (A) (A) (A) (A) (A)
                 (A) (A) (A) (A) (A) (A) (A) (A) (A) (A) (A) (A)
                 (A) (A) (A) (A) (A) (A) (A) (A) (A) (A)
 The electronic state is 1-A.
 Alpha  occ. eigenvalues --  -67.01770 -19.67306 -19.62116 -19.61685 -10.68365
 Alpha  occ. eigenvalues --  -10.62154 -10.61058 -10.55849 -10.55488 -10.54820
 Alpha  occ. eigenvalues --  -10.54758 -10.54111 -10.53356 -10.52757 -10.52483
 Alpha  occ. eigenvalues --  -10.51275 -10.51082 -10.50889  -5.55218  -3.86405
 Alpha  occ. eigenvalues --   -3.86260  -3.86249  -1.22994  -1.14272  -1.13497
 Alpha  occ. eigenvalues --   -0.93550  -0.90643  -0.88256  -0.84971  -0.80817
 Alpha  occ. eigenvalues --   -0.79716  -0.78621  -0.77029  -0.76876  -0.73276
 Alpha  occ. eigenvalues --   -0.70339  -0.68328  -0.64955  -0.62555  -0.59599
 Alpha  occ. eigenvalues --   -0.58178  -0.56449  -0.55563  -0.54482  -0.53121
 Alpha  occ. eigenvalues --   -0.52107  -0.50676  -0.50419  -0.49562  -0.48950
 Alpha  occ. eigenvalues --   -0.47865  -0.47648  -0.47201  -0.46904  -0.46581
 Alpha  occ. eigenvalues --   -0.46056  -0.45338  -0.45057  -0.44589  -0.44082
 Alpha  occ. eigenvalues --   -0.43706  -0.43155  -0.42094  -0.41608  -0.40979
 Alpha  occ. eigenvalues --   -0.40419  -0.39607  -0.38463  -0.36933  -0.36501
 Alpha  occ. eigenvalues --   -0.35931  -0.34536  -0.33788  -0.31580
 Alpha virt. eigenvalues --    0.03278   0.03612   0.04868   0.06866   0.07145
 Alpha virt. eigenvalues --    0.07672   0.09172   0.09206   0.09885   0.10372
 Alpha virt. eigenvalues --    0.10776   0.11230   0.11562   0.12158   0.12756
 Alpha virt. eigenvalues --    0.13160   0.13941   0.14029   0.14566   0.14781
 Alpha virt. eigenvalues --    0.15177   0.15713   0.16012   0.16112   0.16498
 Alpha virt. eigenvalues --    0.16703   0.17053   0.17175   0.18028   0.18214
 Alpha virt. eigenvalues --    0.18646   0.19162   0.19997   0.20197   0.20470
 Alpha virt. eigenvalues --    0.21292   0.21522   0.22123   0.22885   0.23020
 Alpha virt. eigenvalues --    0.23668   0.23889   0.24593   0.25116   0.25353
 Alpha virt. eigenvalues --    0.26521   0.26986   0.27294   0.27476   0.28317
 Alpha virt. eigenvalues --    0.28442   0.29097   0.29125   0.29739   0.30509
 Alpha virt. eigenvalues --    0.31519   0.31718   0.32719   0.32793   0.33290
 Alpha virt. eigenvalues --    0.34126   0.34735   0.35858   0.36137   0.37078
 Alpha virt. eigenvalues --    0.37653   0.37847   0.38305   0.38985   0.39305
 Alpha virt. eigenvalues --    0.39638   0.40080   0.40228   0.40818   0.41644
 Alpha virt. eigenvalues --    0.42384   0.42430   0.42835   0.43564   0.44490
 Alpha virt. eigenvalues --    0.44829   0.44892   0.45301   0.45592   0.46586
 Alpha virt. eigenvalues --    0.46870   0.47240   0.47484   0.47644   0.48482
 Alpha virt. eigenvalues --    0.48634   0.49031   0.49452   0.49676   0.49860
 Alpha virt. eigenvalues --    0.50281   0.50581   0.50757   0.51188   0.51358
 Alpha virt. eigenvalues --    0.51925   0.52301   0.53031   0.53283   0.53826
 Alpha virt. eigenvalues --    0.54217   0.54884   0.54964   0.55259   0.55933
 Alpha virt. eigenvalues --    0.56501   0.57035   0.57205   0.58194   0.58574
 Alpha virt. eigenvalues --    0.59378   0.59845   0.60550   0.60893   0.61632
 Alpha virt. eigenvalues --    0.62530   0.63217   0.64013   0.64559   0.65481
 Alpha virt. eigenvalues --    0.66051   0.66306   0.66680   0.67592   0.68642
 Alpha virt. eigenvalues --    0.70385   0.71133   0.71374   0.71872   0.72390
 Alpha virt. eigenvalues --    0.74099   0.75712   0.75897   0.76021   0.76835
 Alpha virt. eigenvalues --    0.77482   0.78938   0.79595   0.80608   0.81827
 Alpha virt. eigenvalues --    0.82764   0.83374   0.84234   0.84381   0.85138
 Alpha virt. eigenvalues --    0.85652   0.88019   0.89346   0.89609   0.89752
 Alpha virt. eigenvalues --    0.91087   0.91936   0.92057   0.93234   0.93614
 Alpha virt. eigenvalues --    0.94064   0.95004   0.95104   0.96249   0.97385
 Alpha virt. eigenvalues --    0.98083   0.98886   0.99876   1.00810   1.01661
 Alpha virt. eigenvalues --    1.01877   1.02216   1.03142   1.04460   1.04788
 Alpha virt. eigenvalues --    1.04993   1.05543   1.05840   1.06634   1.07682
 Alpha virt. eigenvalues --    1.08585   1.08949   1.09460   1.09950   1.11144
 Alpha virt. eigenvalues --    1.11363   1.12631   1.13273   1.13377   1.14083
 Alpha virt. eigenvalues --    1.15496   1.16418   1.16997   1.18009   1.18531
 Alpha virt. eigenvalues --    1.19617   1.20691   1.21406   1.23484   1.24002
 Alpha virt. eigenvalues --    1.25764   1.26417   1.27119   1.27368   1.28156
 Alpha virt. eigenvalues --    1.29699   1.30949   1.31135   1.32480   1.33583
 Alpha virt. eigenvalues --    1.34416   1.35261   1.36389   1.37512   1.38433
 Alpha virt. eigenvalues --    1.38647   1.39877   1.41016   1.41167   1.43230
 Alpha virt. eigenvalues --    1.43618   1.44565   1.45321   1.46377   1.46512
 Alpha virt. eigenvalues --    1.47721   1.49189   1.49487   1.51015   1.52951
 Alpha virt. eigenvalues --    1.54403   1.55235   1.55474   1.55964   1.56836
 Alpha virt. eigenvalues --    1.57408   1.57810   1.58002   1.58972   1.59689
 Alpha virt. eigenvalues --    1.60279   1.60398   1.60751   1.61256   1.61460
 Alpha virt. eigenvalues --    1.62376   1.63312   1.63463   1.64329   1.65403
 Alpha virt. eigenvalues --    1.65611   1.65732   1.66233   1.66659   1.67070
 Alpha virt. eigenvalues --    1.67316   1.67463   1.68159   1.68590   1.69268
 Alpha virt. eigenvalues --    1.70108   1.71369   1.71585   1.72507   1.72920
 Alpha virt. eigenvalues --    1.74264   1.74921   1.75856   1.77306   1.77383
 Alpha virt. eigenvalues --    1.78005   1.78882   1.80235   1.82631   1.83142
 Alpha virt. eigenvalues --    1.84146   1.85027   1.85246   1.86938   1.87030
 Alpha virt. eigenvalues --    1.88383   1.89624   1.89955   1.90962   1.92366
 Alpha virt. eigenvalues --    1.93961   1.94174   1.95854   1.97108   1.97459
 Alpha virt. eigenvalues --    1.98426   1.99624   2.00367   2.00898   2.02166
 Alpha virt. eigenvalues --    2.02547   2.03571   2.04238   2.05455   2.06593
 Alpha virt. eigenvalues --    2.06785   2.07516   2.07952   2.08557   2.09767
 Alpha virt. eigenvalues --    2.10571   2.12179   2.12303   2.13663   2.14633
 Alpha virt. eigenvalues --    2.15460   2.16389   2.17497   2.18309   2.20256
 Alpha virt. eigenvalues --    2.21850   2.22273   2.22953   2.23113   2.23919
 Alpha virt. eigenvalues --    2.24867   2.25723   2.26072   2.27049   2.28839
 Alpha virt. eigenvalues --    2.29571   2.30048   2.31406   2.32181   2.32957
 Alpha virt. eigenvalues --    2.34004   2.34245   2.36093   2.36357   2.36899
 Alpha virt. eigenvalues --    2.37454   2.38074   2.38331   2.39134   2.39503
 Alpha virt. eigenvalues --    2.40480   2.40808   2.41050   2.42085   2.42349
 Alpha virt. eigenvalues --    2.42818   2.43621   2.44483   2.44899   2.45031
 Alpha virt. eigenvalues --    2.45715   2.46227   2.47300   2.48395   2.49337
 Alpha virt. eigenvalues --    2.50332   2.51710   2.51823   2.52899   2.53834
 Alpha virt. eigenvalues --    2.54570   2.55895   2.56531   2.57653   2.58395
 Alpha virt. eigenvalues --    2.59266   2.59617   2.60256   2.60550   2.60881
 Alpha virt. eigenvalues --    2.61619   2.61703   2.62766   2.63475   2.63924
 Alpha virt. eigenvalues --    2.64598   2.65502   2.66671   2.67015   2.67418
 Alpha virt. eigenvalues --    2.68142   2.68699   2.69309   2.69991   2.70645
 Alpha virt. eigenvalues --    2.71203   2.71714   2.72068   2.73329   2.73678
 Alpha virt. eigenvalues --    2.74201   2.75330   2.75846   2.76762   2.79252
 Alpha virt. eigenvalues --    2.79317   2.80661   2.81489   2.82399   2.84794
 Alpha virt. eigenvalues --    2.85409   2.86134   2.86604   2.87520   2.88449
 Alpha virt. eigenvalues --    2.89297   2.89816   2.91931   2.92284   2.93110
 Alpha virt. eigenvalues --    2.94168   2.95441   2.96192   2.98553   3.00333
 Alpha virt. eigenvalues --    3.00986   3.02681   3.03358   3.05046   3.05673
 Alpha virt. eigenvalues --    3.06568   3.07357   3.08598   3.09276   3.09896
 Alpha virt. eigenvalues --    3.10845   3.11302   3.12667   3.13079   3.13785
 Alpha virt. eigenvalues --    3.14178   3.14686   3.15123   3.16488   3.16796
 Alpha virt. eigenvalues --    3.17192   3.17435   3.17862   3.19837   3.20389
 Alpha virt. eigenvalues --    3.21296   3.21870   3.22683   3.23027   3.23506
 Alpha virt. eigenvalues --    3.24012   3.24560   3.25477   3.25777   3.26306
 Alpha virt. eigenvalues --    3.27691   3.28688   3.29162   3.29440   3.29848
 Alpha virt. eigenvalues --    3.30755   3.30925   3.31316   3.32097   3.32846
 Alpha virt. eigenvalues --    3.33183   3.34228   3.34965   3.35479   3.35950
 Alpha virt. eigenvalues --    3.36351   3.36939   3.37935   3.38723   3.39391
 Alpha virt. eigenvalues --    3.40106   3.41615   3.41895   3.42255   3.42659
 Alpha virt. eigenvalues --    3.43058   3.43887   3.44582   3.45529   3.46213
 Alpha virt. eigenvalues --    3.46943   3.47632   3.49400   3.50412   3.51065
 Alpha virt. eigenvalues --    3.51642   3.53106   3.54190   3.54612   3.55632
 Alpha virt. eigenvalues --    3.56676   3.56911   3.57139   3.57651   3.58664
 Alpha virt. eigenvalues --    3.59715   3.59954   3.60396   3.61039   3.62197
 Alpha virt. eigenvalues --    3.63075   3.63591   3.64155   3.65217   3.65635
 Alpha virt. eigenvalues --    3.66328   3.66758   3.67942   3.68809   3.69260
 Alpha virt. eigenvalues --    3.71883   3.72641   3.74342   3.75761   3.76905
 Alpha virt. eigenvalues --    3.78094   3.78362   3.78889   3.80576   3.82436
 Alpha virt. eigenvalues --    3.83222   3.86903   3.89417   3.89676   3.92261
 Alpha virt. eigenvalues --    3.92701   3.94055   3.96668   3.98597   3.99948
 Alpha virt. eigenvalues --    4.01030   4.03698   4.04462   4.06527   4.10137
 Alpha virt. eigenvalues --    4.12738   4.13422   4.14290   4.15848   4.17268
 Alpha virt. eigenvalues --    4.20784   4.21130   4.24038   4.26414   4.26919
 Alpha virt. eigenvalues --    4.27176   4.27761   4.28610   4.29573   4.30074
 Alpha virt. eigenvalues --    4.30542   4.30830   4.33601   4.34661   4.35700
 Alpha virt. eigenvalues --    4.36890   4.37272   4.38177   4.38526   4.40634
 Alpha virt. eigenvalues --    4.42023   4.44755   4.45795   4.47370   4.49889
 Alpha virt. eigenvalues --    4.51368   4.54566   4.55893   4.56787   4.59789
 Alpha virt. eigenvalues --    4.60224   4.61381   4.63694   4.69394   4.69911
 Alpha virt. eigenvalues --    4.70941   4.74874   4.78310   4.80393   4.82810
 Alpha virt. eigenvalues --    4.86621   4.89850   4.92679   4.96372   4.98041
 Alpha virt. eigenvalues --    5.06903   5.11039   5.15285   5.18827   5.21920
 Alpha virt. eigenvalues --    5.24693   5.26232   5.27341   5.29165   5.35543
 Alpha virt. eigenvalues --    5.47402   5.48659   5.54131   5.60873   5.81708
 Alpha virt. eigenvalues --    5.85400   5.86594   5.89178   5.91573   6.03841
 Alpha virt. eigenvalues --    6.13271   6.17241   6.23701   6.36814   6.38365
 Alpha virt. eigenvalues --    6.51382   6.61463   6.62166   6.63723   6.65901
 Alpha virt. eigenvalues --    6.69754   6.76969   6.81307   6.86456   6.88599
 Alpha virt. eigenvalues --    6.91667   6.97734   7.04604   7.06310   7.15973
 Alpha virt. eigenvalues --    7.20546   7.34224   7.42759  12.16958  22.33016
 Alpha virt. eigenvalues --   22.37989  22.41457  22.42671  22.44724  22.53493
 Alpha virt. eigenvalues --   22.58151  22.65288  22.68896  22.76671  22.84421
 Alpha virt. eigenvalues --   22.89807  22.91220  23.45913  44.05559  44.49587
 Alpha virt. eigenvalues --   44.50427
          Condensed to atoms (all electrons):
               1          2          3          4          5          6
     1  C    5.423328   0.016390   0.010201   0.008989  -0.040565   0.420298
     2  C    0.016390   5.875877  -0.010628  -0.029389  -0.010162  -0.004993
     3  C    0.010201  -0.010628   5.725812  -0.128976   0.052078  -0.044021
     4  C    0.008989  -0.029389  -0.128976   6.132178   0.126650   0.003622
     5  C   -0.040565  -0.010162   0.052078   0.126650   4.392040  -0.001258
     6  H    0.420298  -0.004993  -0.044021   0.003622  -0.001258   0.518531
     7  H   -0.039967   0.444729  -0.055522  -0.014804   0.002672   0.005332
     8  H    0.005519  -0.024861  -0.037981   0.402566  -0.005936  -0.000176
     9  H   -0.002401   0.017841  -0.021361   0.361325  -0.005874   0.000247
    10  O    0.155681  -0.008304   0.028398  -0.164580   0.402961  -0.040422
    11  O   -0.000155   0.001212   0.012821  -0.159970   0.744663   0.000048
    12  C    0.221866  -0.034817   0.013733  -0.008382   0.001734  -0.042764
    13  C   -0.045375   0.006423   0.000631  -0.000117   0.000059  -0.010307
    14  C   -0.044981   0.185647  -0.008007  -0.001985   0.002952  -0.008636
    15  O    0.013939  -0.074795   0.175471  -0.023218  -0.003356  -0.000050
    16  Si  -0.001149   0.008117  -0.070013   0.016506  -0.002862  -0.000081
    17  C    0.000255  -0.000259   0.016641  -0.011094   0.000444   0.000005
    18  C    0.000127  -0.001146  -0.007967   0.013849   0.000892   0.000001
    19  C   -0.000012  -0.000586   0.001192  -0.001140  -0.000088   0.000000
    20  H   -0.000016   0.000290  -0.004204   0.003851   0.000544   0.000000
    21  H    0.000023   0.000025   0.003458  -0.003665  -0.000033   0.000000
    22  H    0.000000  -0.000021   0.000181  -0.000404  -0.000021   0.000000
    23  H    0.000000   0.000016  -0.000010   0.000010   0.000000   0.000000
    24  H    0.000014   0.000283  -0.000311   0.000110   0.000001   0.000000
    25  H    0.000001   0.000044   0.000648   0.000060  -0.000001   0.000000
    26  H    0.000005  -0.000266  -0.002529   0.000915   0.000000  -0.000001
    27  H   -0.000016   0.000031   0.005234  -0.002664  -0.000230  -0.000002
    28  H   -0.000002   0.000019  -0.000674   0.000268  -0.000012   0.000000
    29  H   -0.009415  -0.040031   0.009359  -0.000468  -0.000050   0.000772
    30  H   -0.002723  -0.026520  -0.020995  -0.000500   0.000223   0.003683
    31  H    0.011667  -0.069021   0.006720   0.001427  -0.000256  -0.000353
    32  H   -0.034183  -0.000702  -0.002631   0.000580  -0.000851   0.006737
    33  H   -0.060271  -0.004000  -0.001566   0.000683   0.000272   0.000857
    34  H    0.014314  -0.000904   0.000065   0.000033  -0.000009  -0.000189
    35  H   -0.018275  -0.000284  -0.000265   0.000685   0.001192   0.001362
    36  H    0.002220   0.001297  -0.000204   0.000054  -0.000240   0.001754
    37  C    0.039549  -0.057859   0.191952  -0.070162   0.002904   0.014447
    38  C   -0.011746   0.020580  -0.016358   0.007114   0.000360   0.001492
    39  C   -0.002350   0.003025  -0.003210  -0.000510   0.000106   0.001405
    40  H   -0.002790   0.014733  -0.064600   0.003040  -0.004455   0.000662
    41  H    0.005881  -0.034071   0.006273  -0.007692   0.001497  -0.012052
    42  H    0.000649  -0.005722   0.006034   0.000240  -0.000055  -0.000117
    43  H    0.000014  -0.000016  -0.000234   0.000017   0.000004  -0.000003
    44  H    0.000078  -0.000379  -0.000756   0.000013  -0.000009   0.000075
               7          8          9         10         11         12
     1  C   -0.039967   0.005519  -0.002401   0.155681  -0.000155   0.221866
     2  C    0.444729  -0.024861   0.017841  -0.008304   0.001212  -0.034817
     3  C   -0.055522  -0.037981  -0.021361   0.028398   0.012821   0.013733
     4  C   -0.014804   0.402566   0.361325  -0.164580  -0.159970  -0.008382
     5  C    0.002672  -0.005936  -0.005874   0.402961   0.744663   0.001734
     6  H    0.005332  -0.000176   0.000247  -0.040422   0.000048  -0.042764
     7  H    0.506565   0.001903   0.000253   0.000541  -0.000203  -0.006342
     8  H    0.001903   0.448246  -0.009570   0.001802   0.003094   0.000107
     9  H    0.000253  -0.009570   0.458270   0.006132   0.012862   0.000087
    10  O    0.000541   0.001802   0.006132   7.998865  -0.101763  -0.038796
    11  O   -0.000203   0.003094   0.012862  -0.101763   7.859056  -0.000091
    12  C   -0.006342   0.000107   0.000087  -0.038796  -0.000091   5.176724
    13  C   -0.000112   0.000031  -0.000015  -0.005047  -0.000002   0.261242
    14  C   -0.032183   0.000301  -0.000092   0.004087   0.000036   0.004359
    15  O    0.005453  -0.001776  -0.002720  -0.000306  -0.000181  -0.000440
    16  Si   0.000284  -0.007438   0.001875  -0.000239  -0.000823   0.000055
    17  C    0.000151   0.000964  -0.000191  -0.000006   0.000045  -0.000001
    18  C   -0.000241  -0.003922  -0.004223  -0.000011   0.000031  -0.000007
    19  C   -0.000053  -0.000031   0.000060  -0.000001  -0.000001  -0.000001
    20  H   -0.000062  -0.003337  -0.000329  -0.000003  -0.000024   0.000001
    21  H    0.000325   0.000526   0.000241   0.000001   0.000001   0.000000
    22  H    0.000015   0.000492   0.000050   0.000000  -0.000001   0.000000
    23  H   -0.000002  -0.000003  -0.000003   0.000000   0.000000   0.000000
    24  H    0.000029  -0.000011  -0.000012   0.000000   0.000000   0.000000
    25  H   -0.000010  -0.000010  -0.000004   0.000000   0.000000   0.000000
    26  H    0.000001  -0.000026  -0.000202   0.000000   0.000000   0.000000
    27  H   -0.000008  -0.000031   0.002069  -0.000003  -0.000064   0.000000
    28  H   -0.000002  -0.000020  -0.000009   0.000000   0.000000   0.000000
    29  H   -0.008800  -0.000010   0.000013  -0.000073   0.000000  -0.001896
    30  H    0.007303  -0.000003   0.000006  -0.000014   0.000001  -0.003632
    31  H   -0.003431  -0.000006  -0.000060  -0.000159   0.000000   0.000453
    32  H    0.002387   0.000030   0.000009   0.000023  -0.000128   0.412504
    33  H    0.001245  -0.000021   0.000000   0.005028   0.000009   0.436552
    34  H   -0.000002  -0.000001   0.000000   0.000255   0.000003  -0.053896
    35  H    0.000096  -0.000016  -0.000004   0.008252   0.000348  -0.035974
    36  H   -0.000043   0.000000   0.000000  -0.001044   0.000003  -0.045537
    37  C    0.008984   0.009855  -0.014955  -0.015854   0.002602  -0.001915
    38  C   -0.000435  -0.000670   0.000583   0.001557  -0.000060   0.000642
    39  C   -0.000182  -0.000006   0.000040  -0.000099   0.000006   0.000156
    40  H   -0.000313  -0.000540   0.003045   0.000106  -0.000059   0.000020
    41  H   -0.000791   0.000161  -0.000712   0.007239  -0.001047   0.000748
    42  H   -0.000206  -0.000007  -0.000022   0.000005   0.000000  -0.000003
    43  H   -0.000001   0.000000   0.000000   0.000000   0.000000   0.000002
    44  H   -0.000001   0.000001   0.000000  -0.000001  -0.000001  -0.000049
              13         14         15         16         17         18
     1  C   -0.045375  -0.044981   0.013939  -0.001149   0.000255   0.000127
     2  C    0.006423   0.185647  -0.074795   0.008117  -0.000259  -0.001146
     3  C    0.000631  -0.008007   0.175471  -0.070013   0.016641  -0.007967
     4  C   -0.000117  -0.001985  -0.023218   0.016506  -0.011094   0.013849
     5  C    0.000059   0.002952  -0.003356  -0.002862   0.000444   0.000892
     6  H   -0.010307  -0.008636  -0.000050  -0.000081   0.000005   0.000001
     7  H   -0.000112  -0.032183   0.005453   0.000284   0.000151  -0.000241
     8  H    0.000031   0.000301  -0.001776  -0.007438   0.000964  -0.003922
     9  H   -0.000015  -0.000092  -0.002720   0.001875  -0.000191  -0.004223
    10  O   -0.005047   0.004087  -0.000306  -0.000239  -0.000006  -0.000011
    11  O   -0.000002   0.000036  -0.000181  -0.000823   0.000045   0.000031
    12  C    0.261242   0.004359  -0.000440   0.000055  -0.000001  -0.000007
    13  C    5.051974   0.000024   0.000016   0.000001   0.000000   0.000000
    14  C    0.000024   5.178876  -0.022109  -0.000355  -0.000285   0.000009
    15  O    0.000016  -0.022109   8.069102   0.380940  -0.030568  -0.018855
    16  Si   0.000001  -0.000355   0.380940  12.427529   0.328096   0.353804
    17  C    0.000000  -0.000285  -0.030568   0.328096   5.204645  -0.054250
    18  C    0.000000   0.000009  -0.018855   0.353804  -0.054250   5.164798
    19  C    0.000000   0.000658  -0.018816   0.386683  -0.049800  -0.039495
    20  H    0.000000   0.000002   0.001535  -0.035713   0.001209   0.393268
    21  H    0.000000  -0.000047  -0.000195  -0.039813   0.003671   0.393249
    22  H    0.000000   0.000001   0.001180  -0.030227   0.002774   0.384253
    23  H    0.000000  -0.000025   0.001237  -0.043243   0.002631   0.002081
    24  H    0.000000  -0.000172   0.000749  -0.032129   0.003512   0.000053
    25  H    0.000000   0.000064   0.000337  -0.034630   0.001044   0.002927
    26  H    0.000000   0.000030   0.000074  -0.036474   0.392667   0.003483
    27  H    0.000000   0.000004   0.000496  -0.035297   0.392518   0.000817
    28  H    0.000000   0.000002   0.001160  -0.020575   0.380863   0.001374
    29  H    0.000313   0.423457   0.000250   0.000003  -0.000002   0.000004
    30  H   -0.000027   0.414684  -0.000008  -0.000175   0.000014  -0.000001
    31  H    0.000040   0.429746   0.010750  -0.001615   0.000236   0.000129
    32  H   -0.035797  -0.001570  -0.000003  -0.000003   0.000000   0.000001
    33  H   -0.035719   0.000640  -0.000034  -0.000005   0.000000   0.000000
    34  H    0.422938  -0.000005   0.000000   0.000000   0.000000   0.000000
    35  H    0.421644  -0.000066   0.000000   0.000000   0.000000   0.000000
    36  H    0.409418  -0.000093   0.000000   0.000000   0.000000   0.000000
    37  C   -0.000213  -0.006048  -0.084674  -0.001659  -0.000103   0.000220
    38  C    0.000032  -0.020882   0.010031  -0.001690  -0.000848  -0.000011
    39  C   -0.000015  -0.004041   0.003545   0.000094  -0.000142   0.000010
    40  H   -0.000004  -0.000695  -0.003695  -0.000416  -0.003141  -0.000058
    41  H    0.000154   0.002408   0.004661   0.000895  -0.000384   0.000028
    42  H    0.000001   0.000834   0.006372  -0.001089  -0.000418   0.000159
    43  H    0.000000   0.000013  -0.000009   0.000018  -0.000005   0.000000
    44  H    0.000002   0.000332   0.000000  -0.000002  -0.000002   0.000000
              19         20         21         22         23         24
     1  C   -0.000012  -0.000016   0.000023   0.000000   0.000000   0.000014
     2  C   -0.000586   0.000290   0.000025  -0.000021   0.000016   0.000283
     3  C    0.001192  -0.004204   0.003458   0.000181  -0.000010  -0.000311
     4  C   -0.001140   0.003851  -0.003665  -0.000404   0.000010   0.000110
     5  C   -0.000088   0.000544  -0.000033  -0.000021   0.000000   0.000001
     6  H    0.000000   0.000000   0.000000   0.000000   0.000000   0.000000
     7  H   -0.000053  -0.000062   0.000325   0.000015  -0.000002   0.000029
     8  H   -0.000031  -0.003337   0.000526   0.000492  -0.000003  -0.000011
     9  H    0.000060  -0.000329   0.000241   0.000050  -0.000003  -0.000012
    10  O   -0.000001  -0.000003   0.000001   0.000000   0.000000   0.000000
    11  O   -0.000001  -0.000024   0.000001  -0.000001   0.000000   0.000000
    12  C   -0.000001   0.000001   0.000000   0.000000   0.000000   0.000000
    13  C    0.000000   0.000000   0.000000   0.000000   0.000000   0.000000
    14  C    0.000658   0.000002  -0.000047   0.000001  -0.000025  -0.000172
    15  O   -0.018816   0.001535  -0.000195   0.001180   0.001237   0.000749
    16  Si   0.386683  -0.035713  -0.039813  -0.030227  -0.043243  -0.032129
    17  C   -0.049800   0.001209   0.003671   0.002774   0.002631   0.003512
    18  C   -0.039495   0.393268   0.393249   0.384253   0.002081   0.000053
    19  C    5.105311   0.002630   0.001434   0.000604   0.395462   0.389048
    20  H    0.002630   0.508991  -0.019454  -0.016869  -0.000159  -0.000143
    21  H    0.001434  -0.019454   0.507424  -0.014422   0.000221   0.000939
    22  H    0.000604  -0.016869  -0.014422   0.506650   0.000063   0.000328
    23  H    0.395462  -0.000159   0.000221   0.000063   0.521947  -0.018228
    24  H    0.389048  -0.000143   0.000939   0.000328  -0.018228   0.514812
    25  H    0.391728  -0.000097  -0.000179  -0.000117  -0.018471  -0.018348
    26  H    0.000752  -0.000152  -0.000096  -0.000164   0.000212  -0.000195
    27  H    0.003435   0.000796  -0.000208   0.000195  -0.000158  -0.000089
    28  H    0.000483   0.000199  -0.000148   0.000088   0.000189  -0.000138
    29  H   -0.000008   0.000000  -0.000001   0.000000   0.000000   0.000002
    30  H   -0.000008   0.000000   0.000001   0.000000   0.000000   0.000001
    31  H   -0.000773  -0.000007   0.000007  -0.000004   0.000057   0.000271
    32  H    0.000000   0.000000   0.000000   0.000000   0.000000   0.000000
    33  H    0.000000   0.000000   0.000000   0.000000   0.000000   0.000000
    34  H    0.000000   0.000000   0.000000   0.000000   0.000000   0.000000
    35  H    0.000000   0.000000   0.000000   0.000000   0.000000   0.000000
    36  H    0.000000   0.000000   0.000000   0.000000   0.000000   0.000000
    37  C    0.000575   0.000457  -0.000128   0.000044  -0.000069  -0.000029
    38  C   -0.000748  -0.000019   0.000018  -0.000006   0.000034   0.000074
    39  C   -0.000032   0.000000   0.000000   0.000000   0.000002   0.000001
    40  H    0.000245  -0.000081   0.000003  -0.000005  -0.000002  -0.000009
    41  H    0.000013   0.000003  -0.000003  -0.000001   0.000000  -0.000001
    42  H    0.000041  -0.000005  -0.000006  -0.000005   0.000021  -0.000049
    43  H   -0.000001   0.000000   0.000000   0.000000   0.000000   0.000000
    44  H    0.000000   0.000000   0.000000   0.000000   0.000000   0.000000
              25         26         27         28         29         30
     1  C    0.000001   0.000005  -0.000016  -0.000002  -0.009415  -0.002723
     2  C    0.000044  -0.000266   0.000031   0.000019  -0.040031  -0.026520
     3  C    0.000648  -0.002529   0.005234  -0.000674   0.009359  -0.020995
     4  C    0.000060   0.000915  -0.002664   0.000268  -0.000468  -0.000500
     5  C   -0.000001   0.000000  -0.000230  -0.000012  -0.000050   0.000223
     6  H    0.000000  -0.000001  -0.000002   0.000000   0.000772   0.003683
     7  H   -0.000010   0.000001  -0.000008  -0.000002  -0.008800   0.007303
     8  H   -0.000010  -0.000026  -0.000031  -0.000020  -0.000010  -0.000003
     9  H   -0.000004  -0.000202   0.002069  -0.000009   0.000013   0.000006
    10  O    0.000000   0.000000  -0.000003   0.000000  -0.000073  -0.000014
    11  O    0.000000   0.000000  -0.000064   0.000000   0.000000   0.000001
    12  C    0.000000   0.000000   0.000000   0.000000  -0.001896  -0.003632
    13  C    0.000000   0.000000   0.000000   0.000000   0.000313  -0.000027
    14  C    0.000064   0.000030   0.000004   0.000002   0.423457   0.414684
    15  O    0.000337   0.000074   0.000496   0.001160   0.000250  -0.000008
    16  Si  -0.034630  -0.036474  -0.035297  -0.020575   0.000003  -0.000175
    17  C    0.001044   0.392667   0.392518   0.380863  -0.000002   0.000014
    18  C    0.002927   0.003483   0.000817   0.001374   0.000004  -0.000001
    19  C    0.391728   0.000752   0.003435   0.000483  -0.000008  -0.000008
    20  H   -0.000097  -0.000152   0.000796   0.000199   0.000000   0.000000
    21  H   -0.000179  -0.000096  -0.000208  -0.000148  -0.000001   0.000001
    22  H   -0.000117  -0.000164   0.000195   0.000088   0.000000   0.000000
    23  H   -0.018471   0.000212  -0.000158   0.000189   0.000000   0.000000
    24  H   -0.018348  -0.000195  -0.000089  -0.000138   0.000002   0.000001
    25  H    0.516287   0.000685  -0.000129   0.000232   0.000002  -0.000005
    26  H    0.000685   0.507599  -0.021042  -0.015279   0.000000   0.000002
    27  H   -0.000129  -0.021042   0.508084  -0.015097   0.000000   0.000000
    28  H    0.000232  -0.015279  -0.015097   0.494398   0.000000   0.000000
    29  H    0.000002   0.000000   0.000000   0.000000   0.511974  -0.027566
    30  H   -0.000005   0.000002   0.000000   0.000000  -0.027566   0.516466
    31  H    0.000028  -0.000008  -0.000008  -0.000003  -0.019111  -0.023662
    32  H    0.000000   0.000000   0.000000   0.000000   0.000450   0.000310
    33  H    0.000000   0.000000   0.000000   0.000000  -0.005389  -0.000643
    34  H    0.000000   0.000000   0.000000   0.000000   0.000008  -0.000004
    35  H    0.000000   0.000000   0.000000   0.000000  -0.000036   0.000003
    36  H    0.000000   0.000000   0.000000   0.000000   0.000066   0.000041
    37  C   -0.000470   0.004744  -0.006088   0.000286  -0.000109   0.003234
    38  C   -0.000129  -0.001742   0.000901  -0.000046   0.000779  -0.002878
    39  C    0.000005   0.000303  -0.000015  -0.000001   0.000397  -0.003801
    40  H    0.000018  -0.003521   0.000709   0.000513   0.000037  -0.000095
    41  H    0.000003   0.000086   0.000042   0.000005   0.000011  -0.000558
    42  H    0.001109   0.000204   0.000094   0.000015   0.000119  -0.001372
    43  H   -0.000003   0.000005   0.000000   0.000000  -0.000008  -0.000163
    44  H    0.000001  -0.000007   0.000002   0.000000   0.000002   0.000069
              31         32         33         34         35         36
     1  C    0.011667  -0.034183  -0.060271   0.014314  -0.018275   0.002220
     2  C   -0.069021  -0.000702  -0.004000  -0.000904  -0.000284   0.001297
     3  C    0.006720  -0.002631  -0.001566   0.000065  -0.000265  -0.000204
     4  C    0.001427   0.000580   0.000683   0.000033   0.000685   0.000054
     5  C   -0.000256  -0.000851   0.000272  -0.000009   0.001192  -0.000240
     6  H   -0.000353   0.006737   0.000857  -0.000189   0.001362   0.001754
     7  H   -0.003431   0.002387   0.001245  -0.000002   0.000096  -0.000043
     8  H   -0.000006   0.000030  -0.000021  -0.000001  -0.000016   0.000000
     9  H   -0.000060   0.000009   0.000000   0.000000  -0.000004   0.000000
    10  O   -0.000159   0.000023   0.005028   0.000255   0.008252  -0.001044
    11  O    0.000000  -0.000128   0.000009   0.000003   0.000348   0.000003
    12  C    0.000453   0.412504   0.436552  -0.053896  -0.035974  -0.045537
    13  C    0.000040  -0.035797  -0.035719   0.422938   0.421644   0.409418
    14  C    0.429746  -0.001570   0.000640  -0.000005  -0.000066  -0.000093
    15  O    0.010750  -0.000003  -0.000034   0.000000   0.000000   0.000000
    16  Si  -0.001615  -0.000003  -0.000005   0.000000   0.000000   0.000000
    17  C    0.000236   0.000000   0.000000   0.000000   0.000000   0.000000
    18  C    0.000129   0.000001   0.000000   0.000000   0.000000   0.000000
    19  C   -0.000773   0.000000   0.000000   0.000000   0.000000   0.000000
    20  H   -0.000007   0.000000   0.000000   0.000000   0.000000   0.000000
    21  H    0.000007   0.000000   0.000000   0.000000   0.000000   0.000000
    22  H   -0.000004   0.000000   0.000000   0.000000   0.000000   0.000000
    23  H    0.000057   0.000000   0.000000   0.000000   0.000000   0.000000
    24  H    0.000271   0.000000   0.000000   0.000000   0.000000   0.000000
    25  H    0.000028   0.000000   0.000000   0.000000   0.000000   0.000000
    26  H   -0.000008   0.000000   0.000000   0.000000   0.000000   0.000000
    27  H   -0.000008   0.000000   0.000000   0.000000   0.000000   0.000000
    28  H   -0.000003   0.000000   0.000000   0.000000   0.000000   0.000000
    29  H   -0.019111   0.000450  -0.005389   0.000008  -0.000036   0.000066
    30  H   -0.023662   0.000310  -0.000643  -0.000004   0.000003   0.000041
    31  H    0.487045  -0.000127   0.000357  -0.000001   0.000001  -0.000003
    32  H   -0.000127   0.528185  -0.024896  -0.003889  -0.003403   0.006214
    33  H    0.000357  -0.024896   0.540170  -0.004526   0.006598  -0.003950
    34  H   -0.000001  -0.003889  -0.004526   0.524102  -0.023411  -0.024576
    35  H    0.000001  -0.003403   0.006598  -0.023411   0.509835  -0.026229
    36  H   -0.000003   0.006214  -0.003950  -0.024576  -0.026229   0.539678
    37  C   -0.004338   0.000224   0.000255  -0.000003   0.000003   0.000068
    38  C   -0.000292  -0.000020  -0.000125   0.000001  -0.000003  -0.000016
    39  C    0.000325  -0.000003   0.000033   0.000000   0.000000   0.000005
    40  H   -0.000080   0.000003   0.000000   0.000000   0.000000   0.000001
    41  H   -0.000164  -0.000070  -0.000036   0.000004  -0.000008  -0.000019
    42  H   -0.000744   0.000000  -0.000003   0.000000   0.000000   0.000000
    43  H    0.000014   0.000000   0.000000   0.000000   0.000000   0.000000
    44  H   -0.000012   0.000001  -0.000001   0.000000   0.000000   0.000006
              37         38         39         40         41         42
     1  C    0.039549  -0.011746  -0.002350  -0.002790   0.005881   0.000649
     2  C   -0.057859   0.020580   0.003025   0.014733  -0.034071  -0.005722
     3  C    0.191952  -0.016358  -0.003210  -0.064600   0.006273   0.006034
     4  C   -0.070162   0.007114  -0.000510   0.003040  -0.007692   0.000240
     5  C    0.002904   0.000360   0.000106  -0.004455   0.001497  -0.000055
     6  H    0.014447   0.001492   0.001405   0.000662  -0.012052  -0.000117
     7  H    0.008984  -0.000435  -0.000182  -0.000313  -0.000791  -0.000206
     8  H    0.009855  -0.000670  -0.000006  -0.000540   0.000161  -0.000007
     9  H   -0.014955   0.000583   0.000040   0.003045  -0.000712  -0.000022
    10  O   -0.015854   0.001557  -0.000099   0.000106   0.007239   0.000005
    11  O    0.002602  -0.000060   0.000006  -0.000059  -0.001047   0.000000
    12  C   -0.001915   0.000642   0.000156   0.000020   0.000748  -0.000003
    13  C   -0.000213   0.000032  -0.000015  -0.000004   0.000154   0.000001
    14  C   -0.006048  -0.020882  -0.004041  -0.000695   0.002408   0.000834
    15  O   -0.084674   0.010031   0.003545  -0.003695   0.004661   0.006372
    16  Si  -0.001659  -0.001690   0.000094  -0.000416   0.000895  -0.001089
    17  C   -0.000103  -0.000848  -0.000142  -0.003141  -0.000384  -0.000418
    18  C    0.000220  -0.000011   0.000010  -0.000058   0.000028   0.000159
    19  C    0.000575  -0.000748  -0.000032   0.000245   0.000013   0.000041
    20  H    0.000457  -0.000019   0.000000  -0.000081   0.000003  -0.000005
    21  H   -0.000128   0.000018   0.000000   0.000003  -0.000003  -0.000006
    22  H    0.000044  -0.000006   0.000000  -0.000005  -0.000001  -0.000005
    23  H   -0.000069   0.000034   0.000002  -0.000002   0.000000   0.000021
    24  H   -0.000029   0.000074   0.000001  -0.000009  -0.000001  -0.000049
    25  H   -0.000470  -0.000129   0.000005   0.000018   0.000003   0.001109
    26  H    0.004744  -0.001742   0.000303  -0.003521   0.000086   0.000204
    27  H   -0.006088   0.000901  -0.000015   0.000709   0.000042   0.000094
    28  H    0.000286  -0.000046  -0.000001   0.000513   0.000005   0.000015
    29  H   -0.000109   0.000779   0.000397   0.000037   0.000011   0.000119
    30  H    0.003234  -0.002878  -0.003801  -0.000095  -0.000558  -0.001372
    31  H   -0.004338  -0.000292   0.000325  -0.000080  -0.000164  -0.000744
    32  H    0.000224  -0.000020  -0.000003   0.000003  -0.000070   0.000000
    33  H    0.000255  -0.000125   0.000033   0.000000  -0.000036  -0.000003
    34  H   -0.000003   0.000001   0.000000   0.000000   0.000004   0.000000
    35  H    0.000003  -0.000003   0.000000   0.000000  -0.000008   0.000000
    36  H    0.000068  -0.000016   0.000005   0.000001  -0.000019   0.000000
    37  C    5.458388   0.145732  -0.043963   0.429927   0.408843  -0.049127
    38  C    0.145732   5.286397   0.520895  -0.040852  -0.048820   0.404170
    39  C   -0.043963   0.520895   5.015162  -0.007992   0.005533  -0.015798
    40  H    0.429927  -0.040852  -0.007992   0.505880  -0.013969   0.002090
    41  H    0.408843  -0.048820   0.005533  -0.013969   0.476022   0.002979
    42  H   -0.049127   0.404170  -0.015798   0.002090   0.002979   0.478283
    43  H    0.007078  -0.054049   0.427409  -0.000352   0.000117  -0.006137
    44  H    0.004595  -0.071905   0.438157   0.000780   0.000423   0.004059
              43         44
     1  C    0.000014   0.000078
     2  C   -0.000016  -0.000379
     3  C   -0.000234  -0.000756
     4  C    0.000017   0.000013
     5  C    0.000004  -0.000009
     6  H   -0.000003   0.000075
     7  H   -0.000001  -0.000001
     8  H    0.000000   0.000001
     9  H    0.000000   0.000000
    10  O    0.000000  -0.000001
    11  O    0.000000  -0.000001
    12  C    0.000002  -0.000049
    13  C    0.000000   0.000002
    14  C    0.000013   0.000332
    15  O   -0.000009   0.000000
    16  Si   0.000018  -0.000002
    17  C   -0.000005  -0.000002
    18  C    0.000000   0.000000
    19  C   -0.000001   0.000000
    20  H    0.000000   0.000000
    21  H    0.000000   0.000000
    22  H    0.000000   0.000000
    23  H    0.000000   0.000000
    24  H    0.000000   0.000000
    25  H   -0.000003   0.000001
    26  H    0.000005  -0.000007
    27  H    0.000000   0.000002
    28  H    0.000000   0.000000
    29  H   -0.000008   0.000002
    30  H   -0.000163   0.000069
    31  H    0.000014  -0.000012
    32  H    0.000000   0.000001
    33  H    0.000000  -0.000001
    34  H    0.000000   0.000000
    35  H    0.000000   0.000000
    36  H    0.000000   0.000006
    37  C    0.007078   0.004595
    38  C   -0.054049  -0.071905
    39  C    0.427409   0.438157
    40  H   -0.000352   0.000780
    41  H    0.000117   0.000423
    42  H   -0.006137   0.004059
    43  H    0.500611  -0.022893
    44  H   -0.022893   0.504030
 Mulliken charges:
               1
     1  C   -0.034617
     2  C   -0.156842
     3  C    0.236122
     4  C   -0.455064
     5  C    0.342079
     6  H    0.184097
     7  H    0.175449
     8  H    0.220808
     9  H    0.197750
    10  O   -0.244207
    11  O   -0.372270
    12  C   -0.256443
    13  C   -0.442192
    14  C   -0.496890
    15  O   -0.401489
    16  Si   0.492814
    17  C   -0.580888
    18  C   -0.585382
    19  C   -0.568763
    20  H    0.166898
    21  H    0.166829
    22  H    0.165347
    23  H    0.156191
    24  H    0.159634
    25  H    0.157379
    26  H    0.169937
    27  H    0.165721
    28  H    0.171916
    29  H    0.164955
    30  H    0.169309
    31  H    0.174965
    32  H    0.150622
    33  H    0.148484
    34  H    0.149693
    35  H    0.157955
    36  H    0.141129
    37  C   -0.377202
    38  C   -0.127041
    39  C   -0.334454
    40  H    0.185916
    41  H    0.196370
    42  H    0.173406
    43  H    0.148574
    44  H    0.143394
 Sum of Mulliken charges =   0.00000
 Mulliken charges with hydrogens summed into heavy atoms:
               1
     1  C    0.149481
     2  C    0.018607
     3  C    0.236122
     4  C   -0.036506
     5  C    0.342079
    10  O   -0.244207
    11  O   -0.372270
    12  C    0.042663
    13  C    0.006584
    14  C    0.012339
    15  O   -0.401489
    16  Si   0.492814
    17  C   -0.073314
    18  C   -0.086308
    19  C   -0.095559
    37  C    0.005084
    38  C    0.046366
    39  C   -0.042487
 Electronic spatial extent (au):  <R**2>=           5697.2621
 Charge=              0.0000 electrons
 Dipole moment (field-independent basis, Debye):
    X=              2.4105    Y=              3.3468    Z=             -2.7975  Tot=              4.9837
 Quadrupole moment (field-independent basis, Debye-Ang):
   XX=           -117.3918   YY=           -129.8167   ZZ=           -123.7271
   XY=            -12.4396   XZ=              8.2473   YZ=              9.0779
 Traceless Quadrupole moment (field-independent basis, Debye-Ang):
   XX=              6.2534   YY=             -6.1715   ZZ=             -0.0819
   XY=            -12.4396   XZ=              8.2473   YZ=              9.0779
 Octapole moment (field-independent basis, Debye-Ang**2):
  XXX=             18.0083  YYY=             35.3235  ZZZ=            -15.3282  XYY=             19.9855
  XXY=             14.1505  XXZ=            -20.3744  XZZ=             -4.8973  YZZ=              7.7017
  YYZ=            -22.0154  XYZ=            -20.5042
 Hexadecapole moment (field-independent basis, Debye-Ang**3):
 XXXX=          -4725.6004 YYYY=          -1866.7037 ZZZZ=          -1190.9254 XXXY=            -70.3651
 XXXZ=             53.0196 YYYX=            -33.9864 YYYZ=             70.7019 ZZZX=              0.0138
 ZZZY=              0.7036 XXYY=          -1161.1652 XXZZ=          -1019.6321 YYZZ=           -549.8399
 XXYZ=             36.5641 YYXZ=             38.6897 ZZXY=            -41.9109
 N-N= 1.616954410827D+03 E-N=-5.726958426911D+03  KE= 1.059313768186D+03
 1\1\GINC-CPU-E-5\SP\RM062X\def2TZVP\C14H26O3Si1\KE291\26-Jun-2019\0\\#
  m062x/def2tzvp int=ultrafine scrf=(solvent=chloroform)\\IP1_1ginp003\
 \0,1\C,0,-2.40156,0.141879,-0.350119\C,0,-1.005449,0.323302,-0.963346\
 C,0,0.101423,0.039722,0.092271\C,0,-0.091369,-1.429883,0.502673\C,0,-1
 .494364,-1.778337,0.961789\H,0,-2.608665,0.982993,0.324197\H,0,-0.8702
 55,-0.455399,-1.727172\H,0,0.123381,-2.068892,-0.361889\H,0,0.588149,-
 1.729736,1.304408\O,0,-2.526426,-1.053705,0.487336\O,0,-1.725936,-2.70
 9556,1.704709\C,0,-3.527539,0.041606,-1.381978\C,0,-4.923801,-0.073971
 ,-0.76282\C,0,-0.879998,1.681826,-1.669469\O,0,1.350682,0.226441,-0.56
 4976\Si,0,2.920329,-0.352344,-0.365531\C,0,3.535022,-0.183506,1.411644
 \C,0,3.064384,-2.153096,-0.913664\C,0,3.934632,0.740458,-1.511651\H,0,
 2.559767,-2.84428,-0.231447\H,0,2.64414,-2.298563,-1.914605\H,0,4.1205
 32,-2.444897,-0.953106\H,0,4.988886,0.442214,-1.502306\H,0,3.575814,0.
 667821,-2.543622\H,0,3.881207,1.792013,-1.211287\H,0,3.462791,0.848329
 ,1.771034\H,0,2.988144,-0.824764,2.110977\H,0,4.590208,-0.477599,1.460
 315\H,0,-1.489359,1.706991,-2.576672\H,0,-1.188779,2.508318,-1.025193\
 H,0,0.158685,1.846537,-1.961162\H,0,-3.326223,-0.821927,-2.02844\H,0,-
 3.485187,0.930941,-2.01886\H,0,-5.687271,-0.1267,-1.544783\H,0,-5.0087
 74,-0.96922,-0.142384\H,0,-5.149463,0.794822,-0.134231\C,0,0.049222,0.
 925627,1.368554\C,0,0.317053,2.395262,1.190265\C,0,-0.385976,3.36959,1
 .770469\H,0,0.814786,0.518828,2.0435\H,0,-0.908442,0.783753,1.882815\H
 ,0,1.175899,2.649604,0.57206\H,0,-0.122704,4.41545,1.642342\H,0,-1.248
 505,3.157849,2.398678\\Version=ES64L-G09RevD.01\State=1-A\HF=-1064.339
 2945\RMSD=1.510e-09\Dipole=0.9483744,1.3167218,-1.1006269\Quadrupole=4
 .6492433,-4.5883563,-0.0608871,-9.2485672,6.1316878,6.7491736\PG=C01 [
 X(C14H26O3Si1)]\\@


 LET US LEARN TO DREAM, GENTLEMEN, THEN PERHAPS WE SHALL
 DISCOVER THE TRUTH;  BUT LET US BEWARE OF PUBLISHING
 OUR DREAMS ABROAD BEFORE THEY HAVE BEEN SCRUTINIZED
 BY OUR VIGILANT INTELLECT ... LET US ALWAYS ALLOW
 THE FRUIT TO HANG UNTIL IT IS RIPE.  UNRIPE FRUIT
 BRINGS EVEN THE GROWER BUT LITTLE PROFIT; IT DAMAGES
 THE HEALTH OF THOSE WHO CONSUME IT; IT ENDANGERS
 PARTICULARLY THE YOUTH WHO CANNOT YET DISTINGUISH
 BETWEEN RIPE AND UNRIPE FRUIT.

                                  -- KEKULE, 1890
 Job cpu time:       0 days  2 hours 16 minutes 48.5 seconds.
 File lengths (MBytes):  RWF=    412 Int=      0 D2E=      0 Chk=     21 Scr=      1
 Normal termination of Gaussian 09 at Wed Jun 26 14:08:48 2019.
