 Entering Gaussian System, Link 0=/usr/local/Cluster-Apps/gaussian/g09/g09
 Initial command:
 /usr/local/Cluster-Apps/gaussian/g09/l1.exe "/home/ke291/rds/hpc-work/26Jun1304IP1NMR/Gau-297373.inp" -scrdir="/home/ke291/rds/hpc-work/26Jun1304IP1NMR/"
 Entering Link 1 = /usr/local/Cluster-Apps/gaussian/g09/l1.exe PID=    297382.
  
 Copyright (c) 1988,1990,1992,1993,1995,1998,2003,2009,2013,
            Gaussian, Inc.  All Rights Reserved.
  
 This is part of the Gaussian(R) 09 program.  It is based on
 the Gaussian(R) 03 system (copyright 2003, Gaussian, Inc.),
 the Gaussian(R) 98 system (copyright 1998, Gaussian, Inc.),
 the Gaussian(R) 94 system (copyright 1995, Gaussian, Inc.),
 the Gaussian 92(TM) system (copyright 1992, Gaussian, Inc.),
 the Gaussian 90(TM) system (copyright 1990, Gaussian, Inc.),
 the Gaussian 88(TM) system (copyright 1988, Gaussian, Inc.),
 the Gaussian 86(TM) system (copyright 1986, Carnegie Mellon
 University), and the Gaussian 82(TM) system (copyright 1983,
 Carnegie Mellon University). Gaussian is a federally registered
 trademark of Gaussian, Inc.
  
 This software contains proprietary and confidential information,
 including trade secrets, belonging to Gaussian, Inc.
  
 This software is provided under written license and may be
 used, copied, transmitted, or stored only in accord with that
 written license.
  
 The following legend is applicable only to US Government
 contracts under FAR:
  
                    RESTRICTED RIGHTS LEGEND
  
 Use, reproduction and disclosure by the US Government is
 subject to restrictions as set forth in subparagraphs (a)
 and (c) of the Commercial Computer Software - Restricted
 Rights clause in FAR 52.227-19.
  
 Gaussian, Inc.
 340 Quinnipiac St., Bldg. 40, Wallingford CT 06492
  
  
 ---------------------------------------------------------------
 Warning -- This program may not be used in any manner that
 competes with the business of Gaussian, Inc. or will provide
 assistance to any competitor of Gaussian, Inc.  The licensee
 of this program is prohibited from giving any competitor of
 Gaussian, Inc. access to this program.  By using this program,
 the user acknowledges that Gaussian, Inc. is engaged in the
 business of creating and licensing software in the field of
 computational chemistry and represents and warrants to the
 licensee that it is not a competitor of Gaussian, Inc. and that
 it will not use this program in any manner prohibited above.
 ---------------------------------------------------------------
  

 Cite this work as:
 Gaussian 09, Revision D.01,
 M. J. Frisch, G. W. Trucks, H. B. Schlegel, G. E. Scuseria, 
 M. A. Robb, J. R. Cheeseman, G. Scalmani, V. Barone, B. Mennucci, 
 G. A. Petersson, H. Nakatsuji, M. Caricato, X. Li, H. P. Hratchian, 
 A. F. Izmaylov, J. Bloino, G. Zheng, J. L. Sonnenberg, M. Hada, 
 M. Ehara, K. Toyota, R. Fukuda, J. Hasegawa, M. Ishida, T. Nakajima, 
 Y. Honda, O. Kitao, H. Nakai, T. Vreven, J. A. Montgomery, Jr., 
 J. E. Peralta, F. Ogliaro, M. Bearpark, J. J. Heyd, E. Brothers, 
 K. N. Kudin, V. N. Staroverov, T. Keith, R. Kobayashi, J. Normand, 
 K. Raghavachari, A. Rendell, J. C. Burant, S. S. Iyengar, J. Tomasi, 
 M. Cossi, N. Rega, J. M. Millam, M. Klene, J. E. Knox, J. B. Cross, 
 V. Bakken, C. Adamo, J. Jaramillo, R. Gomperts, R. E. Stratmann, 
 O. Yazyev, A. J. Austin, R. Cammi, C. Pomelli, J. W. Ochterski, 
 R. L. Martin, K. Morokuma, V. G. Zakrzewski, G. A. Voth, 
 P. Salvador, J. J. Dannenberg, S. Dapprich, A. D. Daniels, 
 O. Farkas, J. B. Foresman, J. V. Ortiz, J. Cioslowski, 
 and D. J. Fox, Gaussian, Inc., Wallingford CT, 2013.
 
 ******************************************
 Gaussian 09:  ES64L-G09RevD.01 24-Apr-2013
                26-Jun-2019 
 ******************************************
 %nprocshared=4
 Will use up to    4 processors via shared memory.
 %mem=6000MB
 %chk=IP1_2ginp004.chk
 --------------------------------------------------------
 # m062x/def2tzvp int=ultrafine scrf=(solvent=chloroform)
 --------------------------------------------------------
 1/38=1/1;
 2/12=2,17=6,18=5,40=1/2;
 3/5=44,7=101,11=2,16=1,25=1,30=1,70=2201,72=7,74=-55,75=-5/1,2,3;
 4//1;
 5/5=2,38=5,53=7/2;
 6/7=2,8=2,9=2,10=2,28=1/1;
 99/5=1,9=1/99;
 ------------
 IP1_2ginp004
 ------------
 Symbolic Z-matrix:
 Charge =  0 Multiplicity = 1
 C                     2.47366   0.31061   0.10134 
 C                     1.12853   0.2966    0.83803 
 C                    -0.03999   0.119    -0.1723 
 C                     0.19291  -1.25293  -0.8292 
 C                     1.58155  -1.46117  -1.40587 
 H                     2.54461   1.23622  -0.48281 
 H                     1.08892  -0.60347   1.46485 
 H                     0.05291  -2.03246  -0.07115 
 H                    -0.51902  -1.4537   -1.63394 
 O                     2.61252  -0.77259  -0.87652 
 O                     1.80513  -2.26272  -2.28924 
 C                     3.72088   0.21847   0.98805 
 C                     3.78921  -1.0109    1.89891 
 C                     1.00099   1.50731   1.77418 
 O                    -1.2444    0.12149   0.58841 
 Si                   -2.79345  -0.51342   0.394 
 C                    -3.52434  -0.13196  -1.30431 
 C                    -2.80983  -2.37857   0.68299 
 C                    -3.79043   0.34595   1.73701 
 H                    -3.84444  -2.73992   0.71742 
 H                    -2.29643  -2.93319  -0.10868 
 H                    -2.33797  -2.63638   1.63723 
 H                    -4.82699  -0.00912   1.73972 
 H                    -3.36794   0.1514    2.72828 
 H                    -3.80822   1.43043   1.58706 
 H                    -4.56283  -0.48199  -1.33998 
 H                    -3.53077   0.94302  -1.51238 
 H                    -2.9867   -0.63129  -2.11722 
 H                    -0.01055   1.55107   2.18174 
 H                     1.69795   1.41927   2.6123 
 H                     1.20225   2.44937   1.2589 
 H                     3.78438   1.13685   1.58143 
 H                     4.58753   0.22637   0.31776 
 H                     3.00829  -0.9998    2.66574 
 H                     3.68497  -1.93375   1.32052 
 H                     4.75344  -1.04727   2.41445 
 C                    -0.13046   1.19858  -1.28714 
 C                    -0.43962   2.60416  -0.84894 
 C                     0.17111   3.69544  -1.31408 
 H                    -0.93222   0.86535  -1.95981 
 H                     0.78446   1.19217  -1.89076 
 H                    -1.25032   2.70985  -0.13045 
 H                    -0.12131   4.69129  -0.99419 
 H                     0.98322   3.63461  -2.03538 
 
                          Input orientation:                          
 ---------------------------------------------------------------------
 Center     Atomic      Atomic             Coordinates (Angstroms)
 Number     Number       Type             X           Y           Z
 ---------------------------------------------------------------------
      1          6           0        2.473658    0.310613    0.101338
      2          6           0        1.128531    0.296601    0.838034
      3          6           0       -0.039990    0.118997   -0.172302
      4          6           0        0.192908   -1.252929   -0.829196
      5          6           0        1.581546   -1.461170   -1.405866
      6          1           0        2.544608    1.236224   -0.482812
      7          1           0        1.088916   -0.603470    1.464845
      8          1           0        0.052906   -2.032459   -0.071151
      9          1           0       -0.519018   -1.453695   -1.633938
     10          8           0        2.612523   -0.772591   -0.876515
     11          8           0        1.805127   -2.262715   -2.289238
     12          6           0        3.720885    0.218467    0.988053
     13          6           0        3.789213   -1.010903    1.898908
     14          6           0        1.000989    1.507308    1.774177
     15          8           0       -1.244405    0.121486    0.588412
     16         14           0       -2.793446   -0.513420    0.394002
     17          6           0       -3.524341   -0.131961   -1.304307
     18          6           0       -2.809833   -2.378570    0.682991
     19          6           0       -3.790425    0.345949    1.737009
     20          1           0       -3.844444   -2.739916    0.717417
     21          1           0       -2.296427   -2.933193   -0.108682
     22          1           0       -2.337970   -2.636384    1.637234
     23          1           0       -4.826989   -0.009117    1.739724
     24          1           0       -3.367943    0.151399    2.728279
     25          1           0       -3.808219    1.430428    1.587063
     26          1           0       -4.562834   -0.481993   -1.339980
     27          1           0       -3.530765    0.943023   -1.512381
     28          1           0       -2.986697   -0.631286   -2.117219
     29          1           0       -0.010547    1.551070    2.181737
     30          1           0        1.697951    1.419274    2.612295
     31          1           0        1.202248    2.449369    1.258895
     32          1           0        3.784384    1.136846    1.581433
     33          1           0        4.587530    0.226365    0.317760
     34          1           0        3.008293   -0.999797    2.665739
     35          1           0        3.684974   -1.933753    1.320518
     36          1           0        4.753438   -1.047271    2.414454
     37          6           0       -0.130455    1.198580   -1.287139
     38          6           0       -0.439619    2.604162   -0.848940
     39          6           0        0.171109    3.695442   -1.314083
     40          1           0       -0.932218    0.865346   -1.959806
     41          1           0        0.784455    1.192169   -1.890755
     42          1           0       -1.250321    2.709847   -0.130453
     43          1           0       -0.121305    4.691290   -0.994188
     44          1           0        0.983223    3.634612   -2.035380
 ---------------------------------------------------------------------
                    Distance matrix (angstroms):
                    1          2          3          4          5
     1  C    0.000000
     2  C    1.533716   0.000000
     3  C    2.535749   1.554916   0.000000
     4  C    2.917598   2.460912   1.538809   0.000000
     5  C    2.491334   2.886186   2.578369   1.517968   0.000000
     6  H    1.096823   2.152394   2.832801   3.441854   3.009228
     7  H    2.147606   1.097538   2.115807   2.547008   3.036333
     8  H    3.373393   2.721784   2.155835   1.096312   2.108216
     9  H    3.883307   3.447985   2.199820   1.093049   2.112923
    10  O    1.465882   2.507007   2.885597   2.467286   1.348060
    11  O    3.575445   4.097281   3.682177   2.398049   1.213593
    12  C    1.533078   2.597866   3.937067   4.232496   3.623369
    13  C    2.590048   3.148690   4.497708   4.520458   3.999758
    14  C    2.529669   1.535722   2.607647   3.879363   4.388802
    15  O    3.754598   2.392447   1.424538   2.442232   3.803675
    16  Si   5.339201   4.029293   2.881349   3.310800   4.824760
    17  C    6.176383   5.140283   3.672209   3.911552   5.277044
    18  C    5.956954   4.763537   3.826408   3.545452   4.948652
    19  C    6.474211   5.000672   4.214586   5.000876   6.480850
    20  H    7.042989   5.827990   4.841369   4.572019   5.965307
    21  H    5.772356   4.801893   3.796238   3.088562   4.346057
    22  H    5.847695   4.610613   4.018365   3.795072   5.099430
    23  H    7.489058   6.031146   5.156318   5.774581   7.285089
    24  H    6.407064   4.879794   4.414713   5.225651   6.647479
    25  H    6.551591   5.120362   4.360592   5.389595   6.809444
    26  H    7.226191   6.143418   4.709647   4.844825   6.222261
    27  H    6.249570   5.258455   3.828882   4.376607   5.650417
    28  H    5.968639   5.150689   3.609530   3.486450   4.697188
    29  H    3.469592   2.162575   2.755576   4.119408   4.947650
    30  H    2.852325   2.175462   3.530600   4.609738   4.945313
    31  H    2.744212   2.194759   3.003683   4.368741   4.747329
    32  H    2.142742   2.883090   4.328676   4.941746   4.530578
    33  H    2.126591   3.498613   4.654635   4.776664   3.854167
    34  H    2.929021   2.924835   4.312564   4.495002   4.338944
    35  H    2.826812   3.426758   4.507511   4.156840   3.475761
    36  H    3.520192   4.175050   5.570318   5.600178   4.982676
    37  C    3.081843   2.629633   1.554524   2.514791   3.165330
    38  C    3.827607   3.260339   2.606451   3.908661   4.574079
    39  C    4.331537   4.135261   3.760211   4.972119   5.346813
    40  H    4.019457   3.521089   2.132669   2.651655   3.469659
    41  H    2.756625   2.892528   2.187347   2.730447   2.812593
    42  H    4.435997   3.524296   2.859922   4.274897   5.200340
    43  H    5.208103   4.922643   4.646286   5.954804   6.397026
    44  H    4.223261   4.406806   4.108232   5.095835   5.169262
                    6          7          8          9         10
     6  H    0.000000
     7  H    3.049079   0.000000
     8  H    4.130658   2.339788   0.000000
     9  H    4.236338   3.593159   1.761922   0.000000
    10  O    2.048158   2.798562   2.964375   3.293044   0.000000
    11  O    4.006567   4.166436   2.836055   2.546680   2.206387
    12  C    2.140771   2.798244   4.432003   5.258112   2.384801
    13  C    3.503029   2.765143   4.345653   5.589089   3.023965
    14  C    2.747771   2.135135   4.102932   4.763739   3.849825
    15  O    4.092283   2.595782   2.599523   2.818904   4.221526
    16  Si   5.685497   4.028343   3.259688   3.188994   5.559306
    17  C    6.275263   5.401172   4.234296   3.299637   6.185023
    18  C    6.564745   4.354598   2.980570   3.386944   5.866274
    19  C    6.771472   4.978297   4.868004   5.030319   7.005668
    20  H    7.620382   5.427807   4.038771   4.271029   6.935662
    21  H    6.399971   4.400471   2.516366   2.770289   5.418077
    22  H    6.582648   3.988233   2.999932   3.925291   5.856624
    23  H    7.799422   5.952037   5.584492   5.659242   7.923001
    24  H    6.815146   4.693579   4.930340   5.451755   7.043740
    25  H    6.684348   5.304113   5.445140   5.432482   7.221387
    26  H    7.362251   6.310632   5.031792   4.169300   7.196179
    27  H    6.168966   5.709375   4.875791   3.850929   6.409964
    28  H    6.062525   5.426102   3.922865   2.645630   5.736774
    29  H    3.705100   2.522855   4.233345   4.883291   4.651108
    30  H    3.214035   2.403967   4.671351   5.585642   4.220487
    31  H    2.511413   3.061876   4.814228   5.154139   4.114593
    32  H    2.409985   3.210583   5.167152   5.963957   3.325766
    33  H    2.415422   3.774219   5.080979   5.719140   2.514927
    34  H    3.889494   2.298528   4.158277   5.579890   3.571529
    35  H    3.821150   2.920616   3.890810   5.160699   2.706548
    36  H    4.299701   3.811488   5.407756   6.659839   3.935663
    37  C    2.793621   3.508228   3.457146   2.702927   3.402654
    38  C    3.303167   4.240156   4.727133   4.133852   4.551790
    39  C    3.517423   5.200524   5.862397   5.205016   5.110312
    40  H    3.795706   4.239179   3.596493   2.377998   4.052351
    41  H    2.254414   3.817993   3.774169   2.960674   2.868937
    42  H    4.086222   4.358334   4.918474   4.486686   5.254098
    43  H    4.393868   5.962043   6.789046   6.190985   6.110782
    44  H    3.255865   5.497644   6.069545   5.320597   4.839527
                   11         12         13         14         15
    11  O    0.000000
    12  C    4.535089   0.000000
    13  C    4.800437   1.531560   0.000000
    14  C    5.600987   3.110777   3.759141   0.000000
    15  O    4.823373   4.982291   5.323252   2.892808   0.000000
    16  Si   5.604167   6.582178   6.770792   4.515082   1.685357
    17  C    5.823524   7.607300   8.032509   5.713395   2.974009
    18  C    5.490485   7.034767   6.848093   5.550955   2.951235
    19  C    7.370617   7.549633   7.701829   4.930293   2.802120
    20  H    6.417581   8.127698   7.915689   6.529462   3.868393
    21  H    4.693305   6.880685   6.690339   5.842616   3.305110
    22  H    5.720320   6.729141   6.344528   5.323306   3.146706
    23  H    8.080606   8.583878   8.675705   6.022131   3.765300
    24  H    7.600268   7.299614   7.298197   4.672940   3.014853
    25  H    7.757233   7.649514   7.986133   4.813461   3.046929
    26  H    6.680044   8.633098   8.973674   6.679178   3.885210
    27  H    6.273118   7.704776   8.308839   5.626427   3.211806
    28  H    5.064852   7.440192   7.885832   5.968097   3.304949
    29  H    6.150711   4.138151   4.591500   1.091433   2.470789
    30  H    6.131358   2.858734   3.284518   1.093594   3.799712
    31  H    5.929287   3.375472   4.367549   1.092474   3.443065
    32  H    5.518747   1.095241   2.171092   2.814548   5.225492
    33  H    4.553430   1.095641   2.160595   4.077406   5.839154
    34  H    5.253034   2.192392   1.094527   3.333126   4.863949
    35  H    4.083182   2.178044   1.094099   4.387537   5.390618
    36  H    5.682830   2.168612   1.094002   4.584398   6.377660
    37  C    4.090384   4.579295   5.513303   3.278282   2.432839
    38  C    5.549760   5.135745   6.205029   3.187347   2.979487
    39  C    6.254644   5.476321   6.750087   3.874788   4.289094
    40  H    4.169694   5.546142   6.379804   4.253473   2.672864
    41  H    3.624470   4.225903   5.314475   3.684824   3.377707
    42  H    6.222740   5.671941   6.584770   3.184668   2.686339
    43  H    7.331199   6.220760   7.495142   4.365905   4.964784
    44  H    5.959735   5.320337   6.703209   4.363309   4.918197
                   16         17         18         19         20
    16  Si   0.000000
    17  C    1.887848   0.000000
    18  C    1.887477   3.083363   0.000000
    19  C    1.880465   3.090114   3.081480   0.000000
    20  H    2.483240   3.315307   1.096438   3.250392   0.000000
    21  H    2.520917   3.283929   1.094504   4.048627   1.765263
    22  H    2.502011   4.041321   1.095309   3.318718   1.768119
    23  H    2.490098   3.313323   3.286322   1.095693   3.076974
    24  H    2.494169   4.045553   3.300823   1.094969   3.553916
    25  H    2.496338   3.298737   4.040122   1.094941   4.260207
    26  H    2.477583   1.096477   3.280614   3.278714   3.138022
    27  H    2.509813   1.094955   4.046280   3.313979   4.316762
    28  H    2.521402   1.095086   3.305368   4.056605   3.635548
    29  H    3.899057   5.227987   5.052159   3.992190   5.937639
    30  H    5.369244   6.709578   6.202092   5.660426   7.183841
    31  H    5.048933   5.964387   6.303765   5.438727   7.258855
    32  H    6.884854   7.959575   7.526556   7.617575   8.600862
    33  H    7.418349   8.280214   7.851118   8.498159   8.947443
    34  H    6.249602   7.693485   6.299436   6.992577   7.333756
    35  H    6.696693   7.881014   6.541164   7.826372   7.596431
    36  H    7.830880   9.120779   7.872318   8.683178   8.925724
    37  C    3.584508   3.645421   4.884310   4.823674   5.772669
    38  C    4.099357   4.148402   5.726460   4.797349   6.527287
    39  C    5.424081   5.320288   7.054640   6.018473   7.852738
    40  H    3.302359   2.853665   4.586154   4.701655   5.352242
    41  H    4.574989   4.545653   5.682715   5.899685   6.609883
    42  H    3.611888   3.824261   5.383842   3.940502   6.094938
    43  H    6.013020   5.911056   7.747518   6.309031   8.486117
    44  H    6.113207   5.919432   7.611516   6.916208   8.456883
                   21         22         23         24         25
    21  H    0.000000
    22  H    1.771453   0.000000
    23  H    4.286090   3.620532   0.000000
    24  H    4.325645   3.165905   1.769695   0.000000
    25  H    4.919579   4.324709   1.770166   1.769783   0.000000
    26  H    3.558241   4.295954   3.126974   4.287153   3.576923
    27  H    4.303372   4.914773   3.628079   4.316987   3.149777
    28  H    3.132007   4.305483   4.318539   4.923088   4.318248
    29  H    5.529908   4.821634   5.082093   3.678301   3.845842
    30  H    6.504056   5.804116   6.736210   5.223432   5.600815
    31  H    6.563762   6.208153   6.528939   5.322255   5.123545
    32  H    7.509858   7.191912   8.688730   7.310413   7.598279
    33  H    7.586404   7.609132   9.524211   8.312988   8.576100
    34  H    6.290905   5.684960   7.951767   6.479626   7.316719
    35  H    6.230462   6.072055   8.736903   7.488210   8.218072
    36  H    7.721626   7.308722   9.660104   8.215359   8.951287
    37  C    4.811626   5.303963   5.716455   5.263221   4.673408
    38  C    5.887106   6.103124   5.725332   5.233319   4.319633
    39  C    7.174993   7.422787   6.930402   6.436289   5.420515
    40  H    4.440341   5.213151   5.442467   5.331099   4.601193
    41  H    5.448507   6.070755   6.790565   6.297705   5.765816
    42  H    5.739226   5.734970   4.866506   4.382046   3.336108
    43  H    7.977971   8.095233   7.191075   6.708802   5.557824
    44  H    7.589752   7.990232   7.828584   7.331976   6.398315
                   26         27         28         29         30
    26  H    0.000000
    27  H    1.767925   0.000000
    28  H    1.763688   1.772086   0.000000
    29  H    6.104028   5.138887   5.665789   0.000000
    30  H    7.644130   6.676769   6.965560   1.766838   0.000000
    31  H    6.970165   5.687747   6.199665   1.769025   1.771584
    32  H    8.990625   7.944851   7.915419   3.864382   2.344279
    33  H    9.326255   8.352828   8.002100   5.135325   3.877833
    34  H    8.581135   7.999407   7.678046   3.981780   2.751683
    35  H    8.787047   8.268497   7.617457   5.151948   4.106061
    36  H   10.060231   9.381328   8.978797   5.431490   3.931792
    37  C    4.740580   3.417331   3.492214   3.488800   4.312466
    38  C    5.173623   3.571375   4.308626   3.236991   4.237135
    39  C    6.313624   4.617251   5.416396   4.105129   4.788385
    40  H    3.921846   2.637929   2.546678   4.297915   5.303653
    41  H    5.630246   4.338936   4.194981   4.164856   4.600382
    42  H    4.756421   3.198721   4.257395   2.868105   4.228540
    43  H    6.827123   5.093373   6.148291   4.467633   5.198317
    44  H    6.941813   5.281502   5.827937   4.807578   5.198023
                   31         32         33         34         35
    31  H    0.000000
    32  H    2.914477   0.000000
    33  H    4.157838   1.752395   0.000000
    34  H    4.139777   2.518587   3.083905   0.000000
    35  H    5.037805   3.083267   2.546810   1.771945   0.000000
    36  H    5.115932   2.530485   2.458821   1.763783   1.767530
    37  C    3.134144   4.853708   5.077429   5.505438   5.582910
    38  C    2.676314   5.089394   5.682195   6.101605   6.504728
    39  C    3.039105   5.290197   5.848263   6.777453   7.139762
    40  H    4.174339   5.904271   6.005266   6.356261   6.317748
    41  H    3.416928   4.588979   4.502632   5.523749   5.338228
    42  H    2.830765   5.545551   6.359959   6.302059   6.930041
    43  H    3.443020   5.875568   6.620415   7.455060   7.983534
    44  H    3.507851   5.212166   5.490396   6.905011   7.040469
                   36         37         38         39         40
    36  H    0.000000
    37  C    6.526718   0.000000
    38  C    7.137965   1.504414   0.000000
    39  C    7.575820   2.515151   1.334256   0.000000
    40  H    7.424213   1.098340   2.121358   3.105436   0.000000
    41  H    6.269190   1.096108   2.139500   2.641045   1.748870
    42  H    7.525796   2.208155   1.088407   2.095910   2.617232
    43  H    8.265170   3.504986   2.116252   1.086072   4.028380
    44  H    7.479009   2.781078   2.119893   1.087887   3.368005
                   41         42         43         44
    41  H    0.000000
    42  H    3.089065   0.000000
    43  H    3.723987   2.438613   0.000000
    44  H    2.454782   3.077768   1.849495   0.000000
 Stoichiometry    C14H26O3Si
 Framework group  C1[X(C14H26O3Si)]
 Deg. of freedom   126
 Full point group                 C1      NOp   1
 Largest Abelian subgroup         C1      NOp   1
 Largest concise Abelian subgroup C1      NOp   1
                         Standard orientation:                         
 ---------------------------------------------------------------------
 Center     Atomic      Atomic             Coordinates (Angstroms)
 Number     Number       Type             X           Y           Z
 ---------------------------------------------------------------------
      1          6           0        2.473658    0.310613    0.101338
      2          6           0        1.128531    0.296601    0.838034
      3          6           0       -0.039990    0.118997   -0.172302
      4          6           0        0.192908   -1.252929   -0.829196
      5          6           0        1.581546   -1.461170   -1.405866
      6          1           0        2.544608    1.236224   -0.482812
      7          1           0        1.088916   -0.603470    1.464845
      8          1           0        0.052906   -2.032459   -0.071151
      9          1           0       -0.519018   -1.453695   -1.633938
     10          8           0        2.612523   -0.772591   -0.876515
     11          8           0        1.805127   -2.262715   -2.289238
     12          6           0        3.720885    0.218467    0.988053
     13          6           0        3.789213   -1.010903    1.898908
     14          6           0        1.000989    1.507308    1.774177
     15          8           0       -1.244405    0.121486    0.588412
     16         14           0       -2.793446   -0.513420    0.394002
     17          6           0       -3.524341   -0.131961   -1.304307
     18          6           0       -2.809833   -2.378570    0.682991
     19          6           0       -3.790425    0.345949    1.737009
     20          1           0       -3.844444   -2.739916    0.717417
     21          1           0       -2.296427   -2.933193   -0.108682
     22          1           0       -2.337970   -2.636384    1.637234
     23          1           0       -4.826989   -0.009117    1.739724
     24          1           0       -3.367943    0.151399    2.728279
     25          1           0       -3.808219    1.430428    1.587063
     26          1           0       -4.562834   -0.481993   -1.339980
     27          1           0       -3.530765    0.943023   -1.512381
     28          1           0       -2.986697   -0.631286   -2.117219
     29          1           0       -0.010547    1.551070    2.181737
     30          1           0        1.697951    1.419274    2.612295
     31          1           0        1.202248    2.449369    1.258895
     32          1           0        3.784384    1.136846    1.581433
     33          1           0        4.587530    0.226365    0.317760
     34          1           0        3.008293   -0.999797    2.665739
     35          1           0        3.684974   -1.933753    1.320518
     36          1           0        4.753438   -1.047271    2.414454
     37          6           0       -0.130455    1.198580   -1.287139
     38          6           0       -0.439619    2.604162   -0.848940
     39          6           0        0.171109    3.695442   -1.314083
     40          1           0       -0.932218    0.865346   -1.959806
     41          1           0        0.784455    1.192169   -1.890755
     42          1           0       -1.250321    2.709847   -0.130453
     43          1           0       -0.121305    4.691290   -0.994188
     44          1           0        0.983223    3.634612   -2.035380
 ---------------------------------------------------------------------
 Rotational constants (GHZ):      0.4864031      0.2615901      0.2377584
 Standard basis: def2TZVP (5D, 7F)
 There are   810 symmetry adapted cartesian basis functions of A   symmetry.
 There are   720 symmetry adapted basis functions of A   symmetry.
   720 basis functions,  1144 primitive gaussians,   810 cartesian basis functions
    74 alpha electrons       74 beta electrons
       nuclear repulsion energy      1625.0855557731 Hartrees.
 NAtoms=   44 NActive=   44 NUniq=   44 SFac= 1.00D+00 NAtFMM=   60 NAOKFM=F Big=F
 Integral buffers will be    131072 words long.
 Raffenetti 2 integral format.
 Two-electron integral symmetry is turned on.
 ------------------------------------------------------------------------------
 Polarizable Continuum Model (PCM)
 =================================
 Model                : PCM (using non-symmetric T matrix).
 Atomic radii         : UFF (Universal Force Field).
 Polarization charges : Total charges.
 Charge compensation  : None.
 Solution method      : On-the-fly selection.
 Cavity type          : Scaled VdW (van der Waals Surface) (Alpha=1.100).
 Cavity algorithm     : GePol (No added spheres)
                        Default sphere list used, NSphG=   44.
                        Lebedev-Laikov grids with approx.  5.0 points / Ang**2.
                        Smoothing algorithm: Karplus/York (Gamma=1.0000).
                        Polarization charges: spherical gaussians, with
                                              point-specific exponents (IZeta= 3).
                        Self-potential: point-specific (ISelfS= 7).
                        Self-field    : sphere-specific E.n sum rule (ISelfD= 2).
 Solvent              : Chloroform, Eps=   4.711300 Eps(inf)=   2.090627
 ------------------------------------------------------------------------------
 One-electron integrals computed using PRISM.
   1 Symmetry operations used in ECPInt.
 ECPInt:  NShTT=   46360 NPrTT=  137514 LenC2=   42121 LenP2D=   90387.
 LDataN:  DoStor=T MaxTD1= 6 Len=  172
 NBasis=   720 RedAO= T EigKep=  4.16D-05  NBF=   720
 NBsUse=   720 1.00D-06 EigRej= -1.00D+00 NBFU=   720
 ExpMin= 7.01D-02 ExpMax= 4.48D+04 ExpMxC= 1.53D+03 IAcc=3 IRadAn=         5 AccDes= 0.00D+00
 Harris functional with IExCor= 1009 and IRadAn=       5 diagonalized for initial guess.
 HarFok:  IExCor= 1009 AccDes= 0.00D+00 IRadAn=         5 IDoV= 1 UseB2=F ITyADJ=14
 ICtDFT=  3500011 ScaDFX=  1.000000  1.000000  1.000000  1.000000
 FoFCou: FMM=F IPFlag=           0 FMFlag=      100000 FMFlg1=           0
         NFxFlg=           0 DoJE=T BraDBF=F KetDBF=T FulRan=T
         wScrn=  0.000000 ICntrl=     500 IOpCl=  0 I1Cent=   200000004 NGrid=           0
         NMat0=    1 NMatS0=      1 NMatT0=    0 NMatD0=    1 NMtDS0=    0 NMtDT0=    0
 Petite list used in FoFCou.
 Requested convergence on RMS density matrix=1.00D-08 within 128 cycles.
 Requested convergence on MAX density matrix=1.00D-06.
 Requested convergence on             energy=1.00D-06.
 No special actions if energy rises.
 Inv3:  Mode=1 IEnd=    24848652.
 Iteration    1 A*A^-1 deviation from unit magnitude is 7.66D-15 for   2870.
 Iteration    1 A*A^-1 deviation from orthogonality  is 4.86D-15 for   2870   1453.
 Iteration    1 A^-1*A deviation from unit magnitude is 7.55D-15 for   2870.
 Iteration    1 A^-1*A deviation from orthogonality  is 3.55D-13 for   2047   2015.
 Error on total polarization charges =  0.01464
 SCF Done:  E(RM062X) =  -1064.33976153     A.U. after   14 cycles
            NFock= 14  Conv=0.15D-08     -V/T= 2.0047

 **********************************************************************

            Population analysis using the SCF density.

 **********************************************************************

 Orbital symmetries:
       Occupied  (A) (A) (A) (A) (A) (A) (A) (A) (A) (A) (A) (A)
                 (A) (A) (A) (A) (A) (A) (A) (A) (A) (A) (A) (A)
                 (A) (A) (A) (A) (A) (A) (A) (A) (A) (A) (A) (A)
                 (A) (A) (A) (A) (A) (A) (A) (A) (A) (A) (A) (A)
                 (A) (A) (A) (A) (A) (A) (A) (A) (A) (A) (A) (A)
                 (A) (A) (A) (A) (A) (A) (A) (A) (A) (A) (A) (A)
                 (A) (A)
       Virtual   (A) (A) (A) (A) (A) (A) (A) (A) (A) (A) (A) (A)
                 (A) (A) (A) (A) (A) (A) (A) (A) (A) (A) (A) (A)
                 (A) (A) (A) (A) (A) (A) (A) (A) (A) (A) (A) (A)
                 (A) (A) (A) (A) (A) (A) (A) (A) (A) (A) (A) (A)
                 (A) (A) (A) (A) (A) (A) (A) (A) (A) (A) (A) (A)
                 (A) (A) (A) (A) (A) (A) (A) (A) (A) (A) (A) (A)
                 (A) (A) (A) (A) (A) (A) (A) (A) (A) (A) (A) (A)
                 (A) (A) (A) (A) (A) (A) (A) (A) (A) (A) (A) (A)
                 (A) (A) (A) (A) (A) (A) (A) (A) (A) (A) (A) (A)
                 (A) (A) (A) (A) (A) (A) (A) (A) (A) (A) (A) (A)
                 (A) (A) (A) (A) (A) (A) (A) (A) (A) (A) (A) (A)
                 (A) (A) (A) (A) (A) (A) (A) (A) (A) (A) (A) (A)
                 (A) (A) (A) (A) (A) (A) (A) (A) (A) (A) (A) (A)
                 (A) (A) (A) (A) (A) (A) (A) (A) (A) (A) (A) (A)
                 (A) (A) (A) (A) (A) (A) (A) (A) (A) (A) (A) (A)
                 (A) (A) (A) (A) (A) (A) (A) (A) (A) (A) (A) (A)
                 (A) (A) (A) (A) (A) (A) (A) (A) (A) (A) (A) (A)
                 (A) (A) (A) (A) (A) (A) (A) (A) (A) (A) (A) (A)
                 (A) (A) (A) (A) (A) (A) (A) (A) (A) (A) (A) (A)
                 (A) (A) (A) (A) (A) (A) (A) (A) (A) (A) (A) (A)
                 (A) (A) (A) (A) (A) (A) (A) (A) (A) (A) (A) (A)
                 (A) (A) (A) (A) (A) (A) (A) (A) (A) (A) (A) (A)
                 (A) (A) (A) (A) (A) (A) (A) (A) (A) (A) (A) (A)
                 (A) (A) (A) (A) (A) (A) (A) (A) (A) (A) (A) (A)
                 (A) (A) (A) (A) (A) (A) (A) (A) (A) (A) (A) (A)
                 (A) (A) (A) (A) (A) (A) (A) (A) (A) (A) (A) (A)
                 (A) (A) (A) (A) (A) (A) (A) (A) (A) (A) (A) (A)
                 (A) (A) (A) (A) (A) (A) (A) (A) (A) (A) (A) (A)
                 (A) (A) (A) (A) (A) (A) (A) (A) (A) (A) (A) (A)
                 (A) (A) (A) (A) (A) (A) (A) (A) (A) (A) (A) (A)
                 (A) (A) (A) (A) (A) (A) (A) (A) (A) (A) (A) (A)
                 (A) (A) (A) (A) (A) (A) (A) (A) (A) (A) (A) (A)
                 (A) (A) (A) (A) (A) (A) (A) (A) (A) (A) (A) (A)
                 (A) (A) (A) (A) (A) (A) (A) (A) (A) (A) (A) (A)
                 (A) (A) (A) (A) (A) (A) (A) (A) (A) (A) (A) (A)
                 (A) (A) (A) (A) (A) (A) (A) (A) (A) (A) (A) (A)
                 (A) (A) (A) (A) (A) (A) (A) (A) (A) (A) (A) (A)
                 (A) (A) (A) (A) (A) (A) (A) (A) (A) (A) (A) (A)
                 (A) (A) (A) (A) (A) (A) (A) (A) (A) (A) (A) (A)
                 (A) (A) (A) (A) (A) (A) (A) (A) (A) (A) (A) (A)
                 (A) (A) (A) (A) (A) (A) (A) (A) (A) (A) (A) (A)
                 (A) (A) (A) (A) (A) (A) (A) (A) (A) (A) (A) (A)
                 (A) (A) (A) (A) (A) (A) (A) (A) (A) (A) (A) (A)
                 (A) (A) (A) (A) (A) (A) (A) (A) (A) (A) (A) (A)
                 (A) (A) (A) (A) (A) (A) (A) (A) (A) (A) (A) (A)
                 (A) (A) (A) (A) (A) (A) (A) (A) (A) (A) (A) (A)
                 (A) (A) (A) (A) (A) (A) (A) (A) (A) (A) (A) (A)
                 (A) (A) (A) (A) (A) (A) (A) (A) (A) (A) (A) (A)
                 (A) (A) (A) (A) (A) (A) (A) (A) (A) (A) (A) (A)
                 (A) (A) (A) (A) (A) (A) (A) (A) (A) (A) (A) (A)
                 (A) (A) (A) (A) (A) (A) (A) (A) (A) (A) (A) (A)
                 (A) (A) (A) (A) (A) (A) (A) (A) (A) (A) (A) (A)
                 (A) (A) (A) (A) (A) (A) (A) (A) (A) (A) (A) (A)
                 (A) (A) (A) (A) (A) (A) (A) (A) (A) (A)
 The electronic state is 1-A.
 Alpha  occ. eigenvalues --  -67.01766 -19.67334 -19.62109 -19.61706 -10.68360
 Alpha  occ. eigenvalues --  -10.62153 -10.61024 -10.55869 -10.55405 -10.54823
 Alpha  occ. eigenvalues --  -10.54769 -10.54133 -10.53376 -10.52809 -10.52754
 Alpha  occ. eigenvalues --  -10.51284 -10.51078 -10.50899  -5.55216  -3.86403
 Alpha  occ. eigenvalues --   -3.86258  -3.86246  -1.22977  -1.14274  -1.13467
 Alpha  occ. eigenvalues --   -0.93597  -0.90606  -0.88218  -0.84790  -0.80812
 Alpha  occ. eigenvalues --   -0.79923  -0.78898  -0.77037  -0.76883  -0.73678
 Alpha  occ. eigenvalues --   -0.69243  -0.69104  -0.64917  -0.62115  -0.59530
 Alpha  occ. eigenvalues --   -0.58228  -0.56895  -0.55690  -0.54550  -0.53216
 Alpha  occ. eigenvalues --   -0.51770  -0.50768  -0.50213  -0.49691  -0.49003
 Alpha  occ. eigenvalues --   -0.48098  -0.47588  -0.47557  -0.46836  -0.46490
 Alpha  occ. eigenvalues --   -0.46045  -0.45508  -0.45138  -0.44595  -0.44099
 Alpha  occ. eigenvalues --   -0.43225  -0.42842  -0.42659  -0.41548  -0.41227
 Alpha  occ. eigenvalues --   -0.40769  -0.39424  -0.38471  -0.36790  -0.36592
 Alpha  occ. eigenvalues --   -0.35924  -0.34554  -0.33780  -0.31604
 Alpha virt. eigenvalues --    0.03253   0.03513   0.04870   0.06802   0.06916
 Alpha virt. eigenvalues --    0.07373   0.09152   0.09738   0.09926   0.10078
 Alpha virt. eigenvalues --    0.10748   0.10983   0.11772   0.12474   0.12654
 Alpha virt. eigenvalues --    0.13325   0.13715   0.14279   0.14603   0.14713
 Alpha virt. eigenvalues --    0.14956   0.15702   0.15987   0.16245   0.16673
 Alpha virt. eigenvalues --    0.16813   0.17098   0.17589   0.17966   0.18242
 Alpha virt. eigenvalues --    0.18797   0.19176   0.19517   0.20377   0.20550
 Alpha virt. eigenvalues --    0.21406   0.21734   0.22267   0.22614   0.23070
 Alpha virt. eigenvalues --    0.23564   0.24028   0.24219   0.25358   0.25692
 Alpha virt. eigenvalues --    0.26566   0.27002   0.27494   0.27679   0.28153
 Alpha virt. eigenvalues --    0.28613   0.28898   0.29160   0.29847   0.30105
 Alpha virt. eigenvalues --    0.30980   0.31646   0.32543   0.32809   0.33614
 Alpha virt. eigenvalues --    0.34063   0.34775   0.35946   0.36514   0.36932
 Alpha virt. eigenvalues --    0.37710   0.38182   0.38660   0.39112   0.39320
 Alpha virt. eigenvalues --    0.39774   0.40221   0.40480   0.41016   0.41784
 Alpha virt. eigenvalues --    0.42347   0.42677   0.43100   0.43578   0.44003
 Alpha virt. eigenvalues --    0.44574   0.45160   0.45414   0.46072   0.46328
 Alpha virt. eigenvalues --    0.46558   0.47035   0.47169   0.47542   0.47844
 Alpha virt. eigenvalues --    0.48297   0.48932   0.49030   0.49469   0.49613
 Alpha virt. eigenvalues --    0.50264   0.50618   0.50652   0.50810   0.51464
 Alpha virt. eigenvalues --    0.52108   0.52472   0.52864   0.53347   0.53707
 Alpha virt. eigenvalues --    0.54054   0.54574   0.55131   0.55598   0.56026
 Alpha virt. eigenvalues --    0.56748   0.57063   0.57774   0.57930   0.59046
 Alpha virt. eigenvalues --    0.59394   0.60303   0.60771   0.61241   0.62424
 Alpha virt. eigenvalues --    0.63134   0.64010   0.64157   0.64694   0.65608
 Alpha virt. eigenvalues --    0.66287   0.66445   0.67132   0.68475   0.68706
 Alpha virt. eigenvalues --    0.70282   0.70877   0.71597   0.72662   0.73621
 Alpha virt. eigenvalues --    0.74107   0.75334   0.75886   0.76474   0.77179
 Alpha virt. eigenvalues --    0.77622   0.79095   0.79654   0.80651   0.81278
 Alpha virt. eigenvalues --    0.82781   0.83232   0.83840   0.84308   0.85551
 Alpha virt. eigenvalues --    0.86452   0.87536   0.88996   0.89499   0.90787
 Alpha virt. eigenvalues --    0.91543   0.91888   0.92453   0.92912   0.93621
 Alpha virt. eigenvalues --    0.94207   0.95061   0.96046   0.96329   0.97677
 Alpha virt. eigenvalues --    0.98452   0.99267   1.00109   1.00327   1.01412
 Alpha virt. eigenvalues --    1.01834   1.03058   1.03841   1.04622   1.04913
 Alpha virt. eigenvalues --    1.05168   1.05740   1.06212   1.06389   1.08197
 Alpha virt. eigenvalues --    1.08438   1.09333   1.09551   1.09961   1.10188
 Alpha virt. eigenvalues --    1.11836   1.12793   1.13625   1.14326   1.14834
 Alpha virt. eigenvalues --    1.15991   1.16720   1.18258   1.18588   1.19523
 Alpha virt. eigenvalues --    1.19908   1.21979   1.23859   1.24033   1.25066
 Alpha virt. eigenvalues --    1.26079   1.26455   1.27285   1.27695   1.28451
 Alpha virt. eigenvalues --    1.28966   1.30641   1.31614   1.33051   1.33661
 Alpha virt. eigenvalues --    1.34758   1.35475   1.36691   1.37352   1.38374
 Alpha virt. eigenvalues --    1.39308   1.39810   1.41147   1.42219   1.44040
 Alpha virt. eigenvalues --    1.44275   1.44577   1.45910   1.46722   1.46999
 Alpha virt. eigenvalues --    1.48018   1.49709   1.50448   1.50616   1.53375
 Alpha virt. eigenvalues --    1.54489   1.55691   1.55846   1.56241   1.56775
 Alpha virt. eigenvalues --    1.57508   1.58069   1.58378   1.58764   1.59241
 Alpha virt. eigenvalues --    1.59695   1.60296   1.60623   1.61033   1.61487
 Alpha virt. eigenvalues --    1.62401   1.62849   1.63571   1.64226   1.64554
 Alpha virt. eigenvalues --    1.65315   1.66038   1.66582   1.66849   1.67048
 Alpha virt. eigenvalues --    1.67784   1.67947   1.68362   1.68492   1.69676
 Alpha virt. eigenvalues --    1.70139   1.70609   1.72338   1.73183   1.73488
 Alpha virt. eigenvalues --    1.73859   1.74481   1.75413   1.76642   1.77474
 Alpha virt. eigenvalues --    1.77726   1.80614   1.81074   1.82028   1.83035
 Alpha virt. eigenvalues --    1.84339   1.84521   1.86069   1.86391   1.87666
 Alpha virt. eigenvalues --    1.88734   1.89287   1.90246   1.91492   1.92766
 Alpha virt. eigenvalues --    1.93198   1.95213   1.96114   1.96993   1.97620
 Alpha virt. eigenvalues --    1.98720   2.00007   2.00955   2.01291   2.01334
 Alpha virt. eigenvalues --    2.02621   2.04601   2.05029   2.05874   2.06115
 Alpha virt. eigenvalues --    2.06216   2.07282   2.08164   2.08623   2.09256
 Alpha virt. eigenvalues --    2.10993   2.11600   2.12512   2.13239   2.14363
 Alpha virt. eigenvalues --    2.15470   2.16529   2.17577   2.18818   2.19642
 Alpha virt. eigenvalues --    2.21109   2.22199   2.22324   2.23572   2.23673
 Alpha virt. eigenvalues --    2.24807   2.25356   2.26237   2.27328   2.28490
 Alpha virt. eigenvalues --    2.29703   2.30790   2.31742   2.32547   2.32687
 Alpha virt. eigenvalues --    2.34427   2.34693   2.35943   2.36181   2.37582
 Alpha virt. eigenvalues --    2.37936   2.38478   2.39472   2.39695   2.39998
 Alpha virt. eigenvalues --    2.40544   2.40794   2.41216   2.41852   2.42909
 Alpha virt. eigenvalues --    2.43043   2.43217   2.43967   2.44547   2.45520
 Alpha virt. eigenvalues --    2.45857   2.46673   2.47786   2.48320   2.49344
 Alpha virt. eigenvalues --    2.51261   2.52242   2.52883   2.53357   2.53502
 Alpha virt. eigenvalues --    2.56123   2.56966   2.57646   2.58218   2.58766
 Alpha virt. eigenvalues --    2.59387   2.60258   2.60630   2.61067   2.61811
 Alpha virt. eigenvalues --    2.62309   2.62414   2.63468   2.63994   2.64646
 Alpha virt. eigenvalues --    2.65569   2.65751   2.66819   2.67244   2.68050
 Alpha virt. eigenvalues --    2.68390   2.68717   2.69087   2.69832   2.70813
 Alpha virt. eigenvalues --    2.71055   2.71870   2.72670   2.73054   2.73688
 Alpha virt. eigenvalues --    2.74569   2.76525   2.76769   2.77090   2.78739
 Alpha virt. eigenvalues --    2.79969   2.80607   2.83011   2.83260   2.84657
 Alpha virt. eigenvalues --    2.85754   2.86467   2.86877   2.87770   2.88453
 Alpha virt. eigenvalues --    2.89283   2.90029   2.91063   2.92941   2.93565
 Alpha virt. eigenvalues --    2.94943   2.95946   2.97373   2.98827   2.99382
 Alpha virt. eigenvalues --    3.01962   3.02999   3.04116   3.04631   3.05781
 Alpha virt. eigenvalues --    3.06502   3.07214   3.08337   3.08613   3.10095
 Alpha virt. eigenvalues --    3.10605   3.11349   3.12330   3.12715   3.13523
 Alpha virt. eigenvalues --    3.14170   3.14585   3.15280   3.16201   3.16426
 Alpha virt. eigenvalues --    3.17284   3.17678   3.18287   3.19206   3.20308
 Alpha virt. eigenvalues --    3.21027   3.21614   3.22619   3.23215   3.23792
 Alpha virt. eigenvalues --    3.23890   3.24565   3.25313   3.25905   3.26569
 Alpha virt. eigenvalues --    3.27124   3.29023   3.29174   3.29552   3.29783
 Alpha virt. eigenvalues --    3.30033   3.30712   3.31385   3.32013   3.32465
 Alpha virt. eigenvalues --    3.33130   3.34495   3.34771   3.34994   3.35504
 Alpha virt. eigenvalues --    3.36229   3.37061   3.37372   3.38894   3.39383
 Alpha virt. eigenvalues --    3.40532   3.40855   3.41938   3.42307   3.42870
 Alpha virt. eigenvalues --    3.43153   3.43702   3.44457   3.45572   3.46394
 Alpha virt. eigenvalues --    3.46652   3.46983   3.47928   3.48543   3.50716
 Alpha virt. eigenvalues --    3.51487   3.52469   3.52612   3.54006   3.55595
 Alpha virt. eigenvalues --    3.55997   3.56815   3.57401   3.57696   3.58795
 Alpha virt. eigenvalues --    3.59829   3.60224   3.60920   3.61709   3.62183
 Alpha virt. eigenvalues --    3.63368   3.63830   3.64534   3.65402   3.65787
 Alpha virt. eigenvalues --    3.66590   3.67972   3.69103   3.69795   3.70041
 Alpha virt. eigenvalues --    3.70442   3.73968   3.75428   3.76497   3.77405
 Alpha virt. eigenvalues --    3.77892   3.78811   3.79719   3.82112   3.82816
 Alpha virt. eigenvalues --    3.85115   3.87614   3.89009   3.90465   3.92340
 Alpha virt. eigenvalues --    3.93500   3.95638   3.97452   3.98628   3.99392
 Alpha virt. eigenvalues --    4.01686   4.03050   4.05980   4.08463   4.09228
 Alpha virt. eigenvalues --    4.12339   4.13123   4.14124   4.15348   4.18335
 Alpha virt. eigenvalues --    4.20259   4.21810   4.23801   4.24267   4.26856
 Alpha virt. eigenvalues --    4.27050   4.27878   4.28672   4.28783   4.29440
 Alpha virt. eigenvalues --    4.30350   4.30817   4.32056   4.34325   4.36088
 Alpha virt. eigenvalues --    4.37121   4.37727   4.38230   4.38537   4.39279
 Alpha virt. eigenvalues --    4.41094   4.44249   4.44551   4.46579   4.49222
 Alpha virt. eigenvalues --    4.50453   4.53861   4.54867   4.57737   4.60181
 Alpha virt. eigenvalues --    4.61222   4.64487   4.66898   4.69567   4.69852
 Alpha virt. eigenvalues --    4.70645   4.75269   4.78940   4.80120   4.83623
 Alpha virt. eigenvalues --    4.86349   4.89641   4.90354   4.95273   4.97917
 Alpha virt. eigenvalues --    5.06457   5.09088   5.15221   5.17366   5.21836
 Alpha virt. eigenvalues --    5.24673   5.26142   5.26893   5.28907   5.36318
 Alpha virt. eigenvalues --    5.47684   5.48727   5.54156   5.60886   5.81539
 Alpha virt. eigenvalues --    5.85187   5.86470   5.88994   5.91473   6.02296
 Alpha virt. eigenvalues --    6.13068   6.17282   6.22828   6.36837   6.38400
 Alpha virt. eigenvalues --    6.51152   6.61891   6.62419   6.64881   6.66117
 Alpha virt. eigenvalues --    6.69866   6.75802   6.81379   6.85983   6.88295
 Alpha virt. eigenvalues --    6.91580   6.97782   7.04454   7.05960   7.15850
 Alpha virt. eigenvalues --    7.19605   7.33881   7.43003  12.16982  22.33185
 Alpha virt. eigenvalues --   22.37971  22.41212  22.44067  22.45476  22.54922
 Alpha virt. eigenvalues --   22.61215  22.65043  22.68952  22.77808  22.84418
 Alpha virt. eigenvalues --   22.90692  22.91382  23.45789  44.05546  44.50328
 Alpha virt. eigenvalues --   44.52071
          Condensed to atoms (all electrons):
               1          2          3          4          5          6
     1  C    5.420175  -0.000318  -0.041730   0.001736  -0.038483   0.445675
     2  C   -0.000318   5.947610   0.025978  -0.007384  -0.019619  -0.029718
     3  C   -0.041730   0.025978   5.731978  -0.166222   0.073314  -0.042763
     4  C    0.001736  -0.007384  -0.166222   6.199150   0.087164   0.006843
     5  C   -0.038483  -0.019619   0.073314   0.087164   4.425036  -0.004309
     6  H    0.445675  -0.029718  -0.042763   0.006843  -0.004309   0.517166
     7  H   -0.021552   0.425370  -0.049027  -0.011997   0.000073   0.004472
     8  H    0.004410  -0.021836  -0.039880   0.400329  -0.002101  -0.000288
     9  H   -0.001447   0.016992  -0.021537   0.358723  -0.004541   0.000284
    10  O    0.171184  -0.020930   0.026974  -0.164710   0.396981  -0.036069
    11  O    0.000553   0.000723   0.012970  -0.164235   0.747906   0.000123
    12  C    0.190887  -0.032772   0.024936  -0.007216   0.004391  -0.047631
    13  C   -0.035919   0.022416  -0.003134  -0.000602  -0.001420   0.008651
    14  C   -0.039565   0.161701  -0.009528  -0.001705   0.003074  -0.006064
    15  O    0.013107  -0.080027   0.179047  -0.024448  -0.003779  -0.000073
    16  Si  -0.001268   0.007370  -0.067434   0.016324  -0.003101  -0.000088
    17  C    0.000245  -0.000488   0.017536  -0.011532   0.000505   0.000008
    18  C    0.000128  -0.000768  -0.009368   0.015201   0.000854   0.000000
    19  C   -0.000021  -0.000499   0.001360  -0.001336  -0.000096   0.000000
    20  H    0.000000  -0.000027   0.000201  -0.000438  -0.000021   0.000000
    21  H   -0.000014   0.000289  -0.004010   0.003601   0.000583   0.000000
    22  H    0.000025   0.000002   0.003267  -0.003387  -0.000018   0.000001
    23  H    0.000000   0.000014  -0.000016   0.000012   0.000000   0.000000
    24  H    0.000013   0.000234  -0.000268   0.000104   0.000001   0.000000
    25  H    0.000000   0.000055   0.000647   0.000068  -0.000001   0.000000
    26  H   -0.000002   0.000024  -0.000709   0.000285  -0.000014   0.000000
    27  H    0.000005  -0.000298  -0.002801   0.000993  -0.000002  -0.000001
    28  H   -0.000025   0.000100   0.005748  -0.002889  -0.000257  -0.000003
    29  H    0.011791  -0.064999   0.003414   0.001148  -0.000249  -0.000323
    30  H   -0.019779  -0.037660   0.009520  -0.000595   0.000043   0.000898
    31  H    0.002280  -0.029188  -0.017398  -0.000366   0.000104   0.002211
    32  H   -0.027060  -0.018298  -0.001927   0.000836  -0.000350  -0.000314
    33  H   -0.063925   0.013867  -0.000044   0.000473  -0.000028  -0.007329
    34  H   -0.029197   0.024229   0.000809   0.000024   0.000258  -0.000495
    35  H    0.020479  -0.012585  -0.001038   0.001839  -0.002208   0.000383
    36  H    0.010601  -0.000679   0.000038  -0.000038   0.000050  -0.000221
    37  C    0.047562  -0.074539   0.204395  -0.068138   0.001551   0.011943
    38  C   -0.014653   0.025955  -0.020339   0.006666   0.000438   0.002995
    39  C   -0.002212   0.002306  -0.002589  -0.000421   0.000078   0.001169
    40  H   -0.002529   0.014896  -0.064129   0.002501  -0.003928   0.000779
    41  H    0.002611  -0.028362   0.002466  -0.009209   0.002460  -0.012924
    42  H    0.000468  -0.005135   0.005354   0.000209  -0.000039  -0.000127
    43  H    0.000009  -0.000009  -0.000234   0.000017   0.000004  -0.000013
    44  H    0.000104  -0.000394  -0.000710   0.000015  -0.000010   0.000099
               7          8          9         10         11         12
     1  C   -0.021552   0.004410  -0.001447   0.171184   0.000553   0.190887
     2  C    0.425370  -0.021836   0.016992  -0.020930   0.000723  -0.032772
     3  C   -0.049027  -0.039880  -0.021537   0.026974   0.012970   0.024936
     4  C   -0.011997   0.400329   0.358723  -0.164710  -0.164235  -0.007216
     5  C    0.000073  -0.002101  -0.004541   0.396981   0.747906   0.004391
     6  H    0.004472  -0.000288   0.000284  -0.036069   0.000123  -0.047631
     7  H    0.505818   0.000946   0.000187  -0.000302  -0.000203  -0.015166
     8  H    0.000946   0.449151  -0.009656   0.001370   0.003163   0.000135
     9  H    0.000187  -0.009656   0.459399   0.006330   0.013305  -0.000035
    10  O   -0.000302   0.001370   0.006330   7.997453  -0.101374  -0.044643
    11  O   -0.000203   0.003163   0.013305  -0.101374   7.857211  -0.000088
    12  C   -0.015166   0.000135  -0.000035  -0.044643  -0.000088   5.239046
    13  C   -0.000573   0.000260   0.000026  -0.001448  -0.000029   0.219830
    14  C   -0.032061   0.000304  -0.000010   0.004387   0.000037   0.023545
    15  O    0.008133  -0.001877  -0.002640  -0.000387  -0.000182  -0.000337
    16  Si   0.000371  -0.007467   0.001401  -0.000312  -0.000822   0.000079
    17  C    0.000176   0.001000  -0.000213  -0.000006   0.000046   0.000000
    18  C   -0.000315  -0.004272  -0.004079  -0.000009   0.000026  -0.000006
    19  C   -0.000029  -0.000019   0.000057  -0.000001  -0.000001   0.000000
    20  H    0.000019   0.000515   0.000049   0.000000  -0.000001   0.000000
    21  H   -0.000066  -0.003286  -0.000501  -0.000003  -0.000017   0.000001
    22  H    0.000322   0.000456   0.000238   0.000001   0.000002   0.000000
    23  H   -0.000002  -0.000004  -0.000003   0.000000   0.000000   0.000000
    24  H    0.000034  -0.000009  -0.000012   0.000000   0.000000   0.000000
    25  H   -0.000009  -0.000010  -0.000005   0.000000   0.000000   0.000000
    26  H   -0.000003  -0.000023  -0.000008   0.000000   0.000000   0.000000
    27  H    0.000001  -0.000028  -0.000218   0.000000   0.000000   0.000000
    28  H   -0.000009  -0.000031   0.002127  -0.000004  -0.000072   0.000000
    29  H   -0.002979   0.000016  -0.000057  -0.000195   0.000000  -0.000250
    30  H   -0.009111  -0.000001   0.000013  -0.000005   0.000000   0.010890
    31  H    0.006765  -0.000006   0.000003   0.000013   0.000001  -0.008306
    32  H    0.002235  -0.000019  -0.000005   0.003877   0.000007   0.420513
    33  H   -0.000602   0.000010  -0.000013   0.002480   0.000009   0.442239
    34  H   -0.010558   0.000045  -0.000005   0.000960   0.000001  -0.029956
    35  H    0.002379  -0.000114  -0.000004   0.003566  -0.000011  -0.057759
    36  H    0.000302  -0.000004   0.000000  -0.000059  -0.000001  -0.041777
    37  C    0.008590   0.009722  -0.015173  -0.013307   0.002294  -0.002876
    38  C   -0.000313  -0.000674   0.000665   0.001215  -0.000044   0.000811
    39  C   -0.000191  -0.000006   0.000022  -0.000048   0.000004   0.000147
    40  H   -0.000304  -0.000548   0.003224   0.000056  -0.000039   0.000014
    41  H   -0.000752   0.000193  -0.000600   0.005844  -0.000864   0.001327
    42  H   -0.000233  -0.000007  -0.000013   0.000002   0.000000   0.000018
    43  H   -0.000001   0.000000   0.000000   0.000000   0.000000   0.000002
    44  H   -0.000002   0.000001   0.000001  -0.000006  -0.000001  -0.000045
              13         14         15         16         17         18
     1  C   -0.035919  -0.039565   0.013107  -0.001268   0.000245   0.000128
     2  C    0.022416   0.161701  -0.080027   0.007370  -0.000488  -0.000768
     3  C   -0.003134  -0.009528   0.179047  -0.067434   0.017536  -0.009368
     4  C   -0.000602  -0.001705  -0.024448   0.016324  -0.011532   0.015201
     5  C   -0.001420   0.003074  -0.003779  -0.003101   0.000505   0.000854
     6  H    0.008651  -0.006064  -0.000073  -0.000088   0.000008   0.000000
     7  H   -0.000573  -0.032061   0.008133   0.000371   0.000176  -0.000315
     8  H    0.000260   0.000304  -0.001877  -0.007467   0.001000  -0.004272
     9  H    0.000026  -0.000010  -0.002640   0.001401  -0.000213  -0.004079
    10  O   -0.001448   0.004387  -0.000387  -0.000312  -0.000006  -0.000009
    11  O   -0.000029   0.000037  -0.000182  -0.000822   0.000046   0.000026
    12  C    0.219830   0.023545  -0.000337   0.000079   0.000000  -0.000006
    13  C    5.104191  -0.009847  -0.000040   0.000007   0.000000  -0.000003
    14  C   -0.009847   5.181889  -0.020429  -0.000351  -0.000295   0.000008
    15  O   -0.000040  -0.020429   8.071872   0.379659  -0.030772  -0.018051
    16  Si   0.000007  -0.000351   0.379659  12.421418   0.327624   0.354750
    17  C    0.000000  -0.000295  -0.030772   0.327624   5.207948  -0.054419
    18  C   -0.000003   0.000008  -0.018051   0.354750  -0.054419   5.164904
    19  C    0.000000   0.000580  -0.018654   0.386766  -0.049703  -0.039932
    20  H    0.000000   0.000001   0.001175  -0.030187   0.002700   0.384115
    21  H   -0.000001   0.000003   0.001476  -0.036259   0.001288   0.393892
    22  H    0.000001  -0.000050  -0.000191  -0.039468   0.003661   0.392654
    23  H    0.000000  -0.000023   0.001235  -0.043123   0.002633   0.002157
    24  H    0.000000  -0.000166   0.000680  -0.031979   0.003508   0.000086
    25  H    0.000000   0.000063   0.000289  -0.034266   0.001022   0.002919
    26  H    0.000000   0.000002   0.001166  -0.020420   0.380804   0.001375
    27  H    0.000000   0.000031   0.000127  -0.036340   0.392544   0.003532
    28  H    0.000000   0.000002   0.000506  -0.035877   0.392904   0.000793
    29  H   -0.000149   0.428148   0.010947  -0.001411   0.000220   0.000114
    30  H   -0.003002   0.422107   0.000261   0.000003  -0.000001   0.000003
    31  H    0.001095   0.415444  -0.000027  -0.000172   0.000016  -0.000002
    32  H   -0.042055   0.001178  -0.000010  -0.000004   0.000000   0.000000
    33  H   -0.038448  -0.000867   0.000010   0.000002   0.000000   0.000000
    34  H    0.411064  -0.002052  -0.000010   0.000017   0.000000  -0.000001
    35  H    0.415700   0.000553   0.000007  -0.000002   0.000000   0.000001
    36  H    0.416317   0.000279  -0.000001   0.000000   0.000000   0.000000
    37  C    0.000402  -0.005317  -0.084664  -0.002371  -0.000141   0.000298
    38  C   -0.000036  -0.020772   0.010166  -0.001835  -0.000848  -0.000017
    39  C   -0.000011  -0.003532   0.003656   0.000076  -0.000165   0.000010
    40  H   -0.000001  -0.000637  -0.003714  -0.001187  -0.003112  -0.000015
    41  H   -0.000113   0.002790   0.004686   0.000935  -0.000417   0.000030
    42  H   -0.000002   0.000741   0.006546  -0.000945  -0.000384   0.000152
    43  H    0.000000  -0.000007  -0.000011   0.000017  -0.000004   0.000000
    44  H    0.000001   0.000320   0.000000  -0.000003  -0.000002   0.000000
              19         20         21         22         23         24
     1  C   -0.000021   0.000000  -0.000014   0.000025   0.000000   0.000013
     2  C   -0.000499  -0.000027   0.000289   0.000002   0.000014   0.000234
     3  C    0.001360   0.000201  -0.004010   0.003267  -0.000016  -0.000268
     4  C   -0.001336  -0.000438   0.003601  -0.003387   0.000012   0.000104
     5  C   -0.000096  -0.000021   0.000583  -0.000018   0.000000   0.000001
     6  H    0.000000   0.000000   0.000000   0.000001   0.000000   0.000000
     7  H   -0.000029   0.000019  -0.000066   0.000322  -0.000002   0.000034
     8  H   -0.000019   0.000515  -0.003286   0.000456  -0.000004  -0.000009
     9  H    0.000057   0.000049  -0.000501   0.000238  -0.000003  -0.000012
    10  O   -0.000001   0.000000  -0.000003   0.000001   0.000000   0.000000
    11  O   -0.000001  -0.000001  -0.000017   0.000002   0.000000   0.000000
    12  C    0.000000   0.000000   0.000001   0.000000   0.000000   0.000000
    13  C    0.000000   0.000000  -0.000001   0.000001   0.000000   0.000000
    14  C    0.000580   0.000001   0.000003  -0.000050  -0.000023  -0.000166
    15  O   -0.018654   0.001175   0.001476  -0.000191   0.001235   0.000680
    16  Si   0.386766  -0.030187  -0.036259  -0.039468  -0.043123  -0.031979
    17  C   -0.049703   0.002700   0.001288   0.003661   0.002633   0.003508
    18  C   -0.039932   0.384115   0.393892   0.392654   0.002157   0.000086
    19  C    5.105321   0.000764   0.002601   0.001419   0.395363   0.389160
    20  H    0.000764   0.507132  -0.016951  -0.014571   0.000028   0.000326
    21  H    0.002601  -0.016951   0.508773  -0.019350  -0.000155  -0.000145
    22  H    0.001419  -0.014571  -0.019350   0.507791   0.000228   0.000949
    23  H    0.395363   0.000028  -0.000155   0.000228   0.522067  -0.018288
    24  H    0.389160   0.000326  -0.000145   0.000949  -0.018288   0.514623
    25  H    0.391572  -0.000117  -0.000097  -0.000176  -0.018599  -0.018323
    26  H    0.000453   0.000113   0.000194  -0.000148   0.000194  -0.000138
    27  H    0.000668  -0.000163  -0.000155  -0.000097   0.000216  -0.000194
    28  H    0.003473   0.000195   0.000776  -0.000210  -0.000160  -0.000088
    29  H   -0.000693  -0.000004  -0.000007   0.000010   0.000052   0.000283
    30  H   -0.000007   0.000000   0.000000  -0.000001   0.000000   0.000002
    31  H   -0.000006   0.000000   0.000000   0.000001   0.000000   0.000002
    32  H    0.000000   0.000000   0.000000   0.000000   0.000000   0.000000
    33  H    0.000000   0.000000   0.000000   0.000000   0.000000   0.000000
    34  H    0.000000   0.000000   0.000000   0.000000   0.000000   0.000000
    35  H    0.000000   0.000000   0.000000   0.000000   0.000000   0.000000
    36  H    0.000000   0.000000   0.000000   0.000000   0.000000   0.000000
    37  C    0.000480   0.000044   0.000462  -0.000128  -0.000069  -0.000014
    38  C   -0.000679  -0.000006  -0.000021   0.000018   0.000034   0.000069
    39  C   -0.000028   0.000000   0.000000   0.000000   0.000002   0.000001
    40  H    0.000269  -0.000006  -0.000081   0.000002  -0.000003  -0.000010
    41  H    0.000010  -0.000001   0.000003  -0.000002   0.000000  -0.000001
    42  H   -0.000007  -0.000004  -0.000005  -0.000006   0.000023  -0.000052
    43  H   -0.000001   0.000000   0.000000   0.000000   0.000000   0.000000
    44  H    0.000000   0.000000   0.000000   0.000000   0.000000   0.000000
              25         26         27         28         29         30
     1  C    0.000000  -0.000002   0.000005  -0.000025   0.011791  -0.019779
     2  C    0.000055   0.000024  -0.000298   0.000100  -0.064999  -0.037660
     3  C    0.000647  -0.000709  -0.002801   0.005748   0.003414   0.009520
     4  C    0.000068   0.000285   0.000993  -0.002889   0.001148  -0.000595
     5  C   -0.000001  -0.000014  -0.000002  -0.000257  -0.000249   0.000043
     6  H    0.000000   0.000000  -0.000001  -0.000003  -0.000323   0.000898
     7  H   -0.000009  -0.000003   0.000001  -0.000009  -0.002979  -0.009111
     8  H   -0.000010  -0.000023  -0.000028  -0.000031   0.000016  -0.000001
     9  H   -0.000005  -0.000008  -0.000218   0.002127  -0.000057   0.000013
    10  O    0.000000   0.000000   0.000000  -0.000004  -0.000195  -0.000005
    11  O    0.000000   0.000000   0.000000  -0.000072   0.000000   0.000000
    12  C    0.000000   0.000000   0.000000   0.000000  -0.000250   0.010890
    13  C    0.000000   0.000000   0.000000   0.000000  -0.000149  -0.003002
    14  C    0.000063   0.000002   0.000031   0.000002   0.428148   0.422107
    15  O    0.000289   0.001166   0.000127   0.000506   0.010947   0.000261
    16  Si  -0.034266  -0.020420  -0.036340  -0.035877  -0.001411   0.000003
    17  C    0.001022   0.380804   0.392544   0.392904   0.000220  -0.000001
    18  C    0.002919   0.001375   0.003532   0.000793   0.000114   0.000003
    19  C    0.391572   0.000453   0.000668   0.003473  -0.000693  -0.000007
    20  H   -0.000117   0.000113  -0.000163   0.000195  -0.000004   0.000000
    21  H   -0.000097   0.000194  -0.000155   0.000776  -0.000007   0.000000
    22  H   -0.000176  -0.000148  -0.000097  -0.000210   0.000010  -0.000001
    23  H   -0.018599   0.000194   0.000216  -0.000160   0.000052   0.000000
    24  H   -0.018323  -0.000138  -0.000194  -0.000088   0.000283   0.000002
    25  H    0.516372   0.000234   0.000710  -0.000130   0.000020   0.000002
    26  H    0.000234   0.493487  -0.015101  -0.014837  -0.000003   0.000000
    27  H    0.000710  -0.015101   0.507544  -0.021246  -0.000008   0.000000
    28  H   -0.000130  -0.014837  -0.021246   0.508114  -0.000007   0.000000
    29  H    0.000020  -0.000003  -0.000008  -0.000007   0.486453  -0.019569
    30  H    0.000002   0.000000   0.000000   0.000000  -0.019569   0.510153
    31  H   -0.000003   0.000000   0.000001   0.000000  -0.022609  -0.026477
    32  H    0.000000   0.000000   0.000000   0.000000   0.000435  -0.008566
    33  H    0.000000   0.000000   0.000000   0.000000   0.000030   0.000362
    34  H    0.000000   0.000000   0.000000   0.000000   0.000014   0.001841
    35  H    0.000000   0.000000   0.000000   0.000000   0.000018  -0.000061
    36  H    0.000000   0.000000   0.000000   0.000000  -0.000002  -0.000038
    37  C   -0.000512   0.000319   0.004922  -0.006652  -0.003436  -0.000107
    38  C   -0.000083  -0.000052  -0.001781   0.001003  -0.000409   0.000714
    39  C    0.000007  -0.000001   0.000282  -0.000005   0.000357   0.000359
    40  H    0.000018   0.000555  -0.003745   0.000676  -0.000079   0.000034
    41  H    0.000003   0.000005   0.000104   0.000029  -0.000152  -0.000001
    42  H    0.001081   0.000012   0.000195   0.000079  -0.000697   0.000138
    43  H   -0.000003   0.000000   0.000005   0.000000   0.000012  -0.000007
    44  H    0.000001   0.000000  -0.000007   0.000003  -0.000012   0.000003
              31         32         33         34         35         36
     1  C    0.002280  -0.027060  -0.063925  -0.029197   0.020479   0.010601
     2  C   -0.029188  -0.018298   0.013867   0.024229  -0.012585  -0.000679
     3  C   -0.017398  -0.001927  -0.000044   0.000809  -0.001038   0.000038
     4  C   -0.000366   0.000836   0.000473   0.000024   0.001839  -0.000038
     5  C    0.000104  -0.000350  -0.000028   0.000258  -0.002208   0.000050
     6  H    0.002211  -0.000314  -0.007329  -0.000495   0.000383  -0.000221
     7  H    0.006765   0.002235  -0.000602  -0.010558   0.002379   0.000302
     8  H   -0.000006  -0.000019   0.000010   0.000045  -0.000114  -0.000004
     9  H    0.000003  -0.000005  -0.000013  -0.000005  -0.000004   0.000000
    10  O    0.000013   0.003877   0.002480   0.000960   0.003566  -0.000059
    11  O    0.000001   0.000007   0.000009   0.000001  -0.000011  -0.000001
    12  C   -0.008306   0.420513   0.442239  -0.029956  -0.057759  -0.041777
    13  C    0.001095  -0.042055  -0.038448   0.411064   0.415700   0.416317
    14  C    0.415444   0.001178  -0.000867  -0.002052   0.000553   0.000279
    15  O   -0.000027  -0.000010   0.000010  -0.000010   0.000007  -0.000001
    16  Si  -0.000172  -0.000004   0.000002   0.000017  -0.000002   0.000000
    17  C    0.000016   0.000000   0.000000   0.000000   0.000000   0.000000
    18  C   -0.000002   0.000000   0.000000  -0.000001   0.000001   0.000000
    19  C   -0.000006   0.000000   0.000000   0.000000   0.000000   0.000000
    20  H    0.000000   0.000000   0.000000   0.000000   0.000000   0.000000
    21  H    0.000000   0.000000   0.000000   0.000000   0.000000   0.000000
    22  H    0.000001   0.000000   0.000000   0.000000   0.000000   0.000000
    23  H    0.000000   0.000000   0.000000   0.000000   0.000000   0.000000
    24  H    0.000002   0.000000   0.000000   0.000000   0.000000   0.000000
    25  H   -0.000003   0.000000   0.000000   0.000000   0.000000   0.000000
    26  H    0.000000   0.000000   0.000000   0.000000   0.000000   0.000000
    27  H    0.000001   0.000000   0.000000   0.000000   0.000000   0.000000
    28  H    0.000000   0.000000   0.000000   0.000000   0.000000   0.000000
    29  H   -0.022609   0.000435   0.000030   0.000014   0.000018  -0.000002
    30  H   -0.026477  -0.008566   0.000362   0.001841  -0.000061  -0.000038
    31  H    0.509903   0.000098  -0.000101  -0.000071  -0.000019  -0.000008
    32  H    0.000098   0.517973  -0.017151  -0.002747   0.005989  -0.003529
    33  H   -0.000101  -0.017151   0.510987   0.005394  -0.001593  -0.005741
    34  H   -0.000071  -0.002747   0.005394   0.532829  -0.028024  -0.022584
    35  H   -0.000019   0.005989  -0.001593  -0.028024   0.515575  -0.022023
    36  H   -0.000008  -0.003529  -0.005741  -0.022584  -0.022023   0.512961
    37  C    0.002408   0.000119  -0.000074  -0.000046   0.000051  -0.000001
    38  C   -0.001555  -0.000051   0.000005   0.000004  -0.000003   0.000000
    39  C   -0.003489   0.000033   0.000002   0.000000   0.000001   0.000000
    40  H   -0.000075  -0.000001  -0.000001   0.000001   0.000000   0.000000
    41  H   -0.000404  -0.000018  -0.000001  -0.000003  -0.000008   0.000002
    42  H   -0.001612  -0.000002   0.000000   0.000000   0.000000   0.000000
    43  H   -0.000159   0.000000   0.000000   0.000000   0.000000   0.000000
    44  H    0.000029   0.000000   0.000001   0.000000   0.000000   0.000000
              37         38         39         40         41         42
     1  C    0.047562  -0.014653  -0.002212  -0.002529   0.002611   0.000468
     2  C   -0.074539   0.025955   0.002306   0.014896  -0.028362  -0.005135
     3  C    0.204395  -0.020339  -0.002589  -0.064129   0.002466   0.005354
     4  C   -0.068138   0.006666  -0.000421   0.002501  -0.009209   0.000209
     5  C    0.001551   0.000438   0.000078  -0.003928   0.002460  -0.000039
     6  H    0.011943   0.002995   0.001169   0.000779  -0.012924  -0.000127
     7  H    0.008590  -0.000313  -0.000191  -0.000304  -0.000752  -0.000233
     8  H    0.009722  -0.000674  -0.000006  -0.000548   0.000193  -0.000007
     9  H   -0.015173   0.000665   0.000022   0.003224  -0.000600  -0.000013
    10  O   -0.013307   0.001215  -0.000048   0.000056   0.005844   0.000002
    11  O    0.002294  -0.000044   0.000004  -0.000039  -0.000864   0.000000
    12  C   -0.002876   0.000811   0.000147   0.000014   0.001327   0.000018
    13  C    0.000402  -0.000036  -0.000011  -0.000001  -0.000113  -0.000002
    14  C   -0.005317  -0.020772  -0.003532  -0.000637   0.002790   0.000741
    15  O   -0.084664   0.010166   0.003656  -0.003714   0.004686   0.006546
    16  Si  -0.002371  -0.001835   0.000076  -0.001187   0.000935  -0.000945
    17  C   -0.000141  -0.000848  -0.000165  -0.003112  -0.000417  -0.000384
    18  C    0.000298  -0.000017   0.000010  -0.000015   0.000030   0.000152
    19  C    0.000480  -0.000679  -0.000028   0.000269   0.000010  -0.000007
    20  H    0.000044  -0.000006   0.000000  -0.000006  -0.000001  -0.000004
    21  H    0.000462  -0.000021   0.000000  -0.000081   0.000003  -0.000005
    22  H   -0.000128   0.000018   0.000000   0.000002  -0.000002  -0.000006
    23  H   -0.000069   0.000034   0.000002  -0.000003   0.000000   0.000023
    24  H   -0.000014   0.000069   0.000001  -0.000010  -0.000001  -0.000052
    25  H   -0.000512  -0.000083   0.000007   0.000018   0.000003   0.001081
    26  H    0.000319  -0.000052  -0.000001   0.000555   0.000005   0.000012
    27  H    0.004922  -0.001781   0.000282  -0.003745   0.000104   0.000195
    28  H   -0.006652   0.001003  -0.000005   0.000676   0.000029   0.000079
    29  H   -0.003436  -0.000409   0.000357  -0.000079  -0.000152  -0.000697
    30  H   -0.000107   0.000714   0.000359   0.000034  -0.000001   0.000138
    31  H    0.002408  -0.001555  -0.003489  -0.000075  -0.000404  -0.001612
    32  H    0.000119  -0.000051   0.000033  -0.000001  -0.000018  -0.000002
    33  H   -0.000074   0.000005   0.000002  -0.000001  -0.000001   0.000000
    34  H   -0.000046   0.000004   0.000000   0.000001  -0.000003   0.000000
    35  H    0.000051  -0.000003   0.000001   0.000000  -0.000008   0.000000
    36  H   -0.000001   0.000000   0.000000   0.000000   0.000002   0.000000
    37  C    5.447278   0.151357  -0.046417   0.429949   0.414092  -0.048055
    38  C    0.151357   5.283901   0.521469  -0.040471  -0.052353   0.403489
    39  C   -0.046417   0.521469   5.014012  -0.008035   0.006808  -0.015673
    40  H    0.429949  -0.040471  -0.008035   0.505475  -0.014063   0.002201
    41  H    0.414092  -0.052353   0.006808  -0.014063   0.475837   0.002872
    42  H   -0.048055   0.403489  -0.015673   0.002201   0.002872   0.477297
    43  H    0.007057  -0.054106   0.427506  -0.000352   0.000128  -0.006110
    44  H    0.004536  -0.071532   0.437805   0.000808   0.000394   0.004041
              43         44
     1  C    0.000009   0.000104
     2  C   -0.000009  -0.000394
     3  C   -0.000234  -0.000710
     4  C    0.000017   0.000015
     5  C    0.000004  -0.000010
     6  H   -0.000013   0.000099
     7  H   -0.000001  -0.000002
     8  H    0.000000   0.000001
     9  H    0.000000   0.000001
    10  O    0.000000  -0.000006
    11  O    0.000000  -0.000001
    12  C    0.000002  -0.000045
    13  C    0.000000   0.000001
    14  C   -0.000007   0.000320
    15  O   -0.000011   0.000000
    16  Si   0.000017  -0.000003
    17  C   -0.000004  -0.000002
    18  C    0.000000   0.000000
    19  C   -0.000001   0.000000
    20  H    0.000000   0.000000
    21  H    0.000000   0.000000
    22  H    0.000000   0.000000
    23  H    0.000000   0.000000
    24  H    0.000000   0.000000
    25  H   -0.000003   0.000001
    26  H    0.000000   0.000000
    27  H    0.000005  -0.000007
    28  H    0.000000   0.000003
    29  H    0.000012  -0.000012
    30  H   -0.000007   0.000003
    31  H   -0.000159   0.000029
    32  H    0.000000   0.000000
    33  H    0.000000   0.000001
    34  H    0.000000   0.000000
    35  H    0.000000   0.000000
    36  H    0.000000   0.000000
    37  C    0.007057   0.004536
    38  C   -0.054106  -0.071532
    39  C    0.427506   0.437805
    40  H   -0.000352   0.000808
    41  H    0.000128   0.000394
    42  H   -0.006110   0.004041
    43  H    0.500565  -0.022893
    44  H   -0.022893   0.504287
 Mulliken charges:
               1
     1  C   -0.004353
     2  C   -0.203595
     3  C    0.236885
     4  C   -0.457390
     5  C    0.339704
     6  H    0.185056
     7  H    0.190169
     8  H    0.220138
     9  H    0.197728
    10  O   -0.238873
    11  O   -0.370394
    12  C   -0.289946
    13  C   -0.463129
    14  C   -0.493907
    15  O   -0.404427
    16  Si   0.499873
    17  C   -0.583884
    18  C   -0.586749
    19  C   -0.568604
    20  H    0.165122
    21  H    0.167182
    22  H    0.166755
    23  H    0.156185
    24  H    0.159610
    25  H    0.157253
    26  H    0.172236
    27  H    0.170304
    28  H    0.165978
    29  H    0.174813
    30  H    0.167645
    31  H    0.171680
    32  H    0.168816
    33  H    0.160044
    34  H    0.148256
    35  H    0.158913
    36  H    0.156156
    37  C   -0.377796
    38  C   -0.128342
    39  C   -0.333286
    40  H    0.185607
    41  H    0.196621
    42  H    0.174187
    43  H    0.148592
    44  H    0.143170
 Sum of Mulliken charges =   0.00000
 Mulliken charges with hydrogens summed into heavy atoms:
               1
     1  C    0.180703
     2  C   -0.013426
     3  C    0.236885
     4  C   -0.039525
     5  C    0.339704
    10  O   -0.238873
    11  O   -0.370394
    12  C    0.038913
    13  C    0.000197
    14  C    0.020231
    15  O   -0.404427
    16  Si   0.499873
    17  C   -0.075366
    18  C   -0.087690
    19  C   -0.095556
    37  C    0.004432
    38  C    0.045845
    39  C   -0.041525
 Electronic spatial extent (au):  <R**2>=           5507.3888
 Charge=              0.0000 electrons
 Dipole moment (field-independent basis, Debye):
    X=             -2.3438    Y=              2.8447    Z=              3.3585  Tot=              4.9865
 Quadrupole moment (field-independent basis, Debye-Ang):
   XX=           -117.2751   YY=           -125.6110   ZZ=           -128.2176
   XY=             11.2950   XZ=             10.3484   YZ=             -9.6199
 Traceless Quadrupole moment (field-independent basis, Debye-Ang):
   XX=              6.4261   YY=             -1.9097   ZZ=             -4.5164
   XY=             11.2950   XZ=             10.3484   YZ=             -9.6199
 Octapole moment (field-independent basis, Debye-Ang**2):
  XXX=             -8.6511  YYY=             22.7243  ZZZ=             21.2916  XYY=            -11.9223
  XXY=             10.8998  XXZ=             26.2449  XZZ=             -6.5106  YZZ=             17.0075
  YYZ=             20.4153  XYZ=            -24.0155
 Hexadecapole moment (field-independent basis, Debye-Ang**3):
 XXXX=          -4177.1972 YYYY=          -1880.6783 ZZZZ=          -1391.7114 XXXY=             73.5092
 XXXZ=             59.2459 YYYX=             13.6211 YYYZ=            -36.6544 ZZZX=             25.5904
 ZZZY=            -35.5494 XXYY=          -1071.3166 XXZZ=           -991.7187 YYZZ=           -606.4766
 XXYZ=            -40.0858 YYXZ=             23.0030 ZZXY=             62.9402
 N-N= 1.625085555773D+03 E-N=-5.743195525833D+03  KE= 1.059310022653D+03
 1\1\GINC-CPU-E-68\SP\RM062X\def2TZVP\C14H26O3Si1\KE291\26-Jun-2019\0\\
 # m062x/def2tzvp int=ultrafine scrf=(solvent=chloroform)\\IP1_2ginp004
 \\0,1\C,0,2.473658,0.310613,0.101338\C,0,1.128531,0.296601,0.838034\C,
 0,-0.03999,0.118997,-0.172302\C,0,0.192908,-1.252929,-0.829196\C,0,1.5
 81546,-1.46117,-1.405866\H,0,2.544608,1.236224,-0.482812\H,0,1.088916,
 -0.60347,1.464845\H,0,0.052906,-2.032459,-0.071151\H,0,-0.519018,-1.45
 3695,-1.633938\O,0,2.612523,-0.772591,-0.876515\O,0,1.805127,-2.262715
 ,-2.289238\C,0,3.720885,0.218467,0.988053\C,0,3.789213,-1.010903,1.898
 908\C,0,1.000989,1.507308,1.774177\O,0,-1.244405,0.121486,0.588412\Si,
 0,-2.793446,-0.51342,0.394002\C,0,-3.524341,-0.131961,-1.304307\C,0,-2
 .809833,-2.37857,0.682991\C,0,-3.790425,0.345949,1.737009\H,0,-3.84444
 4,-2.739916,0.717417\H,0,-2.296427,-2.933193,-0.108682\H,0,-2.33797,-2
 .636384,1.637234\H,0,-4.826989,-0.009117,1.739724\H,0,-3.367943,0.1513
 99,2.728279\H,0,-3.808219,1.430428,1.587063\H,0,-4.562834,-0.481993,-1
 .33998\H,0,-3.530765,0.943023,-1.512381\H,0,-2.986697,-0.631286,-2.117
 219\H,0,-0.010547,1.55107,2.181737\H,0,1.697951,1.419274,2.612295\H,0,
 1.202248,2.449369,1.258895\H,0,3.784384,1.136846,1.581433\H,0,4.58753,
 0.226365,0.31776\H,0,3.008293,-0.999797,2.665739\H,0,3.684974,-1.93375
 3,1.320518\H,0,4.753438,-1.047271,2.414454\C,0,-0.130455,1.19858,-1.28
 7139\C,0,-0.439619,2.604162,-0.84894\C,0,0.171109,3.695442,-1.314083\H
 ,0,-0.932218,0.865346,-1.959806\H,0,0.784455,1.192169,-1.890755\H,0,-1
 .250321,2.709847,-0.130453\H,0,-0.121305,4.69129,-0.994188\H,0,0.98322
 3,3.634612,-2.03538\\Version=ES64L-G09RevD.01\State=1-A\HF=-1064.33976
 15\RMSD=1.459e-09\Dipole=-0.9221326,1.1191909,1.3213253\Quadrupole=4.7
 776707,-1.4198526,-3.3578181,8.3975199,7.6937917,-7.1521737\PG=C01 [X(
 C14H26O3Si1)]\\@


 ALL OUR THINKING ABOUT NATURE MUST NECESSARILY MOVE IN CIRCLES OR SPIRALS;
 FOR WE CAN ONLY UNDERSTAND NATURE IF WE THINK ABOUT HER, AND WE CAN ONLY
 THINK BECAUSE OUR BRAIN IS BUILT IN ACCORDANCE WITH NATURE'S LAWS.

                                             -- TIMOTHY FERRIS, "GALAXIES"
 Job cpu time:       0 days  2 hours 18 minutes 39.2 seconds.
 File lengths (MBytes):  RWF=    408 Int=      0 D2E=      0 Chk=     21 Scr=      1
 Normal termination of Gaussian 09 at Wed Jun 26 13:53:50 2019.
