 Entering Gaussian System, Link 0=/usr/local/Cluster-Apps/gaussian/g09/g09
 Initial command:
 /usr/local/Cluster-Apps/gaussian/g09/l1.exe "/home/ke291/rds/hpc-work/26Jun1304IP1NMR/Gau-429801.inp" -scrdir="/home/ke291/rds/hpc-work/26Jun1304IP1NMR/"
 Entering Link 1 = /usr/local/Cluster-Apps/gaussian/g09/l1.exe PID=    429807.
  
 Copyright (c) 1988,1990,1992,1993,1995,1998,2003,2009,2013,
            Gaussian, Inc.  All Rights Reserved.
  
 This is part of the Gaussian(R) 09 program.  It is based on
 the Gaussian(R) 03 system (copyright 2003, Gaussian, Inc.),
 the Gaussian(R) 98 system (copyright 1998, Gaussian, Inc.),
 the Gaussian(R) 94 system (copyright 1995, Gaussian, Inc.),
 the Gaussian 92(TM) system (copyright 1992, Gaussian, Inc.),
 the Gaussian 90(TM) system (copyright 1990, Gaussian, Inc.),
 the Gaussian 88(TM) system (copyright 1988, Gaussian, Inc.),
 the Gaussian 86(TM) system (copyright 1986, Carnegie Mellon
 University), and the Gaussian 82(TM) system (copyright 1983,
 Carnegie Mellon University). Gaussian is a federally registered
 trademark of Gaussian, Inc.
  
 This software contains proprietary and confidential information,
 including trade secrets, belonging to Gaussian, Inc.
  
 This software is provided under written license and may be
 used, copied, transmitted, or stored only in accord with that
 written license.
  
 The following legend is applicable only to US Government
 contracts under FAR:
  
                    RESTRICTED RIGHTS LEGEND
  
 Use, reproduction and disclosure by the US Government is
 subject to restrictions as set forth in subparagraphs (a)
 and (c) of the Commercial Computer Software - Restricted
 Rights clause in FAR 52.227-19.
  
 Gaussian, Inc.
 340 Quinnipiac St., Bldg. 40, Wallingford CT 06492
  
  
 ---------------------------------------------------------------
 Warning -- This program may not be used in any manner that
 competes with the business of Gaussian, Inc. or will provide
 assistance to any competitor of Gaussian, Inc.  The licensee
 of this program is prohibited from giving any competitor of
 Gaussian, Inc. access to this program.  By using this program,
 the user acknowledges that Gaussian, Inc. is engaged in the
 business of creating and licensing software in the field of
 computational chemistry and represents and warrants to the
 licensee that it is not a competitor of Gaussian, Inc. and that
 it will not use this program in any manner prohibited above.
 ---------------------------------------------------------------
  

 Cite this work as:
 Gaussian 09, Revision D.01,
 M. J. Frisch, G. W. Trucks, H. B. Schlegel, G. E. Scuseria, 
 M. A. Robb, J. R. Cheeseman, G. Scalmani, V. Barone, B. Mennucci, 
 G. A. Petersson, H. Nakatsuji, M. Caricato, X. Li, H. P. Hratchian, 
 A. F. Izmaylov, J. Bloino, G. Zheng, J. L. Sonnenberg, M. Hada, 
 M. Ehara, K. Toyota, R. Fukuda, J. Hasegawa, M. Ishida, T. Nakajima, 
 Y. Honda, O. Kitao, H. Nakai, T. Vreven, J. A. Montgomery, Jr., 
 J. E. Peralta, F. Ogliaro, M. Bearpark, J. J. Heyd, E. Brothers, 
 K. N. Kudin, V. N. Staroverov, T. Keith, R. Kobayashi, J. Normand, 
 K. Raghavachari, A. Rendell, J. C. Burant, S. S. Iyengar, J. Tomasi, 
 M. Cossi, N. Rega, J. M. Millam, M. Klene, J. E. Knox, J. B. Cross, 
 V. Bakken, C. Adamo, J. Jaramillo, R. Gomperts, R. E. Stratmann, 
 O. Yazyev, A. J. Austin, R. Cammi, C. Pomelli, J. W. Ochterski, 
 R. L. Martin, K. Morokuma, V. G. Zakrzewski, G. A. Voth, 
 P. Salvador, J. J. Dannenberg, S. Dapprich, A. D. Daniels, 
 O. Farkas, J. B. Foresman, J. V. Ortiz, J. Cioslowski, 
 and D. J. Fox, Gaussian, Inc., Wallingford CT, 2013.
 
 ******************************************
 Gaussian 09:  ES64L-G09RevD.01 24-Apr-2013
                26-Jun-2019 
 ******************************************
 %nprocshared=4
 Will use up to    4 processors via shared memory.
 %mem=6000MB
 %chk=IP1_3ginp006.chk
 --------------------------------------------------------
 # m062x/def2tzvp int=ultrafine scrf=(solvent=chloroform)
 --------------------------------------------------------
 1/38=1/1;
 2/12=2,17=6,18=5,40=1/2;
 3/5=44,7=101,11=2,16=1,25=1,30=1,70=2201,72=7,74=-55,75=-5/1,2,3;
 4//1;
 5/5=2,38=5,53=7/2;
 6/7=2,8=2,9=2,10=2,28=1/1;
 99/5=1,9=1/99;
 ------------
 IP1_3ginp006
 ------------
 Symbolic Z-matrix:
 Charge =  0 Multiplicity = 1
 C                     2.17225  -0.88304   0.70295 
 C                     1.083    -0.01274   1.35486 
 C                     0.00858   0.46422   0.33595 
 C                     0.65839   0.63817  -1.07039 
 C                     2.17145   0.72081  -1.12902 
 H                     2.95231  -1.05266   1.45351 
 H                     1.62583   0.88613   1.67081 
 H                     0.38737  -0.23844  -1.66714 
 H                     0.27422   1.5155   -1.59246 
 O                     2.87266  -0.08739  -0.30389 
 O                     2.77163   1.42429  -1.91472 
 C                     1.76362  -2.24636   0.13703 
 C                     2.95085  -3.04258  -0.41449 
 C                     0.49874  -0.66511   2.61263 
 O                    -0.99419  -0.54994   0.26197 
 Si                   -2.56254  -0.63599  -0.3486 
 C                    -2.88777  -2.4845   -0.47645 
 C                    -3.80408   0.14056   0.84223 
 C                    -2.71938   0.16796  -2.05061 
 H                    -4.82603  -0.05741   0.49794 
 H                    -3.70524  -0.28618   1.84612 
 H                    -3.6885    1.2255    0.92545 
 H                    -2.0307   -0.2772   -2.77622 
 H                    -3.7374    0.01901  -2.42963 
 H                    -2.5352    1.24707  -2.03072 
 H                    -2.19417  -2.96376  -1.17512 
 H                    -2.774    -2.97335   0.49675 
 H                    -3.90687  -2.67714  -0.82991 
 H                    -0.16905   0.02366   3.13775 
 H                    -0.07301  -1.56264   2.37248 
 H                     1.30197  -0.936     3.30585 
 H                     0.9948   -2.1276   -0.63144 
 H                     1.29133  -2.80896   0.9502 
 H                     2.62279  -4.01739  -0.78765 
 H                     3.4382   -2.51145  -1.2368 
 H                     3.70449  -3.21824   0.36149 
 C                    -0.64038   1.80378   0.79518 
 C                     0.28572   2.98622   0.89382 
 C                     0.2556    4.0412    0.0771 
 H                    -1.11912   1.62403   1.76532 
 H                    -1.438     2.04297   0.08343 
 H                     1.01714   2.97437   1.70095 
 H                     0.94538   4.87157   0.19376 
 H                    -0.46326   4.11537  -0.73588 
 
                          Input orientation:                          
 ---------------------------------------------------------------------
 Center     Atomic      Atomic             Coordinates (Angstroms)
 Number     Number       Type             X           Y           Z
 ---------------------------------------------------------------------
      1          6           0        2.172252   -0.883042    0.702953
      2          6           0        1.083003   -0.012742    1.354855
      3          6           0        0.008582    0.464220    0.335951
      4          6           0        0.658392    0.638171   -1.070395
      5          6           0        2.171446    0.720810   -1.129017
      6          1           0        2.952310   -1.052663    1.453513
      7          1           0        1.625827    0.886130    1.670811
      8          1           0        0.387365   -0.238439   -1.667141
      9          1           0        0.274215    1.515498   -1.592464
     10          8           0        2.872661   -0.087388   -0.303889
     11          8           0        2.771631    1.424293   -1.914723
     12          6           0        1.763620   -2.246363    0.137029
     13          6           0        2.950852   -3.042583   -0.414491
     14          6           0        0.498739   -0.665105    2.612631
     15          8           0       -0.994191   -0.549944    0.261967
     16         14           0       -2.562542   -0.635990   -0.348603
     17          6           0       -2.887769   -2.484502   -0.476448
     18          6           0       -3.804084    0.140558    0.842232
     19          6           0       -2.719381    0.167956   -2.050606
     20          1           0       -4.826030   -0.057407    0.497937
     21          1           0       -3.705244   -0.286180    1.846116
     22          1           0       -3.688495    1.225497    0.925454
     23          1           0       -2.030700   -0.277200   -2.776215
     24          1           0       -3.737396    0.019012   -2.429633
     25          1           0       -2.535202    1.247067   -2.030724
     26          1           0       -2.194172   -2.963764   -1.175121
     27          1           0       -2.774000   -2.973349    0.496747
     28          1           0       -3.906869   -2.677140   -0.829912
     29          1           0       -0.169051    0.023662    3.137750
     30          1           0       -0.073013   -1.562643    2.372479
     31          1           0        1.301973   -0.936000    3.305845
     32          1           0        0.994795   -2.127605   -0.631437
     33          1           0        1.291330   -2.808962    0.950197
     34          1           0        2.622791   -4.017391   -0.787647
     35          1           0        3.438205   -2.511447   -1.236798
     36          1           0        3.704489   -3.218236    0.361491
     37          6           0       -0.640382    1.803776    0.795178
     38          6           0        0.285716    2.986219    0.893824
     39          6           0        0.255599    4.041197    0.077099
     40          1           0       -1.119115    1.624028    1.765317
     41          1           0       -1.437999    2.042966    0.083426
     42          1           0        1.017141    2.974370    1.700952
     43          1           0        0.945383    4.871567    0.193755
     44          1           0       -0.463264    4.115372   -0.735876
 ---------------------------------------------------------------------
                    Distance matrix (angstroms):
                    1          2          3          4          5
     1  C    0.000000
     2  C    1.539111   0.000000
     3  C    2.575126   1.555647   0.000000
     4  C    2.783994   2.546727   1.558949   0.000000
     5  C    2.434842   2.809346   2.624871   1.516443   0.000000
     6  H    1.095720   2.141373   3.495056   3.806717   3.228686
     7  H    2.089330   1.096566   2.139005   2.917469   2.857283
     8  H    3.036228   3.109230   2.156289   1.094535   2.095872
     9  H    3.824196   3.417067   2.212359   1.090803   2.108506
    10  O    1.461974   2.441286   2.986070   2.452948   1.351193
    11  O    3.540519   3.950528   3.690761   2.407625   1.213443
    12  C    1.531631   2.633515   3.235273   3.316615   3.251663
    13  C    2.553139   3.974844   4.638726   4.385605   3.909111
    14  C    2.548531   1.532626   2.588223   3.910076   4.326504
    15  O    3.214309   2.407847   1.428130   2.432660   3.683872
    16  Si   4.856447   4.071880   2.879193   3.538204   4.986040
    17  C    5.436862   5.022977   4.212339   4.762260   6.024577
    18  C    6.064961   4.916290   3.859728   4.880518   6.318977
    19  C    5.710933   5.107636   3.636648   3.548417   5.007511
    20  H    7.049798   5.971011   4.865368   5.746510   7.226152
    21  H    6.017310   4.821143   4.078750   5.329332   6.663402
    22  H    6.232479   4.948213   3.820397   4.819107   6.230126
    23  H    5.489668   5.179848   3.793936   3.313449   4.622479
    24  H    6.749129   6.128589   4.677501   4.642611   6.090857
    25  H    5.845552   5.112795   3.561578   3.389989   4.821054
    26  H    5.188663   5.084209   4.345864   4.595870   5.712865
    27  H    5.373762   4.937410   4.425551   5.223057   6.383366
    28  H    6.521056   6.063913   5.153459   5.647188   6.970039
    29  H    3.497435   2.178917   2.841782   4.332524   4.916222
    30  H    2.879304   2.184977   2.874418   4.151134   4.744705
    31  H    2.745039   2.169497   3.528987   4.695071   4.813419
    32  H    2.171621   2.902720   2.937007   2.820526   3.121788
    33  H    2.132210   2.833019   3.568818   4.045507   4.190110
    34  H    3.499860   4.795673   5.308615   5.060935   4.771875
    35  H    2.831426   4.301996   4.805252   4.204182   3.473295
    36  H    2.813801   4.258421   5.217362   5.118679   4.481955
    37  C    3.890811   2.565742   1.557708   2.554567   3.575153
    38  C    4.308901   3.137194   2.597788   3.083889   3.574904
    39  C    5.321032   4.330321   3.594828   3.613803   4.018726
    40  H    4.271664   2.774314   2.158690   3.488941   4.474457
    41  H    4.688203   3.492552   2.156109   2.774817   4.030658
    42  H    4.148483   3.007816   3.030061   3.642374   3.797325
    43  H    5.905930   5.022307   4.508051   4.427424   4.525676
    44  H    5.830979   4.878875   3.834366   3.668916   4.315010
                    6          7          8          9         10
     6  H    0.000000
     7  H    2.359172   0.000000
     8  H    4.120726   3.733680   0.000000
     9  H    4.800585   3.587746   1.759169   0.000000
    10  O    2.006629   2.530172   2.838656   3.313848   0.000000
    11  O    4.184850   3.802439   2.917310   2.519773   2.211373
    12  C    2.137998   3.490557   3.029994   4.400122   2.466892
    13  C    2.729326   4.641009   4.000478   5.415543   2.958298
    14  C    2.741125   2.136278   4.302429   4.742179   3.804649
    15  O    4.152996   3.303278   2.393155   3.051855   3.935314
    16  Si   5.816772   4.892578   3.255540   3.771377   5.463002
    17  C    6.315175   6.028634   4.145968   5.219544   6.241673
    18  C    6.888128   5.543136   4.899881   4.944768   6.778236
    19  C    6.777672   5.765896   3.156592   3.314722   5.864056
    20  H    7.899762   6.625131   5.647993   5.732042   7.740392
    21  H    6.713022   5.461260   5.393951   5.559314   6.923213
    22  H    7.040536   5.377057   5.047504   4.703943   6.803214
    23  H    6.581970   5.873633   2.660561   3.150820   5.494668
    24  H    7.808936   6.806592   4.202538   4.362722   6.944275
    25  H    6.895031   5.580842   3.298533   2.856038   5.831613
    26  H    6.086732   6.124819   3.786002   5.131364   5.891127
    27  H    6.115150   5.969295   4.707056   5.814307   6.391758
    28  H    7.409541   7.039974   5.008858   5.970022   7.276369
    29  H    3.706484   2.473327   4.844097   4.979657   4.594477
    30  H    3.202680   3.061843   4.275979   5.031530   4.244563
    31  H    2.483618   2.469489   5.104281   5.573110   4.027081
    32  H    3.055222   3.844626   2.238437   3.836015   2.792159
    33  H    2.469163   3.779534   3.778253   5.118652   3.388260
    34  H    3.731085   5.575166   4.477847   6.064355   3.967541
    35  H    3.098696   4.825187   3.828758   5.133577   2.658236
    36  H    2.539290   4.783406   4.898760   6.163843   3.307095
    37  C    4.636818   2.597020   3.360048   2.573019   4.138348
    38  C    4.872016   2.609594   4.119137   2.888733   4.192119
    39  C    5.925722   3.791028   4.623313   3.027696   4.902997
    40  H    4.882458   2.843964   4.185694   3.637010   4.810908
    41  H    5.543904   3.639381   3.406060   2.453264   4.823921
    42  H    4.474718   2.175351   4.697107   3.677885   4.103255
    43  H    6.380537   4.304464   5.466853   3.860601   5.343527
    44  H    6.570248   4.537009   4.532824   2.834954   5.383140
                   11         12         13         14         15
    11  O    0.000000
    12  C    4.324290   0.000000
    13  C    4.715485   1.532208   0.000000
    14  C    5.479832   3.198266   4.563850   0.000000
    15  O    4.776715   3.240211   4.715316   2.787064   0.000000
    16  Si   5.928819   4.641640   6.016107   4.259248   1.685208
    17  C    7.026814   4.697710   5.865560   4.931638   2.805960
    18  C    7.244916   6.098691   7.572377   4.722043   2.951101
    19  C    5.634542   5.541839   6.718331   5.726785   2.973156
    20  H    8.108071   6.953076   8.379958   5.761457   3.870564
    21  H    7.682417   6.055722   7.550610   4.290059   3.151017
    22  H    7.059699   6.511604   8.005803   4.894269   3.294189
    23  H    5.167168   5.173148   6.167734   5.965584   3.221691
    24  H    6.678876   6.479263   7.626718   6.620973   3.885048
    25  H    5.311058   5.948368   7.149132   5.867022   3.295511
    26  H    6.667927   4.230901   5.201542   5.184850   3.054784
    27  H    7.477196   4.609545   5.797334   4.529434   3.015913
    28  H    7.912075   5.768448   6.880004   5.942118   3.768402
    29  H    6.011394   4.229959   5.635075   1.093661   3.046311
    30  H    5.949276   2.972866   4.370490   1.090939   2.515629
    31  H    5.914829   3.459995   4.582291   1.095041   3.832310
    32  H    4.173721   1.093497   2.170348   3.592903   2.691329
    33  H    5.321607   1.095818   2.161242   2.826307   3.286401
    34  H    5.559171   2.174797   1.094130   5.226022   5.119320
    35  H    4.048945   2.182179   1.093530   5.183391   5.073453
    36  H    5.253994   2.182176   1.095888   4.675783   5.404376
    37  C    4.373717   4.755629   6.152029   3.270490   2.439158
    38  C    4.062920   5.489704   6.720200   4.041268   3.813378
    39  C    4.140768   6.466153   7.595129   5.351385   4.761799
    40  H    5.359150   5.093271   6.564560   2.928399   2.646096
    41  H    4.700674   5.352717   6.735929   4.181086   2.636669
    42  H    4.307445   5.500831   6.664688   3.787569   4.305453
    43  H    4.434474   7.165030   8.186919   6.058481   5.758418
    44  H    4.369912   6.796517   7.936989   5.915311   4.800286
                   16         17         18         19         20
    16  Si   0.000000
    17  C    1.881253   0.000000
    18  C    1.887470   3.077254   0.000000
    19  C    1.888847   3.088990   3.089635   0.000000
    20  H    2.484908   3.255314   1.096404   3.314186   0.000000
    21  H    2.498985   3.300786   1.095289   4.045072   1.768074
    22  H    2.521136   4.046058   1.094248   3.303711   1.767088
    23  H    2.510953   3.300860   4.051243   1.094967   4.310713
    24  H    2.477901   3.287002   3.274801   1.096449   3.124361
    25  H    2.525110   4.057670   3.329910   1.094896   3.652899
    26  H    2.497471   1.094949   4.037121   3.293932   4.262946
    27  H    2.494510   1.094999   3.298007   4.044723   3.565606
    28  H    2.491017   1.095724   3.278117   3.315840   3.077506
    29  H    4.280023   5.171532   4.300760   5.783082   5.353750
    30  H    3.802726   4.109630   4.377607   5.437087   5.326426
    31  H    5.327239   5.852994   5.770631   6.788341   6.797698
    32  H    3.867759   3.902012   5.508675   4.591159   6.280383
    33  H    4.610967   4.427805   5.888512   5.826891   6.722923
    34  H    6.205990   5.728251   7.826223   6.902970   8.533413
    35  H    6.349425   6.371562   7.987881   6.764418   8.793702
    36  H    6.815270   6.685684   8.239616   7.651837   9.098308
    37  C    3.309893   5.005708   3.574566   3.885438   4.590425
    38  C    4.772483   6.471278   4.982661   5.063880   5.962410
    39  C    5.477154   7.264429   5.681676   5.327254   6.542065
    40  H    3.414648   5.003365   3.203409   4.386601   4.263179
    41  H    2.937354   4.786780   3.129425   3.116359   4.007760
    42  H    5.481743   7.056109   5.657924   5.992641   6.691903
    43  H    6.552318   8.321897   6.735013   6.371154   7.595822
    44  H    5.208876   7.035898   5.426845   4.732935   6.161827
                   21         22         23         24         25
    21  H    0.000000
    22  H    1.770047   0.000000
    23  H    4.916312   4.325360   0.000000
    24  H    4.286748   3.565755   1.766542   0.000000
    25  H    4.330096   3.173254   1.770217   1.764233   0.000000
    26  H    4.310530   4.918874   3.131749   3.585010   4.310389
    27  H    3.147839   4.318611   4.305113   4.294887   4.925144
    28  H    3.594227   4.284807   3.614944   3.139596   4.326987
    29  H    3.777431   4.327256   6.207353   6.612780   5.814509
    30  H    3.885810   4.789501   5.656320   6.244166   5.774517
    31  H    5.255977   5.936590   6.966504   7.694348   6.925941
    32  H    5.623120   5.966608   4.144598   5.498646   5.080088
    33  H    5.668585   6.409066   5.597486   6.686462   6.322943
    34  H    7.804016   8.381821   6.292727   7.709776   7.474266
    35  H    8.092282   8.332463   6.104964   7.701644   7.101995
    36  H    8.105875   8.644133   7.168492   8.582063   8.037124
    37  C    3.855615   3.105217   4.360997   4.814175   3.447606
    38  C    5.248163   4.346895   5.429998   6.002925   4.419865
    39  C    6.127307   4.919731   5.658367   6.197232   4.476455
    40  H    3.216129   2.732382   5.007112   5.198950   4.069070
    41  H    3.697620   2.538109   3.729881   3.962207   2.511362
    42  H    5.740486   5.079662   6.317204   6.957118   5.433978
    43  H    7.138696   5.941552   6.647375   7.235874   5.495433
    44  H    6.045724   4.638266   5.090631   5.510800   3.767855
                   26         27         28         29         30
    26  H    0.000000
    27  H    1.769586   0.000000
    28  H    1.770495   1.769507   0.000000
    29  H    5.623761   4.768934   6.083417   0.000000
    30  H    4.364392   3.578239   5.118189   1.763867   0.000000
    31  H    6.034394   5.353072   6.875179   1.764403   1.776074
    32  H    3.341297   4.023916   4.936364   4.493246   3.237732
    33  H    4.085299   4.093843   5.496129   3.865470   2.331872
    34  H    4.946049   5.644913   6.665922   6.287546   4.824888
    35  H    5.650846   6.466067   7.358201   6.210937   5.124038
    36  H    6.100831   6.484526   7.723017   5.763838   4.588527
    37  C    5.387558   5.240449   5.778362   2.979698   3.760660
    38  C    6.769983   6.710885   7.254148   3.744164   4.796588
    39  C    7.525883   7.652348   7.955178   5.068382   6.064633
    40  H    5.554256   5.048147   5.745157   2.312437   3.408496
    41  H    5.217574   5.207605   5.404526   3.875140   4.483678
    42  H    7.337967   7.155293   7.911429   3.489716   4.714220
    43  H    8.551201   8.687250   9.031900   5.780247   6.868990
    44  H    7.300900   7.557038   7.616133   5.642130   6.484907
                   31         32         33         34         35
    31  H    0.000000
    32  H    4.125102   0.000000
    33  H    3.009514   1.747497   0.000000
    34  H    5.291144   2.499213   2.500638   0.000000
    35  H    5.261286   2.546380   3.079048   1.770453   0.000000
    36  H    4.432821   3.085097   2.517423   1.768965   1.767763
    37  C    4.193157   4.490522   5.003288   6.858543   6.275743
    38  C    4.715339   5.383346   5.882054   7.572306   6.685961
    39  C    6.024300   6.253203   6.982816   8.443472   7.402192
    40  H    3.845600   4.928265   5.111366   7.234991   6.847190
    41  H    5.173555   4.880899   5.633980   7.346884   6.801694
    42  H    4.236485   5.609874   5.838300   7.593152   6.677283
    43  H    6.598492   7.047822   7.725439   9.098924   7.922723
    44  H    6.705813   6.411833   7.339472   8.698750   7.706303
                   36         37         38         39         40
    36  H    0.000000
    37  C    6.654817   0.000000
    38  C    7.103988   1.505178   0.000000
    39  C    8.042082   2.514850   1.334513   0.000000
    40  H    6.977493   1.096661   2.142105   3.253095   0.000000
    41  H    7.362252   1.095443   2.125480   2.619397   1.762372
    42  H    6.882177   2.222183   1.089302   2.086855   2.528074
    43  H    8.549018   3.505382   2.116552   1.085783   4.156738
    44  H    8.506244   2.778304   2.119405   1.087747   3.590669
                   41         42         43         44
    41  H    0.000000
    42  H    3.084091   0.000000
    43  H    3.700495   2.424077   0.000000
    44  H    2.432330   3.071093   1.849414   0.000000
 Stoichiometry    C14H26O3Si
 Framework group  C1[X(C14H26O3Si)]
 Deg. of freedom   126
 Full point group                 C1      NOp   1
 Largest Abelian subgroup         C1      NOp   1
 Largest concise Abelian subgroup C1      NOp   1
                         Standard orientation:                         
 ---------------------------------------------------------------------
 Center     Atomic      Atomic             Coordinates (Angstroms)
 Number     Number       Type             X           Y           Z
 ---------------------------------------------------------------------
      1          6           0        2.172252   -0.883042    0.702953
      2          6           0        1.083003   -0.012742    1.354855
      3          6           0        0.008582    0.464220    0.335951
      4          6           0        0.658392    0.638171   -1.070395
      5          6           0        2.171446    0.720810   -1.129017
      6          1           0        2.952310   -1.052663    1.453513
      7          1           0        1.625827    0.886130    1.670811
      8          1           0        0.387365   -0.238439   -1.667141
      9          1           0        0.274215    1.515498   -1.592464
     10          8           0        2.872661   -0.087388   -0.303889
     11          8           0        2.771631    1.424293   -1.914723
     12          6           0        1.763620   -2.246363    0.137029
     13          6           0        2.950852   -3.042583   -0.414491
     14          6           0        0.498739   -0.665105    2.612631
     15          8           0       -0.994191   -0.549944    0.261967
     16         14           0       -2.562542   -0.635990   -0.348603
     17          6           0       -2.887769   -2.484502   -0.476448
     18          6           0       -3.804084    0.140558    0.842232
     19          6           0       -2.719381    0.167956   -2.050606
     20          1           0       -4.826030   -0.057407    0.497937
     21          1           0       -3.705244   -0.286180    1.846116
     22          1           0       -3.688495    1.225497    0.925454
     23          1           0       -2.030700   -0.277200   -2.776215
     24          1           0       -3.737396    0.019012   -2.429633
     25          1           0       -2.535202    1.247067   -2.030724
     26          1           0       -2.194172   -2.963764   -1.175121
     27          1           0       -2.774000   -2.973349    0.496747
     28          1           0       -3.906869   -2.677140   -0.829912
     29          1           0       -0.169051    0.023662    3.137750
     30          1           0       -0.073013   -1.562643    2.372479
     31          1           0        1.301973   -0.936000    3.305845
     32          1           0        0.994795   -2.127605   -0.631437
     33          1           0        1.291330   -2.808962    0.950197
     34          1           0        2.622791   -4.017391   -0.787647
     35          1           0        3.438205   -2.511447   -1.236798
     36          1           0        3.704489   -3.218236    0.361491
     37          6           0       -0.640382    1.803776    0.795178
     38          6           0        0.285716    2.986219    0.893824
     39          6           0        0.255599    4.041197    0.077099
     40          1           0       -1.119115    1.624028    1.765317
     41          1           0       -1.437999    2.042966    0.083426
     42          1           0        1.017141    2.974370    1.700952
     43          1           0        0.945383    4.871567    0.193755
     44          1           0       -0.463264    4.115372   -0.735876
 ---------------------------------------------------------------------
 Rotational constants (GHZ):      0.4355526      0.3125499      0.2450865
 Standard basis: def2TZVP (5D, 7F)
 There are   810 symmetry adapted cartesian basis functions of A   symmetry.
 There are   720 symmetry adapted basis functions of A   symmetry.
   720 basis functions,  1144 primitive gaussians,   810 cartesian basis functions
    74 alpha electrons       74 beta electrons
       nuclear repulsion energy      1638.9325807002 Hartrees.
 NAtoms=   44 NActive=   44 NUniq=   44 SFac= 1.00D+00 NAtFMM=   60 NAOKFM=F Big=F
 Integral buffers will be    131072 words long.
 Raffenetti 2 integral format.
 Two-electron integral symmetry is turned on.
 ------------------------------------------------------------------------------
 Polarizable Continuum Model (PCM)
 =================================
 Model                : PCM (using non-symmetric T matrix).
 Atomic radii         : UFF (Universal Force Field).
 Polarization charges : Total charges.
 Charge compensation  : None.
 Solution method      : On-the-fly selection.
 Cavity type          : Scaled VdW (van der Waals Surface) (Alpha=1.100).
 Cavity algorithm     : GePol (No added spheres)
                        Default sphere list used, NSphG=   44.
                        Lebedev-Laikov grids with approx.  5.0 points / Ang**2.
                        Smoothing algorithm: Karplus/York (Gamma=1.0000).
                        Polarization charges: spherical gaussians, with
                                              point-specific exponents (IZeta= 3).
                        Self-potential: point-specific (ISelfS= 7).
                        Self-field    : sphere-specific E.n sum rule (ISelfD= 2).
 Solvent              : Chloroform, Eps=   4.711300 Eps(inf)=   2.090627
 ------------------------------------------------------------------------------
 One-electron integrals computed using PRISM.
   1 Symmetry operations used in ECPInt.
 ECPInt:  NShTT=   46360 NPrTT=  137514 LenC2=   42469 LenP2D=   91248.
 LDataN:  DoStor=T MaxTD1= 6 Len=  172
 NBasis=   720 RedAO= T EigKep=  3.21D-05  NBF=   720
 NBsUse=   720 1.00D-06 EigRej= -1.00D+00 NBFU=   720
 ExpMin= 7.01D-02 ExpMax= 4.48D+04 ExpMxC= 1.53D+03 IAcc=3 IRadAn=         5 AccDes= 0.00D+00
 Harris functional with IExCor= 1009 and IRadAn=       5 diagonalized for initial guess.
 HarFok:  IExCor= 1009 AccDes= 0.00D+00 IRadAn=         5 IDoV= 1 UseB2=F ITyADJ=14
 ICtDFT=  3500011 ScaDFX=  1.000000  1.000000  1.000000  1.000000
 FoFCou: FMM=F IPFlag=           0 FMFlag=      100000 FMFlg1=           0
         NFxFlg=           0 DoJE=T BraDBF=F KetDBF=T FulRan=T
         wScrn=  0.000000 ICntrl=     500 IOpCl=  0 I1Cent=   200000004 NGrid=           0
         NMat0=    1 NMatS0=      1 NMatT0=    0 NMatD0=    1 NMtDS0=    0 NMtDT0=    0
 Petite list used in FoFCou.
 Requested convergence on RMS density matrix=1.00D-08 within 128 cycles.
 Requested convergence on MAX density matrix=1.00D-06.
 Requested convergence on             energy=1.00D-06.
 No special actions if energy rises.
 Inv3:  Mode=1 IEnd=    25526667.
 Iteration    1 A*A^-1 deviation from unit magnitude is 9.99D-15 for   2909.
 Iteration    1 A*A^-1 deviation from orthogonality  is 6.44D-15 for   2905   1580.
 Iteration    1 A^-1*A deviation from unit magnitude is 1.03D-14 for   2909.
 Iteration    1 A^-1*A deviation from orthogonality  is 1.48D-13 for   2069   2009.
 Error on total polarization charges =  0.01452
 SCF Done:  E(RM062X) =  -1064.33763207     A.U. after   14 cycles
            NFock= 14  Conv=0.12D-08     -V/T= 2.0048

 **********************************************************************

            Population analysis using the SCF density.

 **********************************************************************

 Orbital symmetries:
       Occupied  (A) (A) (A) (A) (A) (A) (A) (A) (A) (A) (A) (A)
                 (A) (A) (A) (A) (A) (A) (A) (A) (A) (A) (A) (A)
                 (A) (A) (A) (A) (A) (A) (A) (A) (A) (A) (A) (A)
                 (A) (A) (A) (A) (A) (A) (A) (A) (A) (A) (A) (A)
                 (A) (A) (A) (A) (A) (A) (A) (A) (A) (A) (A) (A)
                 (A) (A) (A) (A) (A) (A) (A) (A) (A) (A) (A) (A)
                 (A) (A)
       Virtual   (A) (A) (A) (A) (A) (A) (A) (A) (A) (A) (A) (A)
                 (A) (A) (A) (A) (A) (A) (A) (A) (A) (A) (A) (A)
                 (A) (A) (A) (A) (A) (A) (A) (A) (A) (A) (A) (A)
                 (A) (A) (A) (A) (A) (A) (A) (A) (A) (A) (A) (A)
                 (A) (A) (A) (A) (A) (A) (A) (A) (A) (A) (A) (A)
                 (A) (A) (A) (A) (A) (A) (A) (A) (A) (A) (A) (A)
                 (A) (A) (A) (A) (A) (A) (A) (A) (A) (A) (A) (A)
                 (A) (A) (A) (A) (A) (A) (A) (A) (A) (A) (A) (A)
                 (A) (A) (A) (A) (A) (A) (A) (A) (A) (A) (A) (A)
                 (A) (A) (A) (A) (A) (A) (A) (A) (A) (A) (A) (A)
                 (A) (A) (A) (A) (A) (A) (A) (A) (A) (A) (A) (A)
                 (A) (A) (A) (A) (A) (A) (A) (A) (A) (A) (A) (A)
                 (A) (A) (A) (A) (A) (A) (A) (A) (A) (A) (A) (A)
                 (A) (A) (A) (A) (A) (A) (A) (A) (A) (A) (A) (A)
                 (A) (A) (A) (A) (A) (A) (A) (A) (A) (A) (A) (A)
                 (A) (A) (A) (A) (A) (A) (A) (A) (A) (A) (A) (A)
                 (A) (A) (A) (A) (A) (A) (A) (A) (A) (A) (A) (A)
                 (A) (A) (A) (A) (A) (A) (A) (A) (A) (A) (A) (A)
                 (A) (A) (A) (A) (A) (A) (A) (A) (A) (A) (A) (A)
                 (A) (A) (A) (A) (A) (A) (A) (A) (A) (A) (A) (A)
                 (A) (A) (A) (A) (A) (A) (A) (A) (A) (A) (A) (A)
                 (A) (A) (A) (A) (A) (A) (A) (A) (A) (A) (A) (A)
                 (A) (A) (A) (A) (A) (A) (A) (A) (A) (A) (A) (A)
                 (A) (A) (A) (A) (A) (A) (A) (A) (A) (A) (A) (A)
                 (A) (A) (A) (A) (A) (A) (A) (A) (A) (A) (A) (A)
                 (A) (A) (A) (A) (A) (A) (A) (A) (A) (A) (A) (A)
                 (A) (A) (A) (A) (A) (A) (A) (A) (A) (A) (A) (A)
                 (A) (A) (A) (A) (A) (A) (A) (A) (A) (A) (A) (A)
                 (A) (A) (A) (A) (A) (A) (A) (A) (A) (A) (A) (A)
                 (A) (A) (A) (A) (A) (A) (A) (A) (A) (A) (A) (A)
                 (A) (A) (A) (A) (A) (A) (A) (A) (A) (A) (A) (A)
                 (A) (A) (A) (A) (A) (A) (A) (A) (A) (A) (A) (A)
                 (A) (A) (A) (A) (A) (A) (A) (A) (A) (A) (A) (A)
                 (A) (A) (A) (A) (A) (A) (A) (A) (A) (A) (A) (A)
                 (A) (A) (A) (A) (A) (A) (A) (A) (A) (A) (A) (A)
                 (A) (A) (A) (A) (A) (A) (A) (A) (A) (A) (A) (A)
                 (A) (A) (A) (A) (A) (A) (A) (A) (A) (A) (A) (A)
                 (A) (A) (A) (A) (A) (A) (A) (A) (A) (A) (A) (A)
                 (A) (A) (A) (A) (A) (A) (A) (A) (A) (A) (A) (A)
                 (A) (A) (A) (A) (A) (A) (A) (A) (A) (A) (A) (A)
                 (A) (A) (A) (A) (A) (A) (A) (A) (A) (A) (A) (A)
                 (A) (A) (A) (A) (A) (A) (A) (A) (A) (A) (A) (A)
                 (A) (A) (A) (A) (A) (A) (A) (A) (A) (A) (A) (A)
                 (A) (A) (A) (A) (A) (A) (A) (A) (A) (A) (A) (A)
                 (A) (A) (A) (A) (A) (A) (A) (A) (A) (A) (A) (A)
                 (A) (A) (A) (A) (A) (A) (A) (A) (A) (A) (A) (A)
                 (A) (A) (A) (A) (A) (A) (A) (A) (A) (A) (A) (A)
                 (A) (A) (A) (A) (A) (A) (A) (A) (A) (A) (A) (A)
                 (A) (A) (A) (A) (A) (A) (A) (A) (A) (A) (A) (A)
                 (A) (A) (A) (A) (A) (A) (A) (A) (A) (A) (A) (A)
                 (A) (A) (A) (A) (A) (A) (A) (A) (A) (A) (A) (A)
                 (A) (A) (A) (A) (A) (A) (A) (A) (A) (A) (A) (A)
                 (A) (A) (A) (A) (A) (A) (A) (A) (A) (A) (A) (A)
                 (A) (A) (A) (A) (A) (A) (A) (A) (A) (A)
 The electronic state is 1-A.
 Alpha  occ. eigenvalues --  -67.01709 -19.66921 -19.61874 -19.61398 -10.67840
 Alpha  occ. eigenvalues --  -10.62346 -10.60595 -10.55467 -10.55408 -10.55005
 Alpha  occ. eigenvalues --  -10.54861 -10.53916 -10.53864 -10.53129 -10.52541
 Alpha  occ. eigenvalues --  -10.51310 -10.51032 -10.50891  -5.55161  -3.86345
 Alpha  occ. eigenvalues --   -3.86206  -3.86190  -1.22682  -1.14015  -1.13220
 Alpha  occ. eigenvalues --   -0.93287  -0.90449  -0.87404  -0.85352  -0.80709
 Alpha  occ. eigenvalues --   -0.79996  -0.78696  -0.77074  -0.76814  -0.72970
 Alpha  occ. eigenvalues --   -0.70576  -0.68937  -0.64239  -0.60623  -0.60038
 Alpha  occ. eigenvalues --   -0.57890  -0.56913  -0.55622  -0.54356  -0.52888
 Alpha  occ. eigenvalues --   -0.51805  -0.51487  -0.50468  -0.49238  -0.48920
 Alpha  occ. eigenvalues --   -0.47839  -0.47546  -0.47188  -0.47050  -0.46330
 Alpha  occ. eigenvalues --   -0.45759  -0.45229  -0.44725  -0.44546  -0.44421
 Alpha  occ. eigenvalues --   -0.43521  -0.43201  -0.42793  -0.41368  -0.40472
 Alpha  occ. eigenvalues --   -0.40406  -0.39763  -0.38795  -0.36883  -0.35972
 Alpha  occ. eigenvalues --   -0.35328  -0.34774  -0.33856  -0.31823
 Alpha virt. eigenvalues --    0.02241   0.04327   0.04949   0.06466   0.07358
 Alpha virt. eigenvalues --    0.07645   0.08791   0.09145   0.09647   0.10105
 Alpha virt. eigenvalues --    0.10852   0.11451   0.11644   0.12228   0.12777
 Alpha virt. eigenvalues --    0.12989   0.13287   0.14247   0.14621   0.15223
 Alpha virt. eigenvalues --    0.15470   0.15926   0.16089   0.16531   0.16914
 Alpha virt. eigenvalues --    0.17237   0.17472   0.17715   0.18176   0.18562
 Alpha virt. eigenvalues --    0.19006   0.19329   0.20090   0.20346   0.20593
 Alpha virt. eigenvalues --    0.20693   0.21537   0.22146   0.22867   0.23112
 Alpha virt. eigenvalues --    0.23349   0.23741   0.24030   0.24698   0.25013
 Alpha virt. eigenvalues --    0.25967   0.26381   0.27017   0.27698   0.28425
 Alpha virt. eigenvalues --    0.28842   0.28990   0.29604   0.30548   0.31118
 Alpha virt. eigenvalues --    0.31539   0.31968   0.32814   0.33090   0.34047
 Alpha virt. eigenvalues --    0.34760   0.35296   0.35456   0.36031   0.36504
 Alpha virt. eigenvalues --    0.37250   0.37876   0.38438   0.38685   0.38870
 Alpha virt. eigenvalues --    0.39792   0.40021   0.40993   0.41139   0.41293
 Alpha virt. eigenvalues --    0.41894   0.42164   0.43340   0.43833   0.44210
 Alpha virt. eigenvalues --    0.44466   0.44699   0.45496   0.45866   0.46523
 Alpha virt. eigenvalues --    0.46537   0.47321   0.47702   0.47951   0.48328
 Alpha virt. eigenvalues --    0.48864   0.49102   0.49257   0.49637   0.49820
 Alpha virt. eigenvalues --    0.50505   0.51085   0.51198   0.51671   0.51719
 Alpha virt. eigenvalues --    0.51873   0.52418   0.53026   0.53357   0.54484
 Alpha virt. eigenvalues --    0.54700   0.54759   0.55587   0.55835   0.56129
 Alpha virt. eigenvalues --    0.56934   0.57174   0.57555   0.58135   0.58824
 Alpha virt. eigenvalues --    0.59270   0.59481   0.59908   0.60972   0.61931
 Alpha virt. eigenvalues --    0.62338   0.63074   0.64066   0.64701   0.65274
 Alpha virt. eigenvalues --    0.65718   0.66128   0.67131   0.67546   0.68149
 Alpha virt. eigenvalues --    0.69281   0.71069   0.71561   0.71597   0.72075
 Alpha virt. eigenvalues --    0.72721   0.74334   0.76078   0.76888   0.77487
 Alpha virt. eigenvalues --    0.78223   0.78933   0.79946   0.80496   0.81539
 Alpha virt. eigenvalues --    0.81934   0.82948   0.83251   0.84439   0.86452
 Alpha virt. eigenvalues --    0.86642   0.86827   0.88832   0.89121   0.90888
 Alpha virt. eigenvalues --    0.91852   0.92510   0.93501   0.93756   0.93990
 Alpha virt. eigenvalues --    0.94482   0.95236   0.95627   0.97258   0.98212
 Alpha virt. eigenvalues --    0.98788   0.99626   1.00317   1.01113   1.01973
 Alpha virt. eigenvalues --    1.02495   1.03198   1.04210   1.04686   1.05108
 Alpha virt. eigenvalues --    1.05392   1.05593   1.06301   1.07011   1.07375
 Alpha virt. eigenvalues --    1.08062   1.08915   1.09400   1.09898   1.10686
 Alpha virt. eigenvalues --    1.12037   1.12829   1.13504   1.15048   1.15432
 Alpha virt. eigenvalues --    1.15910   1.17291   1.17706   1.19092   1.19648
 Alpha virt. eigenvalues --    1.20328   1.22380   1.22623   1.23580   1.25476
 Alpha virt. eigenvalues --    1.27139   1.27636   1.27941   1.28951   1.29748
 Alpha virt. eigenvalues --    1.30019   1.30951   1.31189   1.31577   1.32570
 Alpha virt. eigenvalues --    1.33931   1.35624   1.36600   1.37644   1.38380
 Alpha virt. eigenvalues --    1.38815   1.39835   1.40908   1.41217   1.41978
 Alpha virt. eigenvalues --    1.42602   1.44394   1.45592   1.45953   1.46664
 Alpha virt. eigenvalues --    1.49138   1.49190   1.51432   1.51492   1.53101
 Alpha virt. eigenvalues --    1.53389   1.55103   1.55684   1.56432   1.56739
 Alpha virt. eigenvalues --    1.57374   1.58472   1.58583   1.58827   1.59107
 Alpha virt. eigenvalues --    1.59863   1.60271   1.61259   1.61981   1.62398
 Alpha virt. eigenvalues --    1.62716   1.63595   1.63900   1.64727   1.65049
 Alpha virt. eigenvalues --    1.65168   1.65848   1.66654   1.66747   1.67207
 Alpha virt. eigenvalues --    1.67611   1.67981   1.68397   1.68803   1.69401
 Alpha virt. eigenvalues --    1.70386   1.70535   1.71324   1.71971   1.72699
 Alpha virt. eigenvalues --    1.73582   1.74493   1.76067   1.77731   1.78375
 Alpha virt. eigenvalues --    1.78964   1.79251   1.80110   1.82923   1.83463
 Alpha virt. eigenvalues --    1.84020   1.85397   1.86551   1.87204   1.88084
 Alpha virt. eigenvalues --    1.88779   1.90038   1.90949   1.91733   1.93184
 Alpha virt. eigenvalues --    1.93831   1.95495   1.96315   1.96886   1.98254
 Alpha virt. eigenvalues --    1.98884   1.99863   2.00218   2.00394   2.02251
 Alpha virt. eigenvalues --    2.02438   2.02869   2.04742   2.06145   2.06410
 Alpha virt. eigenvalues --    2.07198   2.07447   2.08433   2.08901   2.10105
 Alpha virt. eigenvalues --    2.10430   2.11525   2.13171   2.13681   2.14946
 Alpha virt. eigenvalues --    2.15178   2.16127   2.17341   2.17837   2.18723
 Alpha virt. eigenvalues --    2.20344   2.20912   2.22016   2.22788   2.23241
 Alpha virt. eigenvalues --    2.23879   2.26044   2.26653   2.27102   2.27362
 Alpha virt. eigenvalues --    2.28071   2.29976   2.30765   2.32255   2.32773
 Alpha virt. eigenvalues --    2.33173   2.34087   2.34403   2.36390   2.36576
 Alpha virt. eigenvalues --    2.37565   2.37844   2.38232   2.39682   2.40218
 Alpha virt. eigenvalues --    2.41131   2.41221   2.41411   2.41770   2.42443
 Alpha virt. eigenvalues --    2.43544   2.43742   2.44097   2.44587   2.44742
 Alpha virt. eigenvalues --    2.45574   2.46828   2.47671   2.49125   2.50319
 Alpha virt. eigenvalues --    2.51036   2.52001   2.53110   2.54101   2.55188
 Alpha virt. eigenvalues --    2.56651   2.57063   2.57438   2.58132   2.59223
 Alpha virt. eigenvalues --    2.59383   2.59975   2.60223   2.60602   2.61354
 Alpha virt. eigenvalues --    2.62173   2.62970   2.63401   2.63738   2.64147
 Alpha virt. eigenvalues --    2.64686   2.65377   2.66218   2.66473   2.66990
 Alpha virt. eigenvalues --    2.68386   2.69288   2.69673   2.69783   2.70423
 Alpha virt. eigenvalues --    2.71522   2.71897   2.72510   2.73364   2.74123
 Alpha virt. eigenvalues --    2.74991   2.76313   2.76895   2.77600   2.78029
 Alpha virt. eigenvalues --    2.78661   2.79982   2.80965   2.82602   2.82929
 Alpha virt. eigenvalues --    2.83923   2.85995   2.86253   2.87266   2.87868
 Alpha virt. eigenvalues --    2.89678   2.90579   2.92409   2.93090   2.93766
 Alpha virt. eigenvalues --    2.95338   2.97294   2.97861   2.98935   3.00873
 Alpha virt. eigenvalues --    3.01477   3.03312   3.04637   3.05797   3.06275
 Alpha virt. eigenvalues --    3.07297   3.08421   3.08984   3.09473   3.11042
 Alpha virt. eigenvalues --    3.11590   3.12234   3.12920   3.13308   3.14271
 Alpha virt. eigenvalues --    3.14578   3.14928   3.15138   3.16269   3.16606
 Alpha virt. eigenvalues --    3.17225   3.17746   3.18527   3.18749   3.20049
 Alpha virt. eigenvalues --    3.21222   3.21425   3.22235   3.22888   3.24291
 Alpha virt. eigenvalues --    3.24862   3.25434   3.25662   3.26112   3.26440
 Alpha virt. eigenvalues --    3.27608   3.27958   3.28584   3.29060   3.29508
 Alpha virt. eigenvalues --    3.30005   3.30598   3.31190   3.31843   3.32462
 Alpha virt. eigenvalues --    3.33062   3.33693   3.34031   3.35231   3.35466
 Alpha virt. eigenvalues --    3.36219   3.36635   3.37574   3.38357   3.38412
 Alpha virt. eigenvalues --    3.40039   3.41649   3.41902   3.42834   3.42851
 Alpha virt. eigenvalues --    3.43697   3.44284   3.45099   3.45491   3.46358
 Alpha virt. eigenvalues --    3.46556   3.47533   3.49189   3.49923   3.51394
 Alpha virt. eigenvalues --    3.52697   3.52995   3.53036   3.53929   3.54386
 Alpha virt. eigenvalues --    3.55635   3.56909   3.57433   3.57915   3.58702
 Alpha virt. eigenvalues --    3.59536   3.60453   3.60996   3.63093   3.63497
 Alpha virt. eigenvalues --    3.64005   3.64659   3.65425   3.65800   3.66143
 Alpha virt. eigenvalues --    3.67288   3.68032   3.68446   3.69314   3.70440
 Alpha virt. eigenvalues --    3.70931   3.73255   3.74362   3.74505   3.76570
 Alpha virt. eigenvalues --    3.77719   3.79640   3.79762   3.80861   3.84290
 Alpha virt. eigenvalues --    3.85465   3.86516   3.89102   3.89873   3.92369
 Alpha virt. eigenvalues --    3.93950   3.95292   3.98168   3.99112   4.00554
 Alpha virt. eigenvalues --    4.02596   4.04331   4.06616   4.10104   4.11389
 Alpha virt. eigenvalues --    4.12259   4.12918   4.13913   4.16094   4.17868
 Alpha virt. eigenvalues --    4.21099   4.21633   4.22611   4.22976   4.25535
 Alpha virt. eigenvalues --    4.26563   4.27029   4.27543   4.29161   4.29669
 Alpha virt. eigenvalues --    4.30518   4.31253   4.33367   4.36756   4.36956
 Alpha virt. eigenvalues --    4.38078   4.38479   4.38674   4.39266   4.40701
 Alpha virt. eigenvalues --    4.41520   4.43487   4.44030   4.46965   4.48684
 Alpha virt. eigenvalues --    4.50040   4.52966   4.54232   4.55705   4.57458
 Alpha virt. eigenvalues --    4.59278   4.63144   4.65730   4.66348   4.68218
 Alpha virt. eigenvalues --    4.72491   4.73770   4.78462   4.80317   4.82946
 Alpha virt. eigenvalues --    4.85484   4.90263   4.90969   4.95658   5.01884
 Alpha virt. eigenvalues --    5.07190   5.11061   5.13145   5.17883   5.22189
 Alpha virt. eigenvalues --    5.24245   5.26557   5.27824   5.29240   5.39868
 Alpha virt. eigenvalues --    5.48805   5.50315   5.52015   5.61676   5.83005
 Alpha virt. eigenvalues --    5.85170   5.86512   5.89031   5.90422   5.98200
 Alpha virt. eigenvalues --    6.13020   6.17437   6.22968   6.37505   6.39319
 Alpha virt. eigenvalues --    6.51170   6.62762   6.64402   6.66700   6.69514
 Alpha virt. eigenvalues --    6.70286   6.77515   6.82013   6.84518   6.88600
 Alpha virt. eigenvalues --    6.94442   6.97372   7.04333   7.07091   7.15727
 Alpha virt. eigenvalues --    7.18866   7.35373   7.40383  12.17647  22.30511
 Alpha virt. eigenvalues --   22.37781  22.41223  22.43289  22.45370  22.53021
 Alpha virt. eigenvalues --   22.64366  22.66735  22.71027  22.74361  22.81955
 Alpha virt. eigenvalues --   22.88609  22.89931  23.43169  44.09188  44.47827
 Alpha virt. eigenvalues --   44.56628
          Condensed to atoms (all electrons):
               1          2          3          4          5          6
     1  C    5.378164   0.128877   0.064289  -0.051616  -0.014115   0.459538
     2  C    0.128877   5.620938   0.002117   0.063277  -0.047244  -0.039669
     3  C    0.064289   0.002117   5.956632  -0.300176   0.124740   0.010955
     4  C   -0.051616   0.063277  -0.300176   6.293196   0.024702  -0.002718
     5  C   -0.014115  -0.047244   0.124740   0.024702   4.470943   0.003373
     6  H    0.459538  -0.039669   0.010955  -0.002718   0.003373   0.498352
     7  H   -0.067660   0.468899  -0.067717   0.003933  -0.006632  -0.009492
     8  H   -0.001470  -0.001456  -0.034547   0.389545  -0.012953  -0.000143
     9  H   -0.000287   0.005665  -0.046091   0.383128  -0.007944   0.000167
    10  O    0.136361  -0.026072   0.016877  -0.170252   0.389313  -0.034682
    11  O    0.001436  -0.003202   0.021930  -0.162128   0.745366   0.000001
    12  C    0.191927  -0.010934  -0.033073   0.026638  -0.015345  -0.060874
    13  C   -0.053908   0.011259  -0.000892  -0.001793   0.000692  -0.010270
    14  C   -0.044370   0.184498  -0.032354   0.002558   0.000483  -0.009903
    15  O   -0.016165  -0.055027   0.138761  -0.022830  -0.004586  -0.000561
    16  Si   0.002011   0.004520  -0.081514   0.006549  -0.001385   0.000049
    17  C    0.000377  -0.000724   0.000984   0.000882   0.000058   0.000001
    18  C   -0.000122   0.000799  -0.003862  -0.000659  -0.000007  -0.000002
    19  C   -0.000088  -0.000963   0.022294  -0.005898  -0.000516  -0.000003
    20  H    0.000003  -0.000038   0.000204   0.000006   0.000000   0.000000
    21  H    0.000009  -0.000138   0.003120  -0.000011  -0.000002   0.000000
    22  H   -0.000017   0.000017  -0.004111   0.000351   0.000003   0.000000
    23  H   -0.000021  -0.000071  -0.001148  -0.000481   0.000226   0.000000
    24  H    0.000001   0.000021  -0.000874   0.000283  -0.000010   0.000000
    25  H    0.000029   0.000110   0.003214  -0.000614  -0.000044   0.000000
    26  H    0.000020   0.000138   0.000755  -0.000607   0.000010   0.000001
    27  H   -0.000072   0.000114  -0.000149  -0.000026  -0.000002   0.000000
    28  H   -0.000011   0.000004  -0.000003  -0.000038   0.000000   0.000000
    29  H    0.012377  -0.044917   0.004747   0.000302  -0.000086  -0.000185
    30  H   -0.022672  -0.018035  -0.021129   0.001029  -0.000336   0.000575
    31  H    0.004248  -0.057026   0.013090  -0.000843   0.000181   0.002020
    32  H   -0.029427  -0.000138  -0.001603   0.012074  -0.005027   0.005098
    33  H   -0.053937  -0.000216   0.000312  -0.002719   0.001620   0.001723
    34  H    0.013395  -0.000813  -0.000039   0.000130  -0.000104  -0.000132
    35  H   -0.011968  -0.001468   0.000493  -0.001508   0.002104   0.001391
    36  H   -0.001678   0.001672  -0.000168   0.000428  -0.000423   0.001526
    37  C   -0.005353  -0.028141   0.112585  -0.024287  -0.002605  -0.000631
    38  C   -0.002047  -0.006885  -0.017191   0.010929  -0.006659   0.000070
    39  C   -0.000425   0.002615  -0.013001   0.000734  -0.002060   0.000011
    40  H   -0.000493  -0.014839  -0.071935   0.009560  -0.000246  -0.000001
    41  H   -0.000190   0.009765  -0.041098  -0.022623   0.001149   0.000005
    42  H    0.000856  -0.000088   0.001040  -0.002329   0.000684   0.000034
    43  H    0.000006  -0.000038   0.000161   0.000030  -0.000114   0.000000
    44  H   -0.000016   0.000068  -0.004153   0.000568  -0.000068   0.000000
               7          8          9         10         11         12
     1  C   -0.067660  -0.001470  -0.000287   0.136361   0.001436   0.191927
     2  C    0.468899  -0.001456   0.005665  -0.026072  -0.003202  -0.010934
     3  C   -0.067717  -0.034547  -0.046091   0.016877   0.021930  -0.033073
     4  C    0.003933   0.389545   0.383128  -0.170252  -0.162128   0.026638
     5  C   -0.006632  -0.012953  -0.007944   0.389313   0.745366  -0.015345
     6  H   -0.009492  -0.000143   0.000167  -0.034682   0.000001  -0.060874
     7  H    0.516491  -0.000112  -0.000401   0.002465  -0.000643   0.011131
     8  H   -0.000112   0.461661  -0.010052   0.004372   0.004672  -0.005872
     9  H   -0.000401  -0.010052   0.465699   0.005926   0.008005   0.000370
    10  O    0.002465   0.004372   0.005926   8.031927  -0.101108  -0.015099
    11  O   -0.000643   0.004672   0.008005  -0.101108   7.858165  -0.000747
    12  C    0.011131  -0.005872   0.000370  -0.015099  -0.000747   5.211605
    13  C   -0.000349   0.001327  -0.000108  -0.002987   0.000175   0.258750
    14  C   -0.020855  -0.000376  -0.000312   0.005516  -0.000083   0.011294
    15  O    0.004659  -0.009361   0.001603  -0.000061  -0.000225   0.009567
    16  Si  -0.000222   0.000461   0.001622  -0.000067  -0.000082  -0.000456
    17  C    0.000014  -0.000476   0.000040  -0.000002   0.000000  -0.001033
    18  C    0.000013   0.000205  -0.000111   0.000000   0.000000  -0.000017
    19  C    0.000003  -0.001384  -0.002877  -0.000030  -0.000026   0.000181
    20  H    0.000000  -0.000003   0.000001   0.000000   0.000000  -0.000001
    21  H   -0.000003  -0.000006   0.000001   0.000000   0.000000  -0.000003
    22  H    0.000001  -0.000008  -0.000005   0.000000   0.000000   0.000004
    23  H    0.000000   0.001123  -0.000871   0.000002  -0.000004   0.000038
    24  H    0.000000   0.000040   0.000099   0.000000   0.000000  -0.000003
    25  H    0.000002  -0.000765   0.000661  -0.000002  -0.000017  -0.000016
    26  H   -0.000001   0.000337   0.000008   0.000002   0.000000  -0.000314
    27  H    0.000001   0.000020  -0.000001   0.000000   0.000000   0.000161
    28  H    0.000000   0.000026   0.000000   0.000000   0.000000   0.000020
    29  H   -0.006683   0.000020  -0.000023  -0.000259   0.000000  -0.000300
    30  H    0.006176   0.000029  -0.000007   0.000008   0.000001   0.006742
    31  H   -0.005456   0.000015   0.000018   0.000058   0.000001  -0.004500
    32  H   -0.000566  -0.007673   0.000818  -0.003471   0.000040   0.404912
    33  H   -0.000414   0.000561   0.000003   0.004373   0.000005   0.427723
    34  H    0.000021  -0.000002  -0.000001   0.000158  -0.000002  -0.053645
    35  H   -0.000030   0.000365  -0.000013   0.005732  -0.000078  -0.036992
    36  H   -0.000024  -0.000081   0.000004  -0.000412  -0.000004  -0.043184
    37  C   -0.011945   0.001392   0.009523   0.003559  -0.001554   0.001284
    38  C    0.006823   0.001066  -0.005471  -0.000507  -0.000236   0.000156
    39  C    0.001124   0.000313   0.002290  -0.000406   0.002083   0.000011
    40  H    0.002207  -0.000245   0.000422  -0.000021  -0.000008  -0.000046
    41  H   -0.000333  -0.000025  -0.000151  -0.000005   0.000061  -0.000040
    42  H   -0.003541  -0.000033   0.000175  -0.000059   0.000124  -0.000046
    43  H    0.000020   0.000000   0.000051   0.000010  -0.000116   0.000000
    44  H   -0.000016  -0.000061  -0.000295  -0.000006  -0.000121   0.000000
              13         14         15         16         17         18
     1  C   -0.053908  -0.044370  -0.016165   0.002011   0.000377  -0.000122
     2  C    0.011259   0.184498  -0.055027   0.004520  -0.000724   0.000799
     3  C   -0.000892  -0.032354   0.138761  -0.081514   0.000984  -0.003862
     4  C   -0.001793   0.002558  -0.022830   0.006549   0.000882  -0.000659
     5  C    0.000692   0.000483  -0.004586  -0.001385   0.000058  -0.000007
     6  H   -0.010270  -0.009903  -0.000561   0.000049   0.000001  -0.000002
     7  H   -0.000349  -0.020855   0.004659  -0.000222   0.000014   0.000013
     8  H    0.001327  -0.000376  -0.009361   0.000461  -0.000476   0.000205
     9  H   -0.000108  -0.000312   0.001603   0.001622   0.000040  -0.000111
    10  O   -0.002987   0.005516  -0.000061  -0.000067  -0.000002   0.000000
    11  O    0.000175  -0.000083  -0.000225  -0.000082   0.000000   0.000000
    12  C    0.258750   0.011294   0.009567  -0.000456  -0.001033  -0.000017
    13  C    5.044255  -0.000496   0.001050   0.000018  -0.000014   0.000003
    14  C   -0.000496   5.133461   0.000717  -0.001164   0.000184  -0.001058
    15  O    0.001050   0.000717   8.086790   0.388364  -0.020943  -0.020022
    16  Si   0.000018  -0.001164   0.388364  12.450509   0.391657   0.351171
    17  C   -0.000014   0.000184  -0.020943   0.391657   5.109133  -0.045513
    18  C    0.000003  -0.001058  -0.020022   0.351171  -0.045513   5.147589
    19  C    0.000006   0.000102  -0.030591   0.331826  -0.043786  -0.051593
    20  H    0.000000   0.000028   0.001142  -0.032188   0.001775   0.385456
    21  H    0.000000  -0.000032  -0.000505  -0.039406   0.001697   0.393943
    22  H    0.000000   0.000105   0.001395  -0.033624   0.002576   0.391821
    23  H   -0.000004  -0.000010   0.000378  -0.037085   0.000888   0.003317
    24  H    0.000000  -0.000003   0.001246  -0.022138   0.000035   0.001185
    25  H    0.000000   0.000000   0.000447  -0.038600   0.003047   0.001908
    26  H    0.000020  -0.000002   0.000502  -0.032211   0.388951   0.003177
    27  H   -0.000006  -0.000034   0.000553  -0.033854   0.390172   0.000694
    28  H    0.000002  -0.000010   0.001247  -0.043481   0.395261   0.002359
    29  H    0.000036   0.411741  -0.002717  -0.001130   0.000001   0.000158
    30  H    0.000341   0.421578   0.004690  -0.001733  -0.000078   0.000257
    31  H   -0.000091   0.423963   0.001185   0.000200  -0.000005  -0.000009
    32  H   -0.042405  -0.001064  -0.000050  -0.000156  -0.000361   0.000079
    33  H   -0.030144  -0.006374  -0.001036   0.000002  -0.000048  -0.000007
    34  H    0.425146   0.000048   0.000009  -0.000003   0.000003   0.000000
    35  H    0.420014  -0.000082   0.000004   0.000011  -0.000002   0.000000
    36  H    0.410734  -0.000140  -0.000025  -0.000006   0.000000   0.000000
    37  C    0.000031   0.002181  -0.066080   0.010963  -0.000880   0.005365
    38  C   -0.000002  -0.001749   0.007392  -0.000664   0.000007   0.000955
    39  C   -0.000001  -0.000629  -0.000142   0.000619   0.000000  -0.000082
    40  H   -0.000002   0.001314   0.003459  -0.003533   0.000184  -0.004957
    41  H    0.000000   0.000355  -0.006433   0.007711   0.000126  -0.003801
    42  H    0.000001   0.000328  -0.000189   0.000117   0.000000  -0.000021
    43  H    0.000000   0.000007   0.000008   0.000003   0.000000   0.000002
    44  H    0.000000  -0.000004  -0.000032   0.000180   0.000001  -0.000020
              19         20         21         22         23         24
     1  C   -0.000088   0.000003   0.000009  -0.000017  -0.000021   0.000001
     2  C   -0.000963  -0.000038  -0.000138   0.000017  -0.000071   0.000021
     3  C    0.022294   0.000204   0.003120  -0.004111  -0.001148  -0.000874
     4  C   -0.005898   0.000006  -0.000011   0.000351  -0.000481   0.000283
     5  C   -0.000516   0.000000  -0.000002   0.000003   0.000226  -0.000010
     6  H   -0.000003   0.000000   0.000000   0.000000   0.000000   0.000000
     7  H    0.000003   0.000000  -0.000003   0.000001   0.000000   0.000000
     8  H   -0.001384  -0.000003  -0.000006  -0.000008   0.001123   0.000040
     9  H   -0.002877   0.000001   0.000001  -0.000005  -0.000871   0.000099
    10  O   -0.000030   0.000000   0.000000   0.000000   0.000002   0.000000
    11  O   -0.000026   0.000000   0.000000   0.000000  -0.000004   0.000000
    12  C    0.000181  -0.000001  -0.000003   0.000004   0.000038  -0.000003
    13  C    0.000006   0.000000   0.000000   0.000000  -0.000004   0.000000
    14  C    0.000102   0.000028  -0.000032   0.000105  -0.000010  -0.000003
    15  O   -0.030591   0.001142  -0.000505   0.001395   0.000378   0.001246
    16  Si   0.331826  -0.032188  -0.039406  -0.033624  -0.037085  -0.022138
    17  C   -0.043786   0.001775   0.001697   0.002576   0.000888   0.000035
    18  C   -0.051593   0.385456   0.393943   0.391821   0.003317   0.001185
    19  C    5.183207   0.002770   0.003495   0.001094   0.393134   0.382779
    20  H    0.002770   0.512072  -0.016081  -0.018300  -0.000183   0.000149
    21  H    0.003495  -0.016081   0.509498  -0.018628  -0.000092  -0.000116
    22  H    0.001094  -0.018300  -0.018628   0.513117  -0.000149   0.000109
    23  H    0.393134  -0.000183  -0.000092  -0.000149   0.507509  -0.015979
    24  H    0.382779   0.000149  -0.000116   0.000109  -0.015979   0.496750
    25  H    0.392151   0.000195  -0.000211   0.000358  -0.019186  -0.015346
    26  H    0.001013  -0.000139  -0.000181  -0.000096   0.000860   0.000239
    27  H    0.003243   0.000280   0.000884  -0.000139  -0.000188  -0.000135
    28  H    0.002180  -0.000004   0.000247  -0.000129   0.000278   0.000206
    29  H   -0.000009  -0.000012   0.000141  -0.000006   0.000000   0.000000
    30  H    0.000070  -0.000007   0.000143  -0.000019  -0.000001  -0.000002
    31  H    0.000005   0.000000   0.000006   0.000001   0.000000   0.000000
    32  H   -0.000388  -0.000002  -0.000001  -0.000003   0.000128   0.000005
    33  H   -0.000007   0.000000  -0.000002   0.000000  -0.000004   0.000000
    34  H    0.000000   0.000000   0.000000   0.000000   0.000000   0.000000
    35  H    0.000001   0.000000   0.000000   0.000000  -0.000001   0.000000
    36  H    0.000000   0.000000   0.000000   0.000000   0.000000   0.000000
    37  C   -0.015373  -0.000305  -0.002801   0.003393   0.001011   0.000447
    38  C    0.000619  -0.000006  -0.000068   0.000637  -0.000044  -0.000013
    39  C   -0.000305   0.000000   0.000004   0.000036   0.000016   0.000003
    40  H    0.000767   0.000338   0.000598  -0.002888  -0.000040  -0.000019
    41  H   -0.000693   0.000014   0.000021   0.001014  -0.000324   0.000082
    42  H   -0.000009   0.000000   0.000001   0.000003   0.000000   0.000000
    43  H   -0.000001   0.000000   0.000000   0.000000   0.000000   0.000000
    44  H   -0.000089   0.000000   0.000000   0.000026   0.000003   0.000003
              25         26         27         28         29         30
     1  C    0.000029   0.000020  -0.000072  -0.000011   0.012377  -0.022672
     2  C    0.000110   0.000138   0.000114   0.000004  -0.044917  -0.018035
     3  C    0.003214   0.000755  -0.000149  -0.000003   0.004747  -0.021129
     4  C   -0.000614  -0.000607  -0.000026  -0.000038   0.000302   0.001029
     5  C   -0.000044   0.000010  -0.000002   0.000000  -0.000086  -0.000336
     6  H    0.000000   0.000001   0.000000   0.000000  -0.000185   0.000575
     7  H    0.000002  -0.000001   0.000001   0.000000  -0.006683   0.006176
     8  H   -0.000765   0.000337   0.000020   0.000026   0.000020   0.000029
     9  H    0.000661   0.000008  -0.000001   0.000000  -0.000023  -0.000007
    10  O   -0.000002   0.000002   0.000000   0.000000  -0.000259   0.000008
    11  O   -0.000017   0.000000   0.000000   0.000000   0.000000   0.000001
    12  C   -0.000016  -0.000314   0.000161   0.000020  -0.000300   0.006742
    13  C    0.000000   0.000020  -0.000006   0.000002   0.000036   0.000341
    14  C    0.000000  -0.000002  -0.000034  -0.000010   0.411741   0.421578
    15  O    0.000447   0.000502   0.000553   0.001247  -0.002717   0.004690
    16  Si  -0.038600  -0.032211  -0.033854  -0.043481  -0.001130  -0.001733
    17  C    0.003047   0.388951   0.390172   0.395261   0.000001  -0.000078
    18  C    0.001908   0.003177   0.000694   0.002359   0.000158   0.000257
    19  C    0.392151   0.001013   0.003243   0.002180  -0.000009   0.000070
    20  H    0.000195  -0.000139   0.000280  -0.000004  -0.000012  -0.000007
    21  H   -0.000211  -0.000181   0.000884   0.000247   0.000141   0.000143
    22  H    0.000358  -0.000096  -0.000139  -0.000129  -0.000006  -0.000019
    23  H   -0.019186   0.000860  -0.000188   0.000278   0.000000  -0.000001
    24  H   -0.015346   0.000239  -0.000135   0.000206   0.000000  -0.000002
    25  H    0.511221  -0.000149  -0.000093  -0.000171  -0.000003  -0.000005
    26  H   -0.000149   0.517489  -0.018417  -0.018507   0.000000  -0.000004
    27  H   -0.000093  -0.018417   0.515153  -0.017628  -0.000008   0.000485
    28  H   -0.000171  -0.018507  -0.017628   0.522285   0.000000   0.000017
    29  H   -0.000003   0.000000  -0.000008   0.000000   0.514872  -0.023155
    30  H   -0.000005  -0.000004   0.000485   0.000017  -0.023155   0.510397
    31  H    0.000000   0.000001   0.000008   0.000000  -0.020804  -0.026716
    32  H    0.000023   0.000640  -0.000101   0.000008  -0.000061   0.000014
    33  H    0.000000   0.000058   0.000062  -0.000001   0.000402  -0.004640
    34  H    0.000000   0.000014   0.000001   0.000000  -0.000001   0.000014
    35  H    0.000000   0.000002   0.000000   0.000000   0.000002  -0.000023
    36  H    0.000000  -0.000001   0.000000   0.000000  -0.000003   0.000042
    37  C   -0.004445   0.000059   0.000155   0.000027  -0.001059  -0.000104
    38  C   -0.000123   0.000001   0.000003  -0.000001  -0.001221   0.000257
    39  C    0.000006   0.000000   0.000000   0.000000  -0.000083   0.000019
    40  H    0.000203  -0.000009  -0.000012  -0.000003  -0.000947  -0.000061
    41  H    0.003818   0.000010  -0.000013  -0.000003   0.000286  -0.000105
    42  H   -0.000001   0.000000   0.000000   0.000000   0.000668  -0.000041
    43  H   -0.000006   0.000000   0.000000   0.000000  -0.000001   0.000000
    44  H    0.000219   0.000000   0.000000   0.000000   0.000001   0.000000
              31         32         33         34         35         36
     1  C    0.004248  -0.029427  -0.053937   0.013395  -0.011968  -0.001678
     2  C   -0.057026  -0.000138  -0.000216  -0.000813  -0.001468   0.001672
     3  C    0.013090  -0.001603   0.000312  -0.000039   0.000493  -0.000168
     4  C   -0.000843   0.012074  -0.002719   0.000130  -0.001508   0.000428
     5  C    0.000181  -0.005027   0.001620  -0.000104   0.002104  -0.000423
     6  H    0.002020   0.005098   0.001723  -0.000132   0.001391   0.001526
     7  H   -0.005456  -0.000566  -0.000414   0.000021  -0.000030  -0.000024
     8  H    0.000015  -0.007673   0.000561  -0.000002   0.000365  -0.000081
     9  H    0.000018   0.000818   0.000003  -0.000001  -0.000013   0.000004
    10  O    0.000058  -0.003471   0.004373   0.000158   0.005732  -0.000412
    11  O    0.000001   0.000040   0.000005  -0.000002  -0.000078  -0.000004
    12  C   -0.004500   0.404912   0.427723  -0.053645  -0.036992  -0.043184
    13  C   -0.000091  -0.042405  -0.030144   0.425146   0.420014   0.410734
    14  C    0.423963  -0.001064  -0.006374   0.000048  -0.000082  -0.000140
    15  O    0.001185  -0.000050  -0.001036   0.000009   0.000004  -0.000025
    16  Si   0.000200  -0.000156   0.000002  -0.000003   0.000011  -0.000006
    17  C   -0.000005  -0.000361  -0.000048   0.000003  -0.000002   0.000000
    18  C   -0.000009   0.000079  -0.000007   0.000000   0.000000   0.000000
    19  C    0.000005  -0.000388  -0.000007   0.000000   0.000001   0.000000
    20  H    0.000000  -0.000002   0.000000   0.000000   0.000000   0.000000
    21  H    0.000006  -0.000001  -0.000002   0.000000   0.000000   0.000000
    22  H    0.000001  -0.000003   0.000000   0.000000   0.000000   0.000000
    23  H    0.000000   0.000128  -0.000004   0.000000  -0.000001   0.000000
    24  H    0.000000   0.000005   0.000000   0.000000   0.000000   0.000000
    25  H    0.000000   0.000023   0.000000   0.000000   0.000000   0.000000
    26  H    0.000001   0.000640   0.000058   0.000014   0.000002  -0.000001
    27  H    0.000008  -0.000101   0.000062   0.000001   0.000000   0.000000
    28  H    0.000000   0.000008  -0.000001   0.000000   0.000000   0.000000
    29  H   -0.020804  -0.000061   0.000402  -0.000001   0.000002  -0.000003
    30  H   -0.026716   0.000014  -0.004640   0.000014  -0.000023   0.000042
    31  H    0.506878   0.000076   0.000579  -0.000002   0.000002   0.000030
    32  H    0.000076   0.540589  -0.022746  -0.004353  -0.003716   0.007244
    33  H    0.000579  -0.022746   0.530960  -0.004999   0.006529  -0.004577
    34  H   -0.000002  -0.004353  -0.004999   0.523034  -0.024216  -0.024207
    35  H    0.000002  -0.003716   0.006529  -0.024216   0.515692  -0.026663
    36  H    0.000030   0.007244  -0.004577  -0.024207  -0.026663   0.537164
    37  C   -0.000323   0.000592  -0.000245  -0.000002  -0.000015   0.000003
    38  C    0.000160  -0.000080   0.000018   0.000000   0.000001   0.000000
    39  C    0.000018  -0.000013   0.000002   0.000000   0.000000   0.000000
    40  H    0.000099  -0.000019   0.000001   0.000000   0.000000   0.000000
    41  H    0.000010  -0.000003   0.000006   0.000000   0.000000   0.000000
    42  H    0.000053  -0.000001   0.000003   0.000000   0.000000   0.000000
    43  H    0.000000   0.000000   0.000000   0.000000   0.000000   0.000000
    44  H    0.000000   0.000000   0.000000   0.000000   0.000000   0.000000
              37         38         39         40         41         42
     1  C   -0.005353  -0.002047  -0.000425  -0.000493  -0.000190   0.000856
     2  C   -0.028141  -0.006885   0.002615  -0.014839   0.009765  -0.000088
     3  C    0.112585  -0.017191  -0.013001  -0.071935  -0.041098   0.001040
     4  C   -0.024287   0.010929   0.000734   0.009560  -0.022623  -0.002329
     5  C   -0.002605  -0.006659  -0.002060  -0.000246   0.001149   0.000684
     6  H   -0.000631   0.000070   0.000011  -0.000001   0.000005   0.000034
     7  H   -0.011945   0.006823   0.001124   0.002207  -0.000333  -0.003541
     8  H    0.001392   0.001066   0.000313  -0.000245  -0.000025  -0.000033
     9  H    0.009523  -0.005471   0.002290   0.000422  -0.000151   0.000175
    10  O    0.003559  -0.000507  -0.000406  -0.000021  -0.000005  -0.000059
    11  O   -0.001554  -0.000236   0.002083  -0.000008   0.000061   0.000124
    12  C    0.001284   0.000156   0.000011  -0.000046  -0.000040  -0.000046
    13  C    0.000031  -0.000002  -0.000001  -0.000002   0.000000   0.000001
    14  C    0.002181  -0.001749  -0.000629   0.001314   0.000355   0.000328
    15  O   -0.066080   0.007392  -0.000142   0.003459  -0.006433  -0.000189
    16  Si   0.010963  -0.000664   0.000619  -0.003533   0.007711   0.000117
    17  C   -0.000880   0.000007   0.000000   0.000184   0.000126   0.000000
    18  C    0.005365   0.000955  -0.000082  -0.004957  -0.003801  -0.000021
    19  C   -0.015373   0.000619  -0.000305   0.000767  -0.000693  -0.000009
    20  H   -0.000305  -0.000006   0.000000   0.000338   0.000014   0.000000
    21  H   -0.002801  -0.000068   0.000004   0.000598   0.000021   0.000001
    22  H    0.003393   0.000637   0.000036  -0.002888   0.001014   0.000003
    23  H    0.001011  -0.000044   0.000016  -0.000040  -0.000324   0.000000
    24  H    0.000447  -0.000013   0.000003  -0.000019   0.000082   0.000000
    25  H   -0.004445  -0.000123   0.000006   0.000203   0.003818  -0.000001
    26  H    0.000059   0.000001   0.000000  -0.000009   0.000010   0.000000
    27  H    0.000155   0.000003   0.000000  -0.000012  -0.000013   0.000000
    28  H    0.000027  -0.000001   0.000000  -0.000003  -0.000003   0.000000
    29  H   -0.001059  -0.001221  -0.000083  -0.000947   0.000286   0.000668
    30  H   -0.000104   0.000257   0.000019  -0.000061  -0.000105  -0.000041
    31  H   -0.000323   0.000160   0.000018   0.000099   0.000010   0.000053
    32  H    0.000592  -0.000080  -0.000013  -0.000019  -0.000003  -0.000001
    33  H   -0.000245   0.000018   0.000002   0.000001   0.000006   0.000003
    34  H   -0.000002   0.000000   0.000000   0.000000   0.000000   0.000000
    35  H   -0.000015   0.000001   0.000000   0.000000   0.000000   0.000000
    36  H    0.000003   0.000000   0.000000   0.000000   0.000000   0.000000
    37  C    5.430539   0.198415  -0.038894   0.463723   0.438037  -0.050594
    38  C    0.198415   5.192771   0.523068  -0.037048  -0.033374   0.419611
    39  C   -0.038894   0.523068   5.008564  -0.002672  -0.001802  -0.019402
    40  H    0.463723  -0.037048  -0.002672   0.468304  -0.016792  -0.001047
    41  H    0.438037  -0.033374  -0.001802  -0.016792   0.479120   0.002281
    42  H   -0.050594   0.419611  -0.019402  -0.001047   0.002281   0.490838
    43  H    0.005310  -0.045280   0.419955  -0.000234   0.000351  -0.006155
    44  H    0.013085  -0.075732   0.438012   0.000455  -0.002780   0.003948
              43         44
     1  C    0.000006  -0.000016
     2  C   -0.000038   0.000068
     3  C    0.000161  -0.004153
     4  C    0.000030   0.000568
     5  C   -0.000114  -0.000068
     6  H    0.000000   0.000000
     7  H    0.000020  -0.000016
     8  H    0.000000  -0.000061
     9  H    0.000051  -0.000295
    10  O    0.000010  -0.000006
    11  O   -0.000116  -0.000121
    12  C    0.000000   0.000000
    13  C    0.000000   0.000000
    14  C    0.000007  -0.000004
    15  O    0.000008  -0.000032
    16  Si   0.000003   0.000180
    17  C    0.000000   0.000001
    18  C    0.000002  -0.000020
    19  C   -0.000001  -0.000089
    20  H    0.000000   0.000000
    21  H    0.000000   0.000000
    22  H    0.000000   0.000026
    23  H    0.000000   0.000003
    24  H    0.000000   0.000003
    25  H   -0.000006   0.000219
    26  H    0.000000   0.000000
    27  H    0.000000   0.000000
    28  H    0.000000   0.000000
    29  H   -0.000001   0.000001
    30  H    0.000000   0.000000
    31  H    0.000000   0.000000
    32  H    0.000000   0.000000
    33  H    0.000000   0.000000
    34  H    0.000000   0.000000
    35  H    0.000000   0.000000
    36  H    0.000000   0.000000
    37  C    0.005310   0.013085
    38  C   -0.045280  -0.075732
    39  C    0.419955   0.438012
    40  H   -0.000234   0.000455
    41  H    0.000351  -0.002780
    42  H   -0.006155   0.003948
    43  H    0.496759  -0.022269
    44  H   -0.022269   0.504767
 Mulliken charges:
               1
     1  C   -0.015796
     2  C   -0.147231
     3  C    0.277528
     4  C   -0.456674
     5  C    0.362865
     6  H    0.184376
     7  H    0.179113
     8  H    0.219555
     9  H    0.188725
    10  O   -0.251152
    11  O   -0.371682
    12  C   -0.279976
    13  C   -0.430386
    14  C   -0.479354
    15  O   -0.397583
    16  Si   0.456136
    17  C   -0.574189
    18  C   -0.558593
    19  C   -0.566309
    20  H    0.162836
    21  H    0.164481
    22  H    0.162061
    23  H    0.166977
    24  H    0.170956
    25  H    0.162183
    26  H    0.156332
    27  H    0.158890
    28  H    0.155824
    29  H    0.157915
    30  H    0.165990
    31  H    0.162872
    32  H    0.151088
    33  H    0.157173
    34  H    0.150547
    35  H    0.154434
    36  H    0.142749
    37  C   -0.446044
    38  C   -0.128559
    39  C   -0.319590
    40  H    0.206488
    41  H    0.186366
    42  H    0.162789
    43  H    0.151542
    44  H    0.144328
 Sum of Mulliken charges =   0.00000
 Mulliken charges with hydrogens summed into heavy atoms:
               1
     1  C    0.168580
     2  C    0.031882
     3  C    0.277528
     4  C   -0.048394
     5  C    0.362865
    10  O   -0.251152
    11  O   -0.371682
    12  C    0.028285
    13  C    0.017344
    14  C    0.007423
    15  O   -0.397583
    16  Si   0.456136
    17  C   -0.103143
    18  C   -0.069216
    19  C   -0.066193
    37  C   -0.053190
    38  C    0.034230
    39  C   -0.023719
 Electronic spatial extent (au):  <R**2>=           5245.7538
 Charge=              0.0000 electrons
 Dipole moment (field-independent basis, Debye):
    X=             -4.6141    Y=             -1.9266    Z=              3.1443  Tot=              5.9066
 Quadrupole moment (field-independent basis, Debye-Ang):
   XX=           -131.5278   YY=           -118.6278   ZZ=           -121.5379
   XY=             -7.9180   XZ=             14.4091   YZ=              4.2790
 Traceless Quadrupole moment (field-independent basis, Debye-Ang):
   XX=             -7.6300   YY=              5.2700   ZZ=              2.3600
   XY=             -7.9180   XZ=             14.4091   YZ=              4.2790
 Octapole moment (field-independent basis, Debye-Ang**2):
  XXX=            -58.3725  YYY=              3.7602  ZZZ=             15.6130  XYY=              7.1268
  XXY=            -29.8701  XXZ=             30.0465  XZZ=             -7.7306  YZZ=            -15.1500
  YYZ=              1.6934  XYZ=             17.2652
 Hexadecapole moment (field-independent basis, Debye-Ang**3):
 XXXX=          -3680.3329 YYYY=          -2413.0230 ZZZZ=          -1196.6999 XXXY=            -36.7012
 XXXZ=            138.4119 YYYX=             14.3587 YYYZ=            -34.8319 ZZZX=             26.5935
 ZZZY=             19.0326 XXYY=          -1031.3407 XXZZ=           -832.7751 YYZZ=           -622.9286
 XXYZ=             36.0411 YYXZ=             38.3297 ZZXY=            -25.1738
 N-N= 1.638932580700D+03 E-N=-5.771100809775D+03  KE= 1.059304503811D+03
 1\1\GINC-CPU-E-126\SP\RM062X\def2TZVP\C14H26O3Si1\KE291\26-Jun-2019\0\
 \# m062x/def2tzvp int=ultrafine scrf=(solvent=chloroform)\\IP1_3ginp00
 6\\0,1\C,0,2.172252,-0.883042,0.702953\C,0,1.083003,-0.012742,1.354855
 \C,0,0.008582,0.46422,0.335951\C,0,0.658392,0.638171,-1.070395\C,0,2.1
 71446,0.72081,-1.129017\H,0,2.95231,-1.052663,1.453513\H,0,1.625827,0.
 88613,1.670811\H,0,0.387365,-0.238439,-1.667141\H,0,0.274215,1.515498,
 -1.592464\O,0,2.872661,-0.087388,-0.303889\O,0,2.771631,1.424293,-1.91
 4723\C,0,1.76362,-2.246363,0.137029\C,0,2.950852,-3.042583,-0.414491\C
 ,0,0.498739,-0.665105,2.612631\O,0,-0.994191,-0.549944,0.261967\Si,0,-
 2.562542,-0.63599,-0.348603\C,0,-2.887769,-2.484502,-0.476448\C,0,-3.8
 04084,0.140558,0.842232\C,0,-2.719381,0.167956,-2.050606\H,0,-4.82603,
 -0.057407,0.497937\H,0,-3.705244,-0.28618,1.846116\H,0,-3.688495,1.225
 497,0.925454\H,0,-2.0307,-0.2772,-2.776215\H,0,-3.737396,0.019012,-2.4
 29633\H,0,-2.535202,1.247067,-2.030724\H,0,-2.194172,-2.963764,-1.1751
 21\H,0,-2.774,-2.973349,0.496747\H,0,-3.906869,-2.67714,-0.829912\H,0,
 -0.169051,0.023662,3.13775\H,0,-0.073013,-1.562643,2.372479\H,0,1.3019
 73,-0.936,3.305845\H,0,0.994795,-2.127605,-0.631437\H,0,1.29133,-2.808
 962,0.950197\H,0,2.622791,-4.017391,-0.787647\H,0,3.438205,-2.511447,-
 1.236798\H,0,3.704489,-3.218236,0.361491\C,0,-0.640382,1.803776,0.7951
 78\C,0,0.285716,2.986219,0.893824\C,0,0.255599,4.041197,0.077099\H,0,-
 1.119115,1.624028,1.765317\H,0,-1.437999,2.042966,0.083426\H,0,1.01714
 1,2.97437,1.700952\H,0,0.945383,4.871567,0.193755\H,0,-0.463264,4.1153
 72,-0.735876\\Version=ES64L-G09RevD.01\State=1-A\HF=-1064.3376321\RMSD
 =1.163e-09\Dipole=-1.8153107,-0.7579895,1.2370611\Quadrupole=-5.672703
 2,3.9181242,1.754579,-5.8868249,10.712779,3.1813616\PG=C01 [X(C14H26O3
 Si1)]\\@


 ASKING DUMB QUESTIONS IS EASIER THAN CORECTING DUMB MISTAKES.
 Job cpu time:       0 days  2 hours 26 minutes 35.2 seconds.
 File lengths (MBytes):  RWF=    412 Int=      0 D2E=      0 Chk=     21 Scr=      1
 Normal termination of Gaussian 09 at Wed Jun 26 13:55:50 2019.
