 Entering Gaussian System, Link 0=/usr/local/Cluster-Apps/gaussian/g09/g09
 Initial command:
 /usr/local/Cluster-Apps/gaussian/g09/l1.exe "/home/ke291/rds/hpc-work/26Jun1304IP1NMR/Gau-202986.inp" -scrdir="/home/ke291/rds/hpc-work/26Jun1304IP1NMR/"
 Entering Link 1 = /usr/local/Cluster-Apps/gaussian/g09/l1.exe PID=    203009.
  
 Copyright (c) 1988,1990,1992,1993,1995,1998,2003,2009,2013,
            Gaussian, Inc.  All Rights Reserved.
  
 This is part of the Gaussian(R) 09 program.  It is based on
 the Gaussian(R) 03 system (copyright 2003, Gaussian, Inc.),
 the Gaussian(R) 98 system (copyright 1998, Gaussian, Inc.),
 the Gaussian(R) 94 system (copyright 1995, Gaussian, Inc.),
 the Gaussian 92(TM) system (copyright 1992, Gaussian, Inc.),
 the Gaussian 90(TM) system (copyright 1990, Gaussian, Inc.),
 the Gaussian 88(TM) system (copyright 1988, Gaussian, Inc.),
 the Gaussian 86(TM) system (copyright 1986, Carnegie Mellon
 University), and the Gaussian 82(TM) system (copyright 1983,
 Carnegie Mellon University). Gaussian is a federally registered
 trademark of Gaussian, Inc.
  
 This software contains proprietary and confidential information,
 including trade secrets, belonging to Gaussian, Inc.
  
 This software is provided under written license and may be
 used, copied, transmitted, or stored only in accord with that
 written license.
  
 The following legend is applicable only to US Government
 contracts under FAR:
  
                    RESTRICTED RIGHTS LEGEND
  
 Use, reproduction and disclosure by the US Government is
 subject to restrictions as set forth in subparagraphs (a)
 and (c) of the Commercial Computer Software - Restricted
 Rights clause in FAR 52.227-19.
  
 Gaussian, Inc.
 340 Quinnipiac St., Bldg. 40, Wallingford CT 06492
  
  
 ---------------------------------------------------------------
 Warning -- This program may not be used in any manner that
 competes with the business of Gaussian, Inc. or will provide
 assistance to any competitor of Gaussian, Inc.  The licensee
 of this program is prohibited from giving any competitor of
 Gaussian, Inc. access to this program.  By using this program,
 the user acknowledges that Gaussian, Inc. is engaged in the
 business of creating and licensing software in the field of
 computational chemistry and represents and warrants to the
 licensee that it is not a competitor of Gaussian, Inc. and that
 it will not use this program in any manner prohibited above.
 ---------------------------------------------------------------
  

 Cite this work as:
 Gaussian 09, Revision D.01,
 M. J. Frisch, G. W. Trucks, H. B. Schlegel, G. E. Scuseria, 
 M. A. Robb, J. R. Cheeseman, G. Scalmani, V. Barone, B. Mennucci, 
 G. A. Petersson, H. Nakatsuji, M. Caricato, X. Li, H. P. Hratchian, 
 A. F. Izmaylov, J. Bloino, G. Zheng, J. L. Sonnenberg, M. Hada, 
 M. Ehara, K. Toyota, R. Fukuda, J. Hasegawa, M. Ishida, T. Nakajima, 
 Y. Honda, O. Kitao, H. Nakai, T. Vreven, J. A. Montgomery, Jr., 
 J. E. Peralta, F. Ogliaro, M. Bearpark, J. J. Heyd, E. Brothers, 
 K. N. Kudin, V. N. Staroverov, T. Keith, R. Kobayashi, J. Normand, 
 K. Raghavachari, A. Rendell, J. C. Burant, S. S. Iyengar, J. Tomasi, 
 M. Cossi, N. Rega, J. M. Millam, M. Klene, J. E. Knox, J. B. Cross, 
 V. Bakken, C. Adamo, J. Jaramillo, R. Gomperts, R. E. Stratmann, 
 O. Yazyev, A. J. Austin, R. Cammi, C. Pomelli, J. W. Ochterski, 
 R. L. Martin, K. Morokuma, V. G. Zakrzewski, G. A. Voth, 
 P. Salvador, J. J. Dannenberg, S. Dapprich, A. D. Daniels, 
 O. Farkas, J. B. Foresman, J. V. Ortiz, J. Cioslowski, 
 and D. J. Fox, Gaussian, Inc., Wallingford CT, 2013.
 
 ******************************************
 Gaussian 09:  ES64L-G09RevD.01 24-Apr-2013
                26-Jun-2019 
 ******************************************
 %nprocshared=4
 Will use up to    4 processors via shared memory.
 %mem=6000MB
 %chk=IP1_1ginp002.chk
 --------------------------------------------------------
 # m062x/def2tzvp int=ultrafine scrf=(solvent=chloroform)
 --------------------------------------------------------
 1/38=1/1;
 2/12=2,17=6,18=5,40=1/2;
 3/5=44,7=101,11=2,16=1,25=1,30=1,70=2201,72=7,74=-55,75=-5/1,2,3;
 4//1;
 5/5=2,38=5,53=7/2;
 6/7=2,8=2,9=2,10=2,28=1/1;
 99/5=1,9=1/99;
 ------------
 IP1_1ginp002
 ------------
 Symbolic Z-matrix:
 Charge =  0 Multiplicity = 1
 C                     2.41691  -0.25293   0.57608 
 C                     0.96721  -0.72375   0.76525 
 C                    -0.03932   0.40907   0.41783 
 C                     0.22523   0.81378  -1.04016 
 C                     1.67568   1.10773  -1.37469 
 H                     2.66191   0.45034   1.38143 
 H                     0.76374  -1.51994   0.03903 
 H                    -0.0671   -0.00812  -1.70492 
 H                    -0.35859   1.68944  -1.32887 
 O                     2.64241   0.49225  -0.66283 
 O                     1.99911   1.82139  -2.30102 
 C                     3.47892  -1.35978   0.5814 
 C                     3.30892  -2.43622  -0.49461 
 C                     0.7743   -1.30812   2.17277 
 O                    -1.36791  -0.07419   0.59421 
 Si                   -2.50686  -0.90131  -0.32737 
 C                    -3.24443   0.21293  -1.65987 
 C                    -1.80181  -2.46535  -1.11829 
 C                    -3.83198  -1.36288   0.92486 
 H                    -1.04332  -2.25779  -1.88035 
 H                    -1.35496  -3.12789  -0.36944 
 H                    -2.60877  -3.02118  -1.61053 
 H                    -4.66222  -1.88701   0.43851 
 H                    -3.43056  -2.01969   1.70362 
 H                    -4.23981  -0.47276   1.415 
 H                    -3.62134   1.14567  -1.227 
 H                    -2.52359   0.47459  -2.44085 
 H                    -4.08758  -0.29205  -2.14574 
 H                     1.29478  -2.2639    2.27546 
 H                     1.15614  -0.63836   2.95054 
 H                    -0.28693  -1.47899   2.3641 
 H                     3.49333  -1.81444   1.57785 
 H                     4.44989  -0.86809   0.45525 
 H                     4.16199  -3.12098  -0.48245 
 H                     2.40644  -3.03626  -0.3415 
 H                     3.25472  -1.98776  -1.491 
 C                     0.09839   1.63631   1.36007 
 C                    -0.89719   2.73078   1.0877 
 C                    -0.57963   3.98776   0.77313 
 H                     1.11313   2.04413   1.29265 
 H                    -0.03967   1.27701   2.38702 
 H                    -1.9445    2.44757   1.17222 
 H                    -1.34204   4.74212   0.60146 
 H                     0.4548    4.31117   0.67996 
 
                          Input orientation:                          
 ---------------------------------------------------------------------
 Center     Atomic      Atomic             Coordinates (Angstroms)
 Number     Number       Type             X           Y           Z
 ---------------------------------------------------------------------
      1          6           0        2.416911   -0.252933    0.576080
      2          6           0        0.967211   -0.723753    0.765246
      3          6           0       -0.039320    0.409065    0.417834
      4          6           0        0.225230    0.813782   -1.040157
      5          6           0        1.675678    1.107729   -1.374685
      6          1           0        2.661910    0.450336    1.381428
      7          1           0        0.763737   -1.519939    0.039033
      8          1           0       -0.067100   -0.008124   -1.704923
      9          1           0       -0.358588    1.689437   -1.328873
     10          8           0        2.642413    0.492251   -0.662829
     11          8           0        1.999114    1.821390   -2.301023
     12          6           0        3.478918   -1.359779    0.581399
     13          6           0        3.308916   -2.436215   -0.494611
     14          6           0        0.774297   -1.308124    2.172773
     15          8           0       -1.367910   -0.074189    0.594209
     16         14           0       -2.506861   -0.901313   -0.327368
     17          6           0       -3.244426    0.212929   -1.659867
     18          6           0       -1.801806   -2.465347   -1.118286
     19          6           0       -3.831978   -1.362881    0.924857
     20          1           0       -1.043316   -2.257785   -1.880345
     21          1           0       -1.354957   -3.127889   -0.369442
     22          1           0       -2.608765   -3.021177   -1.610531
     23          1           0       -4.662223   -1.887008    0.438505
     24          1           0       -3.430557   -2.019690    1.703618
     25          1           0       -4.239809   -0.472762    1.414999
     26          1           0       -3.621338    1.145671   -1.227001
     27          1           0       -2.523587    0.474587   -2.440853
     28          1           0       -4.087579   -0.292045   -2.145743
     29          1           0        1.294781   -2.263896    2.275464
     30          1           0        1.156138   -0.638360    2.950537
     31          1           0       -0.286925   -1.478992    2.364096
     32          1           0        3.493329   -1.814435    1.577854
     33          1           0        4.449885   -0.868089    0.455252
     34          1           0        4.161986   -3.120984   -0.482446
     35          1           0        2.406440   -3.036256   -0.341495
     36          1           0        3.254716   -1.987762   -1.490997
     37          6           0        0.098391    1.636310    1.360067
     38          6           0       -0.897190    2.730778    1.087702
     39          6           0       -0.579626    3.987760    0.773127
     40          1           0        1.113129    2.044126    1.292654
     41          1           0       -0.039674    1.277010    2.387017
     42          1           0       -1.944497    2.447569    1.172217
     43          1           0       -1.342037    4.742123    0.601458
     44          1           0        0.454799    4.311167    0.679960
 ---------------------------------------------------------------------
                    Distance matrix (angstroms):
                    1          2          3          4          5
     1  C    0.000000
     2  C    1.535931   0.000000
     3  C    2.548795   1.554695   0.000000
     4  C    2.924648   2.484759   1.536073   0.000000
     5  C    2.491247   2.904403   2.577300   1.517272   0.000000
     6  H    1.096903   2.151783   2.868250   3.454501   3.000163
     7  H    2.150978   1.096676   2.123546   2.626955   3.120076
     8  H    3.381304   2.771941   2.163542   1.096768   2.095581
     9  H    3.886521   3.459272   2.189125   1.091317   2.116299
    10  O    1.463231   2.514829   2.892481   2.467495   1.349121
    11  O    3.571427   4.116380   3.679954   2.398275   1.213270
    12  C    1.533948   2.597499   3.941264   4.235599   3.628572
    13  C    2.590130   3.162807   4.487634   4.513227   4.000192
    14  C    2.522110   1.536176   2.586604   3.889329   4.385578
    15  O    3.789083   2.429810   1.424708   2.449028   3.812729
    16  Si   5.047786   3.646164   2.891570   3.303625   4.756759
    17  C    6.104689   4.949387   3.824659   3.575413   5.008934
    18  C    5.056009   3.774692   3.705167   3.855861   4.992545
    19  C    6.356276   4.844190   4.216766   5.006004   6.459573
    20  H    4.693253   3.659867   3.660836   3.427776   4.356065
    21  H    4.835946   3.529851   3.854964   4.299258   5.304312
    22  H    6.140184   4.869300   4.741611   4.802475   5.954825
    23  H    7.266586   5.757643   5.161745   5.776496   7.240518
    24  H    6.211735   4.679782   4.364926   5.377885   6.732781
    25  H    6.712975   5.253402   4.406366   5.255431   6.728542
    26  H    6.455048   5.340279   4.009853   3.865378   5.299210
    27  H    5.834354   4.888840   3.787871   3.103707   4.378517
    28  H    7.051116   5.849028   4.842714   4.587537   5.980721
    29  H    2.862002   2.181766   3.517859   4.648589   4.983626
    30  H    2.715907   2.195104   2.990118   4.347522   4.693218
    31  H    3.465682   2.167848   2.722867   4.136188   4.951911
    32  H    2.144881   2.869005   4.332344   4.943883   4.534356
    33  H    2.127440   3.499421   4.667492   4.786716   3.866361
    34  H    3.520153   4.184500   5.560820   5.593878   4.985963
    35  H    2.930689   2.940055   4.292850   4.479799   4.332910
    36  H    2.825660   3.452685   4.498787   4.150866   3.476917
    37  C    3.091830   2.584291   1.553350   2.540416   3.200953
    38  C    4.488603   3.938750   2.564179   3.076115   3.913731
    39  C    5.196300   4.958944   3.636650   3.742984   4.241942
    40  H    2.736751   2.821454   2.183317   2.782826   2.882360
    41  H    3.413946   2.765323   2.151978   3.468469   4.137812
    42  H    5.164298   4.324460   2.890379   3.503081   4.624667
    43  H    6.251473   5.935929   4.528375   4.536859   5.120602
    44  H    4.969073   5.061646   3.941987   3.904255   3.996765
                    6          7          8          9         10
     6  H    0.000000
     7  H    3.047469   0.000000
     8  H    4.145268   2.453010   0.000000
     9  H    4.243172   3.664816   1.762978   0.000000
    10  O    2.044780   2.840940   2.945810   3.298920   0.000000
    11  O    3.984913   4.262217   2.823419   2.553673   2.205476
    12  C    2.141043   2.773449   4.430404   5.260543   2.382826
    13  C    3.502901   2.757222   4.331047   5.582793   3.008062
    14  C    2.698424   2.144254   4.175461   4.746612   3.843416
    15  O    4.139359   2.634831   2.642438   2.797741   4.240718
    16  Si   5.609201   3.348695   2.940727   3.511421   5.345052
    17  C    6.647604   4.685559   3.185325   3.258480   5.977205
    18  C    5.888509   2.969039   3.064522   4.403346   5.357790
    19  C    6.757721   4.682942   4.788049   5.143966   6.919538
    20  H    5.630434   2.737493   2.458606   4.043950   4.757062
    21  H    5.657248   2.690951   3.629741   5.011975   5.400968
    22  H    6.984500   4.043334   3.943027   5.228050   6.388833
    23  H    7.745657   5.453014   5.407369   5.868207   7.760897
    24  H    6.582020   4.540121   5.193977   5.691276   6.985047
    25  H    6.963258   5.293896   5.230803   5.221859   7.253523
    26  H    6.838611   5.285565   3.767262   3.309320   6.322960
    27  H    6.442034   4.575420   2.609393   2.720217   5.463446
    28  H    7.651645   5.460425   4.054526   4.301037   6.935917
    29  H    3.167870   2.416010   4.773542   5.599439   4.248061
    30  H    2.432018   3.067249   4.854567   5.101606   4.067396
    31  H    3.658356   2.551761   4.332285   4.866426   4.650709
    32  H    2.420543   3.147280   5.168756   5.963509   3.326487
    33  H    2.406845   3.766409   5.080261   5.731095   2.523407
    34  H    4.298672   3.792543   5.391615   6.655237   3.923915
    35  H    3.897442   2.267706   4.140884   5.563494   3.550958
    36  H    3.813996   2.960545   3.872879   5.157911   2.685376
    37  C    2.824645   3.485645   3.482200   2.728012   3.445726
    38  C    4.237202   4.682625   3.998673   2.685948   4.539180
    39  C    4.836420   5.716491   4.729747   3.122427   4.966094
    40  H    2.224134   3.794232   3.819704   3.027236   2.927617
    41  H    2.998859   3.739174   4.289090   3.752285   4.136544
    42  H    5.025106   4.935560   4.222912   3.057012   5.313229
    43  H    5.921096   6.630537   5.432284   3.743293   5.961181
    44  H    4.502156   5.874353   4.961484   3.401540   4.601397
                   11         12         13         14         15
    11  O    0.000000
    12  C    4.540706   0.000000
    13  C    4.806860   1.531474   0.000000
    14  C    5.595434   3.138489   3.848613   0.000000
    15  O    4.828296   5.014444   5.351392   2.933174   0.000000
    16  Si   5.622476   6.071705   6.017238   4.145141   1.682453
    17  C    5.522041   7.259479   7.163943   5.757853   2.946966
    18  C    5.849955   5.656612   5.148718   4.336651   2.972968
    19  C    7.385629   7.318960   7.359300   4.772637   2.800301
    20  H    5.106175   5.226586   4.570998   4.542393   3.316153
    21  H    6.283006   5.234182   4.716544   3.782608   3.202167
    22  H    6.720103   6.680171   6.050323   5.356589   3.883985
    23  H    8.101274   8.159446   8.044339   5.735725   3.763383
    24  H    7.763528   7.031053   7.101141   4.290365   3.044713
    25  H    7.615518   7.814118   8.030256   5.139388   3.013364
    26  H    5.761909   7.743463   7.835478   6.074634   3.143692
    27  H    4.721044   6.966274   6.802846   5.944715   3.293683
    28  H    6.445041   8.113522   7.876029   6.581781   3.866704
    29  H    6.174940   2.908219   3.429249   1.093137   3.835539
    30  H    5.860022   3.395374   4.442497   1.095127   3.498770
    31  H    6.154822   4.168188   4.692393   1.091784   2.504895
    32  H    5.522462   1.095373   2.171573   2.829031   5.256202
    33  H    4.564716   1.095650   2.159414   4.080865   5.873357
    34  H    5.693180   2.167992   1.093977   4.670448   6.404834
    35  H    5.253798   2.193745   1.094512   3.460040   4.888262
    36  H    4.091738   2.177029   1.093999   4.476337   5.420195
    37  C    4.129235   4.583758   5.507519   3.128423   2.379576
    38  C    4.549618   6.011599   6.847836   4.503774   2.886685
    39  C    4.559984   6.716004   7.615469   5.642562   4.141598
    40  H    3.707977   4.205878   5.299929   3.482384   3.336261
    41  H    5.141082   4.753252   5.771038   2.718707   2.608469
    42  H    5.292217   6.652698   7.363967   4.743225   2.650624
    43  H    5.302675   7.776581   8.623298   6.599499   4.816387
    44  H    4.179732   6.427646   7.419755   5.822972   4.749839
                   16         17         18         19         20
    16  Si   0.000000
    17  C    1.887085   0.000000
    18  C    1.889142   3.089923   0.000000
    19  C    1.880704   3.083698   3.084066   0.000000
    20  H    2.528580   3.316312   1.095045   4.055447   0.000000
    21  H    2.507248   4.049241   1.095173   3.305465   1.771166
    22  H    2.480064   3.296353   1.096556   3.267168   1.762441
    23  H    2.490731   3.289840   3.307576   1.095698   4.314050
    24  H    2.495774   4.041320   3.288553   1.094991   4.312818
    25  H    2.494515   3.303901   4.041261   1.094932   4.925766
    26  H    2.498308   1.095191   4.044993   3.311751   4.319325
    27  H    2.521944   1.094538   3.303538   4.051688   3.157725
    28  H    2.485229   1.096349   3.317178   3.261994   3.633470
    29  H    4.804565   6.498145   4.598584   5.377697   4.768384
    30  H    4.922537   6.430045   5.351881   5.432275   5.549555
    31  H    3.536355   5.272731   3.923614   3.827831   4.381087
    32  H    6.361285   7.745346   5.977567   7.368204   5.721612
    33  H    7.000708   8.052624   6.641603   8.309910   6.128746
    34  H    7.030257   8.207084   6.033321   8.305112   5.458425
    35  H    5.357117   6.650383   4.317253   6.581921   3.856798
    36  H    5.977472   6.863702   5.092683   7.513192   4.324070
    37  C    4.009277   4.724451   5.155247   4.963099   5.193047
    38  C    4.217292   4.404341   5.717030   5.039598   5.806584
    39  C    5.369205   5.222065   6.834746   6.263400   6.801673
    40  H    4.940082   5.573056   5.885985   6.016399   5.764080
    41  H    4.266144   5.270671   5.421946   4.846494   5.631381
    42  H    3.712145   3.834597   5.422500   4.259495   5.680723
    43  H    5.836772   5.407982   7.424051   6.601172   7.432852
    44  H    6.079152   5.996216   7.365263   7.115564   7.207679
                   21         22         23         24         25
    21  H    0.000000
    22  H    1.767406   0.000000
    23  H    3.623613   3.114736   0.000000
    24  H    3.135889   3.558357   1.770626   0.000000
    25  H    4.307702   4.278850   1.769764   1.769513   0.000000
    26  H    4.912759   4.305232   3.613100   4.317920   3.159430
    27  H    4.316743   3.594031   4.294368   4.921448   4.325562
    28  H    4.320241   3.149842   3.090705   4.270131   3.568573
    29  H    3.842281   5.559865   6.245187   4.766074   5.880497
    30  H    4.850321   6.376179   6.459315   4.949813   5.612624
    31  H    3.366271   4.854579   4.797667   3.257454   4.187908
    32  H    5.387300   6.989819   8.235072   6.928069   7.850352
    33  H    6.283550   7.663406   9.168914   8.061388   8.751467
    34  H    5.518105   6.864809   8.957539   7.977370   9.011300
    35  H    3.762617   5.173293   7.203830   6.267889   7.336852
    36  H    4.879227   5.955052   8.149298   7.409417   8.179728
    37  C    5.272667   6.151856   5.993871   5.092920   4.824021
    38  C    6.054486   6.579889   5.993403   5.418879   4.641432
    39  C    7.248383   7.676225   7.161876   6.714393   5.805618
    40  H    5.966888   6.923747   7.038329   6.109711   5.916387
    41  H    5.360147   6.407420   5.930908   4.778426   4.652704
    42  H    5.814637   6.171881   5.168455   4.737844   3.722329
    43  H    7.929685   8.171066   7.415900   7.162317   6.021126
    44  H    7.727614   8.270129   8.041119   7.498241   6.742819
                   26         27         28         29         30
    26  H    0.000000
    27  H    1.768855   0.000000
    28  H    1.768755   1.766603   0.000000
    29  H    6.932578   6.657542   7.239134   0.000000
    30  H    6.592334   6.621640   7.320422   1.765591   0.000000
    31  H    5.559060   5.648598   6.016017   1.767972   1.770030
    32  H    8.200483   7.588999   8.582133   2.349955   2.954636
    33  H    8.487040   7.669388   8.943450   3.900786   4.138598
    34  H    8.907235   7.839667   8.878332   4.069586   5.194605
    35  H    7.389637   6.406129   7.277245   2.946320   4.260356
    36  H    7.560967   6.352494   7.563957   4.254859   5.094324
    37  C    4.557415   4.761445   5.790648   4.181018   2.970277
    38  C    3.910422   4.492913   5.456300   5.582319   4.363187
    39  C    4.618441   5.143057   6.256378   6.697285   5.399535
    40  H    5.437928   5.443182   6.657900   4.422439   3.153753
    41  H    5.089862   5.488355   6.276415   3.785661   2.327265
    42  H    3.203589   4.157196   4.806989   5.823056   4.722215
    43  H    4.633891   5.372484   6.358299   7.670685   6.380333
    44  H    5.501978   5.773180   7.057433   6.817819   5.490466
                   31         32         33         34         35
    31  H    0.000000
    32  H    3.875696   0.000000
    33  H    5.143370   1.752371   0.000000
    34  H    5.530981   2.529626   2.457173   0.000000
    35  H    4.123046   2.521522   3.084059   1.763232   0.000000
    36  H    5.259640   3.082990   2.543616   1.767627   1.772080
    37  C    3.295702   4.845686   5.101588   6.522232   5.482269
    38  C    4.441145   6.338444   6.476345   7.893272   6.798180
    39  C    5.701073   7.134565   6.998307   8.636758   7.713350
    40  H    3.939607   4.542597   4.507347   6.254988   5.491209
    41  H    2.767166   4.763810   5.337537   6.725334   5.659727
    42  H    4.425608   6.920923   7.238491   8.428275   7.162005
    43  H    6.551521   8.205033   8.064875   9.659067   8.685817
    44  H    6.075558   6.896512   6.544914   8.386375   7.670521
                   36         37         38         39         40
    36  H    0.000000
    37  C    5.587920   0.000000
    38  C    6.793573   1.504402   0.000000
    39  C    7.452201   2.516649   1.334094   0.000000
    40  H    5.347077   1.095697   2.134216   2.629266   0.000000
    41  H    6.045720   1.096715   2.130022   3.200680   1.764951
    42  H    7.334622   2.206087   1.088210   2.096267   3.086478
    43  H    8.414265   3.506622   2.116561   1.086188   3.712786
    44  H    7.226970   2.782882   2.119377   1.087799   2.438907
                   41         42         43         44
    41  H    0.000000
    42  H    2.544464   0.000000
    43  H    4.109912   2.440021   0.000000
    44  H    3.516341   3.077651   1.849461   0.000000
 Stoichiometry    C14H26O3Si
 Framework group  C1[X(C14H26O3Si)]
 Deg. of freedom   126
 Full point group                 C1      NOp   1
 Largest Abelian subgroup         C1      NOp   1
 Largest concise Abelian subgroup C1      NOp   1
                         Standard orientation:                         
 ---------------------------------------------------------------------
 Center     Atomic      Atomic             Coordinates (Angstroms)
 Number     Number       Type             X           Y           Z
 ---------------------------------------------------------------------
      1          6           0       -2.416911   -0.252933   -0.576080
      2          6           0       -0.967211   -0.723753   -0.765246
      3          6           0        0.039320    0.409065   -0.417834
      4          6           0       -0.225230    0.813782    1.040157
      5          6           0       -1.675678    1.107729    1.374685
      6          1           0       -2.661910    0.450336   -1.381428
      7          1           0       -0.763737   -1.519939   -0.039033
      8          1           0        0.067100   -0.008124    1.704923
      9          1           0        0.358588    1.689437    1.328873
     10          8           0       -2.642413    0.492251    0.662829
     11          8           0       -1.999114    1.821390    2.301023
     12          6           0       -3.478918   -1.359779   -0.581399
     13          6           0       -3.308916   -2.436215    0.494611
     14          6           0       -0.774297   -1.308124   -2.172773
     15          8           0        1.367910   -0.074189   -0.594209
     16         14           0        2.506861   -0.901313    0.327368
     17          6           0        3.244426    0.212929    1.659867
     18          6           0        1.801806   -2.465347    1.118286
     19          6           0        3.831978   -1.362881   -0.924857
     20          1           0        1.043316   -2.257785    1.880345
     21          1           0        1.354957   -3.127889    0.369442
     22          1           0        2.608765   -3.021177    1.610531
     23          1           0        4.662223   -1.887008   -0.438505
     24          1           0        3.430557   -2.019690   -1.703618
     25          1           0        4.239809   -0.472762   -1.414999
     26          1           0        3.621338    1.145671    1.227001
     27          1           0        2.523587    0.474587    2.440853
     28          1           0        4.087579   -0.292045    2.145743
     29          1           0       -1.294781   -2.263896   -2.275464
     30          1           0       -1.156138   -0.638360   -2.950537
     31          1           0        0.286925   -1.478992   -2.364096
     32          1           0       -3.493329   -1.814435   -1.577854
     33          1           0       -4.449885   -0.868089   -0.455252
     34          1           0       -4.161986   -3.120984    0.482446
     35          1           0       -2.406440   -3.036256    0.341495
     36          1           0       -3.254716   -1.987762    1.490997
     37          6           0       -0.098391    1.636310   -1.360067
     38          6           0        0.897190    2.730778   -1.087702
     39          6           0        0.579626    3.987760   -0.773127
     40          1           0       -1.113129    2.044126   -1.292654
     41          1           0        0.039674    1.277010   -2.387017
     42          1           0        1.944497    2.447569   -1.172217
     43          1           0        1.342037    4.742123   -0.601458
     44          1           0       -0.454799    4.311167   -0.679960
 ---------------------------------------------------------------------
 Rotational constants (GHZ):      0.4437602      0.2975755      0.2430223
 Standard basis: def2TZVP (5D, 7F)
 There are   810 symmetry adapted cartesian basis functions of A   symmetry.
 There are   720 symmetry adapted basis functions of A   symmetry.
   720 basis functions,  1144 primitive gaussians,   810 cartesian basis functions
    74 alpha electrons       74 beta electrons
       nuclear repulsion energy      1632.9993200314 Hartrees.
 NAtoms=   44 NActive=   44 NUniq=   44 SFac= 1.00D+00 NAtFMM=   60 NAOKFM=F Big=F
 Integral buffers will be    131072 words long.
 Raffenetti 2 integral format.
 Two-electron integral symmetry is turned on.
 ------------------------------------------------------------------------------
 Polarizable Continuum Model (PCM)
 =================================
 Model                : PCM (using non-symmetric T matrix).
 Atomic radii         : UFF (Universal Force Field).
 Polarization charges : Total charges.
 Charge compensation  : None.
 Solution method      : On-the-fly selection.
 Cavity type          : Scaled VdW (van der Waals Surface) (Alpha=1.100).
 Cavity algorithm     : GePol (No added spheres)
                        Default sphere list used, NSphG=   44.
                        Lebedev-Laikov grids with approx.  5.0 points / Ang**2.
                        Smoothing algorithm: Karplus/York (Gamma=1.0000).
                        Polarization charges: spherical gaussians, with
                                              point-specific exponents (IZeta= 3).
                        Self-potential: point-specific (ISelfS= 7).
                        Self-field    : sphere-specific E.n sum rule (ISelfD= 2).
 Solvent              : Chloroform, Eps=   4.711300 Eps(inf)=   2.090627
 ------------------------------------------------------------------------------
 One-electron integrals computed using PRISM.
   1 Symmetry operations used in ECPInt.
 ECPInt:  NShTT=   46360 NPrTT=  137514 LenC2=   42371 LenP2D=   90913.
 LDataN:  DoStor=T MaxTD1= 6 Len=  172
 NBasis=   720 RedAO= T EigKep=  3.51D-05  NBF=   720
 NBsUse=   720 1.00D-06 EigRej= -1.00D+00 NBFU=   720
 ExpMin= 7.01D-02 ExpMax= 4.48D+04 ExpMxC= 1.53D+03 IAcc=3 IRadAn=         5 AccDes= 0.00D+00
 Harris functional with IExCor= 1009 and IRadAn=       5 diagonalized for initial guess.
 HarFok:  IExCor= 1009 AccDes= 0.00D+00 IRadAn=         5 IDoV= 1 UseB2=F ITyADJ=14
 ICtDFT=  3500011 ScaDFX=  1.000000  1.000000  1.000000  1.000000
 FoFCou: FMM=F IPFlag=           0 FMFlag=      100000 FMFlg1=           0
         NFxFlg=           0 DoJE=T BraDBF=F KetDBF=T FulRan=T
         wScrn=  0.000000 ICntrl=     500 IOpCl=  0 I1Cent=   200000004 NGrid=           0
         NMat0=    1 NMatS0=      1 NMatT0=    0 NMatD0=    1 NMtDS0=    0 NMtDT0=    0
 Petite list used in FoFCou.
 Requested convergence on RMS density matrix=1.00D-08 within 128 cycles.
 Requested convergence on MAX density matrix=1.00D-06.
 Requested convergence on             energy=1.00D-06.
 No special actions if energy rises.
 Inv3:  Mode=1 IEnd=    26107500.
 Iteration    1 A*A^-1 deviation from unit magnitude is 6.33D-15 for   2946.
 Iteration    1 A*A^-1 deviation from orthogonality  is 4.62D-15 for   2942   1212.
 Iteration    1 A^-1*A deviation from unit magnitude is 7.33D-15 for   2942.
 Iteration    1 A^-1*A deviation from orthogonality  is 3.65D-13 for   2789   2782.
 Error on total polarization charges =  0.01462
 SCF Done:  E(RM062X) =  -1064.34111013     A.U. after   14 cycles
            NFock= 14  Conv=0.15D-08     -V/T= 2.0047

 **********************************************************************

            Population analysis using the SCF density.

 **********************************************************************

 Orbital symmetries:
       Occupied  (A) (A) (A) (A) (A) (A) (A) (A) (A) (A) (A) (A)
                 (A) (A) (A) (A) (A) (A) (A) (A) (A) (A) (A) (A)
                 (A) (A) (A) (A) (A) (A) (A) (A) (A) (A) (A) (A)
                 (A) (A) (A) (A) (A) (A) (A) (A) (A) (A) (A) (A)
                 (A) (A) (A) (A) (A) (A) (A) (A) (A) (A) (A) (A)
                 (A) (A) (A) (A) (A) (A) (A) (A) (A) (A) (A) (A)
                 (A) (A)
       Virtual   (A) (A) (A) (A) (A) (A) (A) (A) (A) (A) (A) (A)
                 (A) (A) (A) (A) (A) (A) (A) (A) (A) (A) (A) (A)
                 (A) (A) (A) (A) (A) (A) (A) (A) (A) (A) (A) (A)
                 (A) (A) (A) (A) (A) (A) (A) (A) (A) (A) (A) (A)
                 (A) (A) (A) (A) (A) (A) (A) (A) (A) (A) (A) (A)
                 (A) (A) (A) (A) (A) (A) (A) (A) (A) (A) (A) (A)
                 (A) (A) (A) (A) (A) (A) (A) (A) (A) (A) (A) (A)
                 (A) (A) (A) (A) (A) (A) (A) (A) (A) (A) (A) (A)
                 (A) (A) (A) (A) (A) (A) (A) (A) (A) (A) (A) (A)
                 (A) (A) (A) (A) (A) (A) (A) (A) (A) (A) (A) (A)
                 (A) (A) (A) (A) (A) (A) (A) (A) (A) (A) (A) (A)
                 (A) (A) (A) (A) (A) (A) (A) (A) (A) (A) (A) (A)
                 (A) (A) (A) (A) (A) (A) (A) (A) (A) (A) (A) (A)
                 (A) (A) (A) (A) (A) (A) (A) (A) (A) (A) (A) (A)
                 (A) (A) (A) (A) (A) (A) (A) (A) (A) (A) (A) (A)
                 (A) (A) (A) (A) (A) (A) (A) (A) (A) (A) (A) (A)
                 (A) (A) (A) (A) (A) (A) (A) (A) (A) (A) (A) (A)
                 (A) (A) (A) (A) (A) (A) (A) (A) (A) (A) (A) (A)
                 (A) (A) (A) (A) (A) (A) (A) (A) (A) (A) (A) (A)
                 (A) (A) (A) (A) (A) (A) (A) (A) (A) (A) (A) (A)
                 (A) (A) (A) (A) (A) (A) (A) (A) (A) (A) (A) (A)
                 (A) (A) (A) (A) (A) (A) (A) (A) (A) (A) (A) (A)
                 (A) (A) (A) (A) (A) (A) (A) (A) (A) (A) (A) (A)
                 (A) (A) (A) (A) (A) (A) (A) (A) (A) (A) (A) (A)
                 (A) (A) (A) (A) (A) (A) (A) (A) (A) (A) (A) (A)
                 (A) (A) (A) (A) (A) (A) (A) (A) (A) (A) (A) (A)
                 (A) (A) (A) (A) (A) (A) (A) (A) (A) (A) (A) (A)
                 (A) (A) (A) (A) (A) (A) (A) (A) (A) (A) (A) (A)
                 (A) (A) (A) (A) (A) (A) (A) (A) (A) (A) (A) (A)
                 (A) (A) (A) (A) (A) (A) (A) (A) (A) (A) (A) (A)
                 (A) (A) (A) (A) (A) (A) (A) (A) (A) (A) (A) (A)
                 (A) (A) (A) (A) (A) (A) (A) (A) (A) (A) (A) (A)
                 (A) (A) (A) (A) (A) (A) (A) (A) (A) (A) (A) (A)
                 (A) (A) (A) (A) (A) (A) (A) (A) (A) (A) (A) (A)
                 (A) (A) (A) (A) (A) (A) (A) (A) (A) (A) (A) (A)
                 (A) (A) (A) (A) (A) (A) (A) (A) (A) (A) (A) (A)
                 (A) (A) (A) (A) (A) (A) (A) (A) (A) (A) (A) (A)
                 (A) (A) (A) (A) (A) (A) (A) (A) (A) (A) (A) (A)
                 (A) (A) (A) (A) (A) (A) (A) (A) (A) (A) (A) (A)
                 (A) (A) (A) (A) (A) (A) (A) (A) (A) (A) (A) (A)
                 (A) (A) (A) (A) (A) (A) (A) (A) (A) (A) (A) (A)
                 (A) (A) (A) (A) (A) (A) (A) (A) (A) (A) (A) (A)
                 (A) (A) (A) (A) (A) (A) (A) (A) (A) (A) (A) (A)
                 (A) (A) (A) (A) (A) (A) (A) (A) (A) (A) (A) (A)
                 (A) (A) (A) (A) (A) (A) (A) (A) (A) (A) (A) (A)
                 (A) (A) (A) (A) (A) (A) (A) (A) (A) (A) (A) (A)
                 (A) (A) (A) (A) (A) (A) (A) (A) (A) (A) (A) (A)
                 (A) (A) (A) (A) (A) (A) (A) (A) (A) (A) (A) (A)
                 (A) (A) (A) (A) (A) (A) (A) (A) (A) (A) (A) (A)
                 (A) (A) (A) (A) (A) (A) (A) (A) (A) (A) (A) (A)
                 (A) (A) (A) (A) (A) (A) (A) (A) (A) (A) (A) (A)
                 (A) (A) (A) (A) (A) (A) (A) (A) (A) (A) (A) (A)
                 (A) (A) (A) (A) (A) (A) (A) (A) (A) (A) (A) (A)
                 (A) (A) (A) (A) (A) (A) (A) (A) (A) (A)
 The electronic state is 1-A.
 Alpha  occ. eigenvalues --  -67.01747 -19.67317 -19.61999 -19.61680 -10.68307
 Alpha  occ. eigenvalues --  -10.62102 -10.61157 -10.55700 -10.55625 -10.54512
 Alpha  occ. eigenvalues --  -10.54468 -10.54246 -10.53369 -10.53318 -10.52842
 Alpha  occ. eigenvalues --  -10.51350 -10.51007 -10.50879  -5.55196  -3.86383
 Alpha  occ. eigenvalues --   -3.86240  -3.86225  -1.22966  -1.14261  -1.13425
 Alpha  occ. eigenvalues --   -0.93640  -0.90787  -0.87866  -0.84916  -0.81016
 Alpha  occ. eigenvalues --   -0.79616  -0.79081  -0.77105  -0.76835  -0.73679
 Alpha  occ. eigenvalues --   -0.69371  -0.69094  -0.64756  -0.62026  -0.60013
 Alpha  occ. eigenvalues --   -0.58248  -0.56328  -0.55704  -0.54695  -0.53978
 Alpha  occ. eigenvalues --   -0.51691  -0.50502  -0.49989  -0.49817  -0.49076
 Alpha  occ. eigenvalues --   -0.48415  -0.47673  -0.47407  -0.46737  -0.46489
 Alpha  occ. eigenvalues --   -0.45755  -0.45481  -0.44914  -0.44576  -0.44096
 Alpha  occ. eigenvalues --   -0.43430  -0.42857  -0.42549  -0.41590  -0.41249
 Alpha  occ. eigenvalues --   -0.40933  -0.39340  -0.38728  -0.37064  -0.36580
 Alpha  occ. eigenvalues --   -0.35982  -0.34291  -0.33487  -0.31955
 Alpha virt. eigenvalues --    0.03107   0.03785   0.04946   0.06687   0.06860
 Alpha virt. eigenvalues --    0.07386   0.09254   0.09606   0.09795   0.10023
 Alpha virt. eigenvalues --    0.11021   0.11164   0.11745   0.12198   0.12836
 Alpha virt. eigenvalues --    0.13079   0.13443   0.14211   0.14537   0.14581
 Alpha virt. eigenvalues --    0.14908   0.15454   0.16027   0.16284   0.16560
 Alpha virt. eigenvalues --    0.16891   0.17174   0.17741   0.18035   0.18869
 Alpha virt. eigenvalues --    0.18987   0.19639   0.20065   0.20265   0.20821
 Alpha virt. eigenvalues --    0.20885   0.21642   0.22010   0.22864   0.23305
 Alpha virt. eigenvalues --    0.23666   0.24281   0.24575   0.25090   0.25237
 Alpha virt. eigenvalues --    0.26393   0.26563   0.26940   0.27304   0.27362
 Alpha virt. eigenvalues --    0.28707   0.29165   0.29607   0.30792   0.30975
 Alpha virt. eigenvalues --    0.31305   0.31784   0.32532   0.33063   0.34036
 Alpha virt. eigenvalues --    0.34438   0.34780   0.34902   0.35470   0.36992
 Alpha virt. eigenvalues --    0.37636   0.37915   0.38495   0.38938   0.39468
 Alpha virt. eigenvalues --    0.39843   0.40256   0.40367   0.40818   0.41302
 Alpha virt. eigenvalues --    0.42008   0.42738   0.43352   0.43653   0.43995
 Alpha virt. eigenvalues --    0.44325   0.44717   0.45183   0.45625   0.46017
 Alpha virt. eigenvalues --    0.46387   0.46668   0.47153   0.47454   0.48025
 Alpha virt. eigenvalues --    0.48334   0.48626   0.48978   0.49162   0.49519
 Alpha virt. eigenvalues --    0.49936   0.50075   0.50545   0.51099   0.51285
 Alpha virt. eigenvalues --    0.52159   0.52575   0.52844   0.53211   0.53391
 Alpha virt. eigenvalues --    0.53534   0.54207   0.55000   0.55354   0.56345
 Alpha virt. eigenvalues --    0.56685   0.57163   0.57776   0.58418   0.58787
 Alpha virt. eigenvalues --    0.59254   0.59881   0.60908   0.61565   0.62891
 Alpha virt. eigenvalues --    0.62983   0.63691   0.64367   0.65008   0.65719
 Alpha virt. eigenvalues --    0.66116   0.67381   0.67849   0.68938   0.69435
 Alpha virt. eigenvalues --    0.69803   0.70512   0.72029   0.72509   0.72976
 Alpha virt. eigenvalues --    0.73698   0.75211   0.76419   0.76793   0.77641
 Alpha virt. eigenvalues --    0.78322   0.79113   0.79823   0.80629   0.82101
 Alpha virt. eigenvalues --    0.82386   0.82777   0.84009   0.84361   0.85029
 Alpha virt. eigenvalues --    0.86494   0.87770   0.88055   0.89608   0.90359
 Alpha virt. eigenvalues --    0.90695   0.91327   0.91979   0.93343   0.93776
 Alpha virt. eigenvalues --    0.94291   0.95568   0.96041   0.96964   0.97532
 Alpha virt. eigenvalues --    0.98904   0.99173   1.00427   1.00886   1.01605
 Alpha virt. eigenvalues --    1.02406   1.03266   1.03813   1.04651   1.04714
 Alpha virt. eigenvalues --    1.05009   1.05612   1.06279   1.06899   1.07398
 Alpha virt. eigenvalues --    1.08389   1.09225   1.09552   1.10226   1.10857
 Alpha virt. eigenvalues --    1.11574   1.13186   1.13491   1.14482   1.14815
 Alpha virt. eigenvalues --    1.15516   1.16632   1.17767   1.18249   1.20115
 Alpha virt. eigenvalues --    1.20938   1.21932   1.22157   1.23016   1.24655
 Alpha virt. eigenvalues --    1.25291   1.26769   1.26910   1.28175   1.28740
 Alpha virt. eigenvalues --    1.30187   1.30465   1.32104   1.32253   1.32824
 Alpha virt. eigenvalues --    1.35553   1.36010   1.36342   1.37811   1.38561
 Alpha virt. eigenvalues --    1.39194   1.40338   1.40801   1.41785   1.42166
 Alpha virt. eigenvalues --    1.44019   1.44435   1.44785   1.46121   1.46815
 Alpha virt. eigenvalues --    1.48325   1.50222   1.50709   1.51054   1.53743
 Alpha virt. eigenvalues --    1.54391   1.55337   1.55815   1.56332   1.56586
 Alpha virt. eigenvalues --    1.56796   1.57442   1.58750   1.58901   1.59236
 Alpha virt. eigenvalues --    1.59575   1.59981   1.60121   1.60724   1.61643
 Alpha virt. eigenvalues --    1.62159   1.62905   1.63446   1.63846   1.65041
 Alpha virt. eigenvalues --    1.65325   1.65974   1.66518   1.66715   1.67320
 Alpha virt. eigenvalues --    1.67888   1.67966   1.68325   1.68779   1.69066
 Alpha virt. eigenvalues --    1.69517   1.69848   1.70806   1.71676   1.73659
 Alpha virt. eigenvalues --    1.74548   1.75350   1.75833   1.76683   1.77668
 Alpha virt. eigenvalues --    1.78686   1.79473   1.81172   1.82374   1.82684
 Alpha virt. eigenvalues --    1.83212   1.84786   1.85511   1.86377   1.87470
 Alpha virt. eigenvalues --    1.88251   1.89037   1.89683   1.90761   1.92240
 Alpha virt. eigenvalues --    1.92499   1.94111   1.95104   1.96185   1.98169
 Alpha virt. eigenvalues --    1.99227   2.00069   2.01484   2.01777   2.02362
 Alpha virt. eigenvalues --    2.03057   2.04296   2.04700   2.05432   2.06078
 Alpha virt. eigenvalues --    2.07170   2.07801   2.08083   2.09116   2.10339
 Alpha virt. eigenvalues --    2.10563   2.11164   2.11708   2.13428   2.14738
 Alpha virt. eigenvalues --    2.15553   2.16817   2.17891   2.18182   2.19731
 Alpha virt. eigenvalues --    2.20622   2.21405   2.21987   2.23088   2.24782
 Alpha virt. eigenvalues --    2.25085   2.25857   2.25981   2.27917   2.28540
 Alpha virt. eigenvalues --    2.29678   2.30263   2.30705   2.31791   2.32969
 Alpha virt. eigenvalues --    2.34758   2.35251   2.35706   2.36792   2.37544
 Alpha virt. eigenvalues --    2.37832   2.38005   2.39019   2.39632   2.40147
 Alpha virt. eigenvalues --    2.40724   2.41584   2.41905   2.42328   2.42957
 Alpha virt. eigenvalues --    2.43423   2.43600   2.44464   2.44479   2.45536
 Alpha virt. eigenvalues --    2.46807   2.47552   2.48091   2.48846   2.49787
 Alpha virt. eigenvalues --    2.51453   2.51930   2.52937   2.53618   2.55279
 Alpha virt. eigenvalues --    2.55647   2.57510   2.57917   2.58060   2.58180
 Alpha virt. eigenvalues --    2.58936   2.59780   2.60692   2.61051   2.61468
 Alpha virt. eigenvalues --    2.62364   2.62559   2.62877   2.63722   2.64031
 Alpha virt. eigenvalues --    2.64638   2.65429   2.66453   2.66832   2.67573
 Alpha virt. eigenvalues --    2.68255   2.68584   2.69307   2.70499   2.70763
 Alpha virt. eigenvalues --    2.71297   2.72050   2.72477   2.73184   2.73798
 Alpha virt. eigenvalues --    2.74064   2.74932   2.76964   2.78120   2.79032
 Alpha virt. eigenvalues --    2.79562   2.80221   2.81184   2.82751   2.83672
 Alpha virt. eigenvalues --    2.84151   2.85068   2.86817   2.87129   2.88726
 Alpha virt. eigenvalues --    2.89938   2.90285   2.91078   2.92034   2.94434
 Alpha virt. eigenvalues --    2.95962   2.96351   2.97297   2.98253   2.98685
 Alpha virt. eigenvalues --    2.99784   3.01580   3.03452   3.03813   3.05255
 Alpha virt. eigenvalues --    3.05623   3.07557   3.08409   3.09767   3.09855
 Alpha virt. eigenvalues --    3.11026   3.11571   3.12227   3.12531   3.13142
 Alpha virt. eigenvalues --    3.13715   3.14336   3.14809   3.15093   3.15945
 Alpha virt. eigenvalues --    3.17253   3.18024   3.18754   3.19254   3.20051
 Alpha virt. eigenvalues --    3.20657   3.22441   3.22789   3.23281   3.23551
 Alpha virt. eigenvalues --    3.24719   3.25124   3.25253   3.25683   3.26382
 Alpha virt. eigenvalues --    3.27395   3.27806   3.28077   3.29012   3.29441
 Alpha virt. eigenvalues --    3.29524   3.30428   3.31133   3.31683   3.32676
 Alpha virt. eigenvalues --    3.32828   3.33052   3.33386   3.34518   3.35645
 Alpha virt. eigenvalues --    3.35704   3.36905   3.38106   3.38513   3.39305
 Alpha virt. eigenvalues --    3.40251   3.41020   3.42173   3.42457   3.43144
 Alpha virt. eigenvalues --    3.43504   3.44005   3.44369   3.44972   3.45170
 Alpha virt. eigenvalues --    3.46295   3.47071   3.47670   3.50331   3.50574
 Alpha virt. eigenvalues --    3.51375   3.52169   3.53284   3.53707   3.54972
 Alpha virt. eigenvalues --    3.55940   3.56743   3.57564   3.58070   3.58414
 Alpha virt. eigenvalues --    3.59792   3.60404   3.61185   3.61886   3.62268
 Alpha virt. eigenvalues --    3.63400   3.63815   3.63997   3.65363   3.66364
 Alpha virt. eigenvalues --    3.66449   3.67334   3.67878   3.68621   3.70276
 Alpha virt. eigenvalues --    3.72455   3.74631   3.75637   3.76519   3.77946
 Alpha virt. eigenvalues --    3.79281   3.79844   3.80941   3.82228   3.84931
 Alpha virt. eigenvalues --    3.86148   3.87378   3.88286   3.91096   3.92753
 Alpha virt. eigenvalues --    3.93230   3.94758   3.96870   3.99391   4.00484
 Alpha virt. eigenvalues --    4.02682   4.04550   4.06008   4.06965   4.09199
 Alpha virt. eigenvalues --    4.10230   4.13938   4.14847   4.15991   4.17317
 Alpha virt. eigenvalues --    4.20012   4.21743   4.23479   4.24804   4.26844
 Alpha virt. eigenvalues --    4.27202   4.27804   4.28664   4.29088   4.29813
 Alpha virt. eigenvalues --    4.29893   4.31426   4.33630   4.35081   4.35954
 Alpha virt. eigenvalues --    4.37131   4.37698   4.38623   4.39026   4.40270
 Alpha virt. eigenvalues --    4.41588   4.42865   4.43852   4.47573   4.48811
 Alpha virt. eigenvalues --    4.50595   4.52598   4.54233   4.57351   4.58353
 Alpha virt. eigenvalues --    4.60381   4.63606   4.66519   4.68311   4.69682
 Alpha virt. eigenvalues --    4.71766   4.75923   4.76821   4.79531   4.83908
 Alpha virt. eigenvalues --    4.85679   4.86500   4.90453   4.95403   5.01764
 Alpha virt. eigenvalues --    5.02928   5.06417   5.16677   5.21865   5.22217
 Alpha virt. eigenvalues --    5.24459   5.25513   5.26578   5.29026   5.36160
 Alpha virt. eigenvalues --    5.48930   5.49744   5.52058   5.60730   5.81646
 Alpha virt. eigenvalues --    5.85469   5.86597   5.88582   5.91766   6.02171
 Alpha virt. eigenvalues --    6.14403   6.17800   6.22604   6.36976   6.38699
 Alpha virt. eigenvalues --    6.51323   6.61570   6.62526   6.64501   6.65939
 Alpha virt. eigenvalues --    6.69925   6.75815   6.81432   6.85645   6.89340
 Alpha virt. eigenvalues --    6.92277   6.98368   7.04330   7.05910   7.15861
 Alpha virt. eigenvalues --    7.19723   7.34737   7.42930  12.17745  22.28537
 Alpha virt. eigenvalues --   22.37862  22.42038  22.44309  22.45204  22.52981
 Alpha virt. eigenvalues --   22.60735  22.63155  22.68793  22.78256  22.80562
 Alpha virt. eigenvalues --   22.90692  22.90949  23.45136  44.06449  44.50478
 Alpha virt. eigenvalues --   44.53784
          Condensed to atoms (all electrons):
               1          2          3          4          5          6
     1  C    5.399021   0.019472  -0.043514   0.011793  -0.051862   0.469753
     2  C    0.019472   5.878009   0.069199  -0.027860  -0.005996  -0.054568
     3  C   -0.043514   0.069199   5.788541  -0.223622   0.080529  -0.032822
     4  C    0.011793  -0.027860  -0.223622   6.247598   0.090076   0.007343
     5  C   -0.051862  -0.005996   0.080529   0.090076   4.440428  -0.005888
     6  H    0.469753  -0.054568  -0.032822   0.007343  -0.005888   0.513949
     7  H   -0.022326   0.416652  -0.047695  -0.013437   0.000623   0.005965
     8  H    0.003834  -0.024028  -0.029324   0.389812  -0.010406  -0.000141
     9  H   -0.000198   0.010523  -0.028369   0.376915  -0.008114   0.000166
    10  O    0.177712  -0.031318   0.028923  -0.158652   0.385313  -0.037703
    11  O    0.001336  -0.000884   0.015230  -0.156016   0.738929   0.000240
    12  C    0.199272  -0.026836   0.022221  -0.007179   0.005104  -0.047527
    13  C   -0.038469   0.023084  -0.002715  -0.000134  -0.001618   0.008249
    14  C   -0.054120   0.207036  -0.017390  -0.002266   0.002408  -0.008685
    15  O    0.007251  -0.034296   0.156068  -0.018314  -0.002895  -0.000139
    16  Si   0.001455  -0.004954  -0.074101   0.015725  -0.001167  -0.000001
    17  C    0.000080  -0.000010  -0.004670   0.006814  -0.000106  -0.000002
    18  C   -0.001081  -0.000595   0.020424  -0.012055   0.000010  -0.000019
    19  C   -0.000055   0.001131  -0.000019  -0.000944  -0.000032   0.000001
    20  H   -0.000363  -0.001426   0.001800  -0.003491  -0.000416  -0.000001
    21  H    0.000380   0.001602  -0.001227   0.000723   0.000044  -0.000002
    22  H   -0.000004   0.000318  -0.000856   0.000339  -0.000007   0.000000
    23  H    0.000001  -0.000011  -0.000032   0.000031   0.000000   0.000000
    24  H    0.000015  -0.000505   0.000780   0.000082  -0.000001   0.000000
    25  H    0.000005  -0.000066  -0.000004   0.000147   0.000002   0.000000
    26  H    0.000000  -0.000116   0.003811  -0.003171  -0.000015   0.000000
    27  H   -0.000002   0.000563  -0.003888   0.003503   0.000497   0.000000
    28  H   -0.000005   0.000020   0.000129  -0.000318  -0.000013   0.000000
    29  H   -0.013886  -0.043893   0.011881  -0.000663   0.000067   0.000548
    30  H   -0.003216  -0.025718  -0.023124  -0.000989   0.000201   0.003035
    31  H    0.013338  -0.061696   0.007335   0.002800  -0.000370  -0.000100
    32  H   -0.027494  -0.018991  -0.001573   0.000820  -0.000341   0.000364
    33  H   -0.066063   0.015337  -0.000471   0.000578  -0.000068  -0.007385
    34  H    0.011205  -0.000886   0.000050  -0.000036   0.000060  -0.000211
    35  H   -0.029803   0.026759   0.000067   0.000317   0.000251  -0.000595
    36  H    0.019830  -0.013240  -0.000789   0.001820  -0.002411   0.000446
    37  C    0.021600  -0.064043   0.169523  -0.053081   0.001222   0.010207
    38  C   -0.004200   0.013135  -0.032609  -0.001120   0.000217  -0.000219
    39  C    0.000718  -0.001018  -0.007756   0.000271   0.000065   0.000186
    40  H    0.005526  -0.021519  -0.010252  -0.013911   0.001422  -0.009696
    41  H   -0.007811   0.010194  -0.076460   0.005863   0.000078  -0.000087
    42  H    0.000023  -0.000535   0.004321  -0.002646   0.000468  -0.000009
    43  H    0.000004   0.000024  -0.000182  -0.000036   0.000013   0.000000
    44  H    0.000003   0.000091  -0.002235   0.000091  -0.000011   0.000072
               7          8          9         10         11         12
     1  C   -0.022326   0.003834  -0.000198   0.177712   0.001336   0.199272
     2  C    0.416652  -0.024028   0.010523  -0.031318  -0.000884  -0.026836
     3  C   -0.047695  -0.029324  -0.028369   0.028923   0.015230   0.022221
     4  C   -0.013437   0.389812   0.376915  -0.158652  -0.156016  -0.007179
     5  C    0.000623  -0.010406  -0.008114   0.385313   0.738929   0.005104
     6  H    0.005965  -0.000141   0.000166  -0.037703   0.000240  -0.047527
     7  H    0.523229   0.001341   0.000039   0.001993  -0.000041  -0.016842
     8  H    0.001341   0.466979  -0.012121   0.002013   0.004557  -0.000112
     9  H    0.000039  -0.012121   0.441327   0.005580   0.010094   0.000012
    10  O    0.001993   0.002013   0.005580   8.002583  -0.102070  -0.044357
    11  O   -0.000041   0.004557   0.010094  -0.102070   7.856650  -0.000340
    12  C   -0.016842  -0.000112   0.000012  -0.044357  -0.000340   5.216315
    13  C   -0.003409   0.000295   0.000017  -0.002321   0.000047   0.222429
    14  C   -0.037985   0.000297  -0.000003   0.004410   0.000030   0.021226
    15  O   -0.005319  -0.007284  -0.000862  -0.000376  -0.000200  -0.000193
    16  Si   0.004795   0.009510  -0.002498  -0.000036  -0.000158  -0.000343
    17  C   -0.000101  -0.005622  -0.004317  -0.000033  -0.000083   0.000002
    18  C   -0.006156  -0.001507   0.000594  -0.000033   0.000007   0.000132
    19  C    0.000222   0.000161   0.000073   0.000000   0.000000   0.000004
    20  H   -0.000676   0.004298   0.000133   0.000031  -0.000009   0.000062
    21  H   -0.001551  -0.000441  -0.000029  -0.000003   0.000000  -0.000023
    22  H    0.000434   0.000085  -0.000019   0.000000   0.000000   0.000002
    23  H   -0.000009   0.000002   0.000000   0.000000   0.000000   0.000000
    24  H    0.000072   0.000002  -0.000005   0.000000   0.000000  -0.000001
    25  H   -0.000003  -0.000016  -0.000002   0.000000   0.000000   0.000000
    26  H    0.000007   0.000169   0.000582   0.000001   0.000004   0.000000
    27  H   -0.000076   0.000951  -0.002779   0.000000   0.000025   0.000001
    28  H   -0.000008   0.000007   0.000213   0.000000  -0.000001   0.000000
    29  H   -0.009350   0.000007   0.000012  -0.000025   0.000000   0.006114
    30  H    0.007431   0.000012  -0.000009   0.000099   0.000001  -0.006940
    31  H   -0.003392   0.000005  -0.000041  -0.000174   0.000000   0.000015
    32  H    0.002834  -0.000020  -0.000004   0.003866   0.000010   0.422691
    33  H   -0.000783  -0.000001  -0.000011   0.002672   0.000007   0.443489
    34  H    0.000407  -0.000001   0.000000  -0.000044  -0.000001  -0.041508
    35  H   -0.014176  -0.000035  -0.000007   0.000896   0.000001  -0.032068
    36  H    0.003216  -0.000084   0.000000   0.003950  -0.000027  -0.055810
    37  C    0.012797   0.006530  -0.007358  -0.006300   0.003179  -0.001254
    38  C   -0.000764   0.000358   0.000947   0.000629  -0.001210   0.000025
    39  C   -0.000018   0.000114  -0.001168  -0.000268   0.000536   0.000005
    40  H   -0.000198  -0.000174   0.000998   0.003749  -0.000860   0.001597
    41  H   -0.000563  -0.000133  -0.000055   0.000159  -0.000018   0.000089
    42  H    0.000020  -0.000085   0.001236   0.000012   0.000022   0.000004
    43  H    0.000000   0.000000   0.000017  -0.000002   0.000007   0.000000
    44  H    0.000003  -0.000019   0.000226  -0.000052   0.000102   0.000003
              13         14         15         16         17         18
     1  C   -0.038469  -0.054120   0.007251   0.001455   0.000080  -0.001081
     2  C    0.023084   0.207036  -0.034296  -0.004954  -0.000010  -0.000595
     3  C   -0.002715  -0.017390   0.156068  -0.074101  -0.004670   0.020424
     4  C   -0.000134  -0.002266  -0.018314   0.015725   0.006814  -0.012055
     5  C   -0.001618   0.002408  -0.002895  -0.001167  -0.000106   0.000010
     6  H    0.008249  -0.008685  -0.000139  -0.000001  -0.000002  -0.000019
     7  H   -0.003409  -0.037985  -0.005319   0.004795  -0.000101  -0.006156
     8  H    0.000295   0.000297  -0.007284   0.009510  -0.005622  -0.001507
     9  H    0.000017  -0.000003  -0.000862  -0.002498  -0.004317   0.000594
    10  O   -0.002321   0.004410  -0.000376  -0.000036  -0.000033  -0.000033
    11  O    0.000047   0.000030  -0.000200  -0.000158  -0.000083   0.000007
    12  C    0.222429   0.021226  -0.000193  -0.000343   0.000002   0.000132
    13  C    5.109381  -0.007939  -0.000004   0.000186  -0.000003   0.000075
    14  C   -0.007939   5.147688  -0.015151  -0.001201  -0.000155  -0.000777
    15  O   -0.000004  -0.015151   8.069315   0.375740  -0.019729  -0.027737
    16  Si   0.000186  -0.001201   0.375740  12.455441   0.350794   0.327684
    17  C   -0.000003  -0.000155  -0.019729   0.350794   5.139763  -0.046159
    18  C    0.000075  -0.000777  -0.027737   0.327684  -0.046159   5.193834
    19  C   -0.000003  -0.000098  -0.018334   0.391491  -0.046025  -0.044918
    20  H   -0.000070   0.000531   0.000800  -0.036003   0.001478   0.393140
    21  H    0.000007  -0.001349   0.000147  -0.040624   0.003422   0.392807
    22  H   -0.000002  -0.000004   0.001241  -0.022563   0.001103   0.382565
    23  H    0.000000  -0.000023   0.001325  -0.043359   0.002891   0.002985
    24  H    0.000000  -0.000131  -0.000093  -0.031760   0.002969   0.000370
    25  H    0.000000   0.000013   0.000653  -0.034330   0.000758   0.003143
    26  H    0.000000   0.000009  -0.001052  -0.040809   0.395271   0.003121
    27  H   -0.000001   0.000006   0.001363  -0.030428   0.389206   0.000969
    28  H    0.000000   0.000005   0.001252  -0.032792   0.386647   0.002222
    29  H   -0.001763   0.425530   0.000229  -0.000594   0.000000   0.000312
    30  H    0.000810   0.415294   0.000612   0.000135   0.000006  -0.000028
    31  H   -0.000208   0.422366   0.008539  -0.000297   0.000194  -0.000262
    32  H   -0.042739   0.001018  -0.000009  -0.000002   0.000000  -0.000001
    33  H   -0.039103  -0.000736   0.000011   0.000005   0.000000  -0.000002
    34  H    0.416790   0.000141   0.000000   0.000000   0.000000   0.000000
    35  H    0.410745  -0.000722   0.000043  -0.000002   0.000002   0.000050
    36  H    0.414449   0.000399   0.000002  -0.000023   0.000000  -0.000005
    37  C    0.000221  -0.001663  -0.097291   0.010292   0.000477  -0.001445
    38  C    0.000002   0.000202   0.012395   0.001056  -0.002466   0.000328
    39  C    0.000000  -0.000116   0.003023  -0.000115   0.000176   0.000019
    40  H   -0.000109   0.002418   0.004180  -0.000192   0.000022   0.000031
    41  H   -0.000019  -0.003153   0.001202  -0.000848   0.000045   0.000062
    42  H    0.000000   0.000120   0.002849  -0.001099   0.000006   0.000182
    43  H    0.000000   0.000001   0.000020   0.000006  -0.000004   0.000000
    44  H    0.000000  -0.000006  -0.000030   0.000008  -0.000003   0.000000
              19         20         21         22         23         24
     1  C   -0.000055  -0.000363   0.000380  -0.000004   0.000001   0.000015
     2  C    0.001131  -0.001426   0.001602   0.000318  -0.000011  -0.000505
     3  C   -0.000019   0.001800  -0.001227  -0.000856  -0.000032   0.000780
     4  C   -0.000944  -0.003491   0.000723   0.000339   0.000031   0.000082
     5  C   -0.000032  -0.000416   0.000044  -0.000007   0.000000  -0.000001
     6  H    0.000001  -0.000001  -0.000002   0.000000   0.000000   0.000000
     7  H    0.000222  -0.000676  -0.001551   0.000434  -0.000009   0.000072
     8  H    0.000161   0.004298  -0.000441   0.000085   0.000002   0.000002
     9  H    0.000073   0.000133  -0.000029  -0.000019   0.000000  -0.000005
    10  O    0.000000   0.000031  -0.000003   0.000000   0.000000   0.000000
    11  O    0.000000  -0.000009   0.000000   0.000000   0.000000   0.000000
    12  C    0.000004   0.000062  -0.000023   0.000002   0.000000  -0.000001
    13  C   -0.000003  -0.000070   0.000007  -0.000002   0.000000   0.000000
    14  C   -0.000098   0.000531  -0.001349  -0.000004  -0.000023  -0.000131
    15  O   -0.018334   0.000800   0.000147   0.001241   0.001325  -0.000093
    16  Si   0.391491  -0.036003  -0.040624  -0.022563  -0.043359  -0.031760
    17  C   -0.046025   0.001478   0.003422   0.001103   0.002891   0.002969
    18  C   -0.044918   0.393140   0.392807   0.382565   0.002985   0.000370
    19  C    5.103972   0.003050   0.000966   0.000095   0.393471   0.390107
    20  H    0.003050   0.506351  -0.020864  -0.014225  -0.000173  -0.000121
    21  H    0.000966  -0.020864   0.514455  -0.015034   0.000265   0.000771
    22  H    0.000095  -0.014225  -0.015034   0.491927   0.000223   0.000283
    23  H    0.393471  -0.000173   0.000265   0.000223   0.525967  -0.019762
    24  H    0.390107  -0.000121   0.000771   0.000283  -0.019762   0.518241
    25  H    0.391417  -0.000090  -0.000193  -0.000133  -0.018311  -0.017992
    26  H    0.001855  -0.000194  -0.000095  -0.000128   0.000237  -0.000176
    27  H    0.002622   0.000578  -0.000168   0.000196  -0.000140  -0.000092
    28  H    0.001811   0.000185  -0.000194   0.000157  -0.000159  -0.000126
    29  H    0.000023  -0.000006   0.000048  -0.000004   0.000000  -0.000008
    30  H    0.000008  -0.000005   0.000020   0.000001   0.000000   0.000012
    31  H   -0.001035  -0.000016   0.000417  -0.000005   0.000054   0.000875
    32  H    0.000000   0.000000  -0.000004   0.000000   0.000000   0.000000
    33  H    0.000000   0.000000   0.000001   0.000000   0.000000   0.000000
    34  H    0.000000   0.000004  -0.000002   0.000000   0.000000   0.000000
    35  H   -0.000001   0.000007   0.000190   0.000012   0.000000   0.000000
    36  H    0.000000   0.000036  -0.000006  -0.000001   0.000000   0.000000
    37  C   -0.000376  -0.000040   0.000017   0.000024   0.000003   0.000084
    38  C   -0.000102   0.000002  -0.000009  -0.000003  -0.000005   0.000017
    39  C   -0.000010   0.000000   0.000000   0.000000   0.000001  -0.000001
    40  H    0.000005  -0.000002   0.000001   0.000000   0.000000  -0.000001
    41  H   -0.000041  -0.000002   0.000001  -0.000001   0.000002  -0.000002
    42  H   -0.000131  -0.000008  -0.000003  -0.000003   0.000017  -0.000007
    43  H    0.000001   0.000000   0.000000   0.000000   0.000000   0.000000
    44  H    0.000000   0.000000   0.000000   0.000000   0.000000   0.000000
              25         26         27         28         29         30
     1  C    0.000005   0.000000  -0.000002  -0.000005  -0.013886  -0.003216
     2  C   -0.000066  -0.000116   0.000563   0.000020  -0.043893  -0.025718
     3  C   -0.000004   0.003811  -0.003888   0.000129   0.011881  -0.023124
     4  C    0.000147  -0.003171   0.003503  -0.000318  -0.000663  -0.000989
     5  C    0.000002  -0.000015   0.000497  -0.000013   0.000067   0.000201
     6  H    0.000000   0.000000   0.000000   0.000000   0.000548   0.003035
     7  H   -0.000003   0.000007  -0.000076  -0.000008  -0.009350   0.007431
     8  H   -0.000016   0.000169   0.000951   0.000007   0.000007   0.000012
     9  H   -0.000002   0.000582  -0.002779   0.000213   0.000012  -0.000009
    10  O    0.000000   0.000001   0.000000   0.000000  -0.000025   0.000099
    11  O    0.000000   0.000004   0.000025  -0.000001   0.000000   0.000001
    12  C    0.000000   0.000000   0.000001   0.000000   0.006114  -0.006940
    13  C    0.000000   0.000000  -0.000001   0.000000  -0.001763   0.000810
    14  C    0.000013   0.000009   0.000006   0.000005   0.425530   0.415294
    15  O    0.000653  -0.001052   0.001363   0.001252   0.000229   0.000612
    16  Si  -0.034330  -0.040809  -0.030428  -0.032792  -0.000594   0.000135
    17  C    0.000758   0.395271   0.389206   0.386647   0.000000   0.000006
    18  C    0.003143   0.003121   0.000969   0.002222   0.000312  -0.000028
    19  C    0.391417   0.001855   0.002622   0.001811   0.000023   0.000008
    20  H   -0.000090  -0.000194   0.000578   0.000185  -0.000006  -0.000005
    21  H   -0.000193  -0.000095  -0.000168  -0.000194   0.000048   0.000020
    22  H   -0.000133  -0.000128   0.000196   0.000157  -0.000004   0.000001
    23  H   -0.018311   0.000237  -0.000140  -0.000159   0.000000   0.000000
    24  H   -0.017992  -0.000176  -0.000092  -0.000126  -0.000008   0.000012
    25  H    0.515031   0.000779  -0.000128   0.000245   0.000000  -0.000001
    26  H    0.000779   0.508105  -0.018037  -0.016028   0.000000   0.000000
    27  H   -0.000128  -0.018037   0.509422  -0.018035   0.000000   0.000000
    28  H    0.000245  -0.016028  -0.018035   0.511233   0.000000   0.000000
    29  H    0.000000   0.000000   0.000000   0.000000   0.502027  -0.023388
    30  H   -0.000001   0.000000   0.000000   0.000000  -0.023388   0.506393
    31  H    0.000013  -0.000005  -0.000003  -0.000007  -0.019745  -0.023299
    32  H    0.000000   0.000000   0.000000   0.000000  -0.007254   0.000143
    33  H    0.000000   0.000000   0.000000   0.000000   0.000240  -0.000118
    34  H    0.000000   0.000000   0.000000   0.000000  -0.000022  -0.000004
    35  H    0.000000   0.000000   0.000000   0.000000   0.001327  -0.000112
    36  H    0.000000   0.000000   0.000000   0.000000  -0.000063  -0.000013
    37  C    0.000031  -0.000147   0.000020  -0.000053   0.000181   0.009072
    38  C   -0.000132  -0.000261   0.000074   0.000090   0.000045  -0.000009
    39  C    0.000011   0.000124   0.000074  -0.000004   0.000000  -0.000031
    40  H    0.000002   0.000003  -0.000007   0.000000  -0.000063   0.000437
    41  H   -0.000020   0.000003   0.000000   0.000000   0.000375  -0.006005
    42  H    0.000583   0.000987  -0.000074  -0.000008   0.000001   0.000027
    43  H   -0.000001   0.000000  -0.000001   0.000000   0.000000   0.000000
    44  H    0.000000   0.000004   0.000000   0.000000   0.000000   0.000001
              31         32         33         34         35         36
     1  C    0.013338  -0.027494  -0.066063   0.011205  -0.029803   0.019830
     2  C   -0.061696  -0.018991   0.015337  -0.000886   0.026759  -0.013240
     3  C    0.007335  -0.001573  -0.000471   0.000050   0.000067  -0.000789
     4  C    0.002800   0.000820   0.000578  -0.000036   0.000317   0.001820
     5  C   -0.000370  -0.000341  -0.000068   0.000060   0.000251  -0.002411
     6  H   -0.000100   0.000364  -0.007385  -0.000211  -0.000595   0.000446
     7  H   -0.003392   0.002834  -0.000783   0.000407  -0.014176   0.003216
     8  H    0.000005  -0.000020  -0.000001  -0.000001  -0.000035  -0.000084
     9  H   -0.000041  -0.000004  -0.000011   0.000000  -0.000007   0.000000
    10  O   -0.000174   0.003866   0.002672  -0.000044   0.000896   0.003950
    11  O    0.000000   0.000010   0.000007  -0.000001   0.000001  -0.000027
    12  C    0.000015   0.422691   0.443489  -0.041508  -0.032068  -0.055810
    13  C   -0.000208  -0.042739  -0.039103   0.416790   0.410745   0.414449
    14  C    0.422366   0.001018  -0.000736   0.000141  -0.000722   0.000399
    15  O    0.008539  -0.000009   0.000011   0.000000   0.000043   0.000002
    16  Si  -0.000297  -0.000002   0.000005   0.000000  -0.000002  -0.000023
    17  C    0.000194   0.000000   0.000000   0.000000   0.000002   0.000000
    18  C   -0.000262  -0.000001  -0.000002   0.000000   0.000050  -0.000005
    19  C   -0.001035   0.000000   0.000000   0.000000  -0.000001   0.000000
    20  H   -0.000016   0.000000   0.000000   0.000004   0.000007   0.000036
    21  H    0.000417  -0.000004   0.000001  -0.000002   0.000190  -0.000006
    22  H   -0.000005   0.000000   0.000000   0.000000   0.000012  -0.000001
    23  H    0.000054   0.000000   0.000000   0.000000   0.000000   0.000000
    24  H    0.000875   0.000000   0.000000   0.000000   0.000000   0.000000
    25  H    0.000013   0.000000   0.000000   0.000000   0.000000   0.000000
    26  H   -0.000005   0.000000   0.000000   0.000000   0.000000   0.000000
    27  H   -0.000003   0.000000   0.000000   0.000000   0.000000   0.000000
    28  H   -0.000007   0.000000   0.000000   0.000000   0.000000   0.000000
    29  H   -0.019745  -0.007254   0.000240  -0.000022   0.001327  -0.000063
    30  H   -0.023299   0.000143  -0.000118  -0.000004  -0.000112  -0.000013
    31  H    0.488715   0.000474   0.000024   0.000001  -0.000016   0.000022
    32  H    0.000474   0.517923  -0.017353  -0.003859  -0.002637   0.005956
    33  H    0.000024  -0.017353   0.510852  -0.005218   0.005600  -0.001628
    34  H    0.000001  -0.003859  -0.005218   0.509448  -0.021885  -0.022119
    35  H   -0.000016  -0.002637   0.005600  -0.021885   0.539643  -0.028849
    36  H    0.000022   0.005956  -0.001628  -0.022119  -0.028849   0.516195
    37  C   -0.007274   0.000043  -0.000137   0.000002  -0.000105   0.000052
    38  C   -0.000141  -0.000002  -0.000008   0.000000   0.000003  -0.000003
    39  C    0.000038   0.000000   0.000000   0.000000   0.000000   0.000000
    40  H   -0.000027  -0.000019  -0.000027   0.000002  -0.000009  -0.000001
    41  H    0.000431   0.000001   0.000008   0.000000   0.000005   0.000000
    42  H    0.000002   0.000000   0.000000   0.000000   0.000000   0.000000
    43  H    0.000000   0.000000   0.000000   0.000000   0.000000   0.000000
    44  H    0.000000   0.000000   0.000000   0.000000   0.000000   0.000000
              37         38         39         40         41         42
     1  C    0.021600  -0.004200   0.000718   0.005526  -0.007811   0.000023
     2  C   -0.064043   0.013135  -0.001018  -0.021519   0.010194  -0.000535
     3  C    0.169523  -0.032609  -0.007756  -0.010252  -0.076460   0.004321
     4  C   -0.053081  -0.001120   0.000271  -0.013911   0.005863  -0.002646
     5  C    0.001222   0.000217   0.000065   0.001422   0.000078   0.000468
     6  H    0.010207  -0.000219   0.000186  -0.009696  -0.000087  -0.000009
     7  H    0.012797  -0.000764  -0.000018  -0.000198  -0.000563   0.000020
     8  H    0.006530   0.000358   0.000114  -0.000174  -0.000133  -0.000085
     9  H   -0.007358   0.000947  -0.001168   0.000998  -0.000055   0.001236
    10  O   -0.006300   0.000629  -0.000268   0.003749   0.000159   0.000012
    11  O    0.003179  -0.001210   0.000536  -0.000860  -0.000018   0.000022
    12  C   -0.001254   0.000025   0.000005   0.001597   0.000089   0.000004
    13  C    0.000221   0.000002   0.000000  -0.000109  -0.000019   0.000000
    14  C   -0.001663   0.000202  -0.000116   0.002418  -0.003153   0.000120
    15  O   -0.097291   0.012395   0.003023   0.004180   0.001202   0.002849
    16  Si   0.010292   0.001056  -0.000115  -0.000192  -0.000848  -0.001099
    17  C    0.000477  -0.002466   0.000176   0.000022   0.000045   0.000006
    18  C   -0.001445   0.000328   0.000019   0.000031   0.000062   0.000182
    19  C   -0.000376  -0.000102  -0.000010   0.000005  -0.000041  -0.000131
    20  H   -0.000040   0.000002   0.000000  -0.000002  -0.000002  -0.000008
    21  H    0.000017  -0.000009   0.000000   0.000001   0.000001  -0.000003
    22  H    0.000024  -0.000003   0.000000   0.000000  -0.000001  -0.000003
    23  H    0.000003  -0.000005   0.000001   0.000000   0.000002   0.000017
    24  H    0.000084   0.000017  -0.000001  -0.000001  -0.000002  -0.000007
    25  H    0.000031  -0.000132   0.000011   0.000002  -0.000020   0.000583
    26  H   -0.000147  -0.000261   0.000124   0.000003   0.000003   0.000987
    27  H    0.000020   0.000074   0.000074  -0.000007   0.000000  -0.000074
    28  H   -0.000053   0.000090  -0.000004   0.000000   0.000000  -0.000008
    29  H    0.000181   0.000045   0.000000  -0.000063   0.000375   0.000001
    30  H    0.009072  -0.000009  -0.000031   0.000437  -0.006005   0.000027
    31  H   -0.007274  -0.000141   0.000038  -0.000027   0.000431   0.000002
    32  H    0.000043  -0.000002   0.000000  -0.000019   0.000001   0.000000
    33  H   -0.000137  -0.000008   0.000000  -0.000027   0.000008   0.000000
    34  H    0.000002   0.000000   0.000000   0.000002   0.000000   0.000000
    35  H   -0.000105   0.000003   0.000000  -0.000009   0.000005   0.000000
    36  H    0.000052  -0.000003   0.000000  -0.000001   0.000000   0.000000
    37  C    5.360782   0.219213  -0.041830   0.417866   0.444375  -0.039387
    38  C    0.219213   5.198151   0.525842  -0.042940  -0.032091   0.409434
    39  C   -0.041830   0.525842   5.007602   0.003570  -0.004634  -0.026578
    40  H    0.417866  -0.042940   0.003570   0.477153  -0.012979   0.002846
    41  H    0.444375  -0.032091  -0.004634  -0.012979   0.493892   0.000246
    42  H   -0.039387   0.409434  -0.026578   0.002846   0.000246   0.489536
    43  H    0.006465  -0.054486   0.427374   0.000201  -0.000340  -0.005962
    44  H    0.007923  -0.065204   0.430630  -0.001141   0.000677   0.003859
              43         44
     1  C    0.000004   0.000003
     2  C    0.000024   0.000091
     3  C   -0.000182  -0.002235
     4  C   -0.000036   0.000091
     5  C    0.000013  -0.000011
     6  H    0.000000   0.000072
     7  H    0.000000   0.000003
     8  H    0.000000  -0.000019
     9  H    0.000017   0.000226
    10  O   -0.000002  -0.000052
    11  O    0.000007   0.000102
    12  C    0.000000   0.000003
    13  C    0.000000   0.000000
    14  C    0.000001  -0.000006
    15  O    0.000020  -0.000030
    16  Si   0.000006   0.000008
    17  C   -0.000004  -0.000003
    18  C    0.000000   0.000000
    19  C    0.000001   0.000000
    20  H    0.000000   0.000000
    21  H    0.000000   0.000000
    22  H    0.000000   0.000000
    23  H    0.000000   0.000000
    24  H    0.000000   0.000000
    25  H   -0.000001   0.000000
    26  H    0.000000   0.000004
    27  H   -0.000001   0.000000
    28  H    0.000000   0.000000
    29  H    0.000000   0.000000
    30  H    0.000000   0.000001
    31  H    0.000000   0.000000
    32  H    0.000000   0.000000
    33  H    0.000000   0.000000
    34  H    0.000000   0.000000
    35  H    0.000000   0.000000
    36  H    0.000000   0.000000
    37  C    0.006465   0.007923
    38  C   -0.054486  -0.065204
    39  C    0.427374   0.430630
    40  H    0.000201  -0.001141
    41  H   -0.000340   0.000677
    42  H   -0.005962   0.003859
    43  H    0.503153  -0.023253
    44  H   -0.023253   0.504540
 Mulliken charges:
               1
     1  C    0.000845
     2  C   -0.228140
     3  C    0.284865
     4  C   -0.463521
     5  C    0.343708
     6  H    0.185276
     7  H    0.202800
     8  H    0.200217
     9  H    0.218261
    10  O   -0.240824
    11  O   -0.369094
    12  C   -0.279478
    13  C   -0.466162
    14  C   -0.497473
    15  O   -0.398952
    16  Si   0.455976
    17  C   -0.552639
    18  C   -0.582289
    19  C   -0.570365
    20  H    0.165712
    21  H    0.165540
    22  H    0.173989
    23  H    0.154508
    24  H    0.156105
    25  H    0.158588
    26  H    0.165163
    27  H    0.163788
    28  H    0.163536
    29  H    0.171762
    30  H    0.169257
    31  H    0.172454
    32  H    0.166159
    33  H    0.160288
    34  H    0.157686
    35  H    0.145103
    36  H    0.158701
    37  C   -0.380421
    38  C   -0.144183
    39  C   -0.316834
    40  H    0.192098
    41  H    0.187554
    42  H    0.159737
    43  H    0.146980
    44  H    0.143720
 Sum of Mulliken charges =   0.00000
 Mulliken charges with hydrogens summed into heavy atoms:
               1
     1  C    0.186121
     2  C   -0.025340
     3  C    0.284865
     4  C   -0.045044
     5  C    0.343708
    10  O   -0.240824
    11  O   -0.369094
    12  C    0.046969
    13  C   -0.004672
    14  C    0.016000
    15  O   -0.398952
    16  Si   0.455976
    17  C   -0.060152
    18  C   -0.077049
    19  C   -0.101164
    37  C   -0.000769
    38  C    0.015555
    39  C   -0.026134
 Electronic spatial extent (au):  <R**2>=           5325.2893
 Charge=              0.0000 electrons
 Dipole moment (field-independent basis, Debye):
    X=              2.0874    Y=             -3.7964    Z=             -3.4167  Tot=              5.5176
 Quadrupole moment (field-independent basis, Debye-Ang):
   XX=           -120.7759   YY=           -121.2961   ZZ=           -128.3071
   XY=              7.3881   XZ=             13.9764   YZ=             -6.9803
 Traceless Quadrupole moment (field-independent basis, Debye-Ang):
   XX=              2.6838   YY=              2.1636   ZZ=             -4.8474
   XY=              7.3881   XZ=             13.9764   YZ=             -6.9803
 Octapole moment (field-independent basis, Debye-Ang**2):
  XXX=              7.5453  YYY=              0.4488  ZZZ=            -16.2923  XYY=              7.1200
  XXY=            -26.3500  XXZ=            -20.8488  XZZ=             10.8282  YZZ=            -26.7440
  YYZ=            -12.1133  XYZ=             13.0182
 Hexadecapole moment (field-independent basis, Debye-Ang**3):
 XXXX=          -3722.9465 YYYY=          -2292.0917 ZZZZ=          -1262.1221 XXXY=             51.5002
 XXXZ=             80.3170 YYYX=             24.6095 YYYZ=             20.0953 ZZZX=             38.5043
 ZZZY=            -20.5826 XXYY=           -993.8157 XXZZ=           -879.9840 YYZZ=           -660.9091
 XXYZ=            -57.5029 YYXZ=             39.7384 ZZXY=             27.9770
 N-N= 1.632999320031D+03 E-N=-5.759053642567D+03  KE= 1.059313558410D+03
 1\1\GINC-CPU-E-5\SP\RM062X\def2TZVP\C14H26O3Si1\KE291\26-Jun-2019\0\\#
  m062x/def2tzvp int=ultrafine scrf=(solvent=chloroform)\\IP1_1ginp002\
 \0,1\C,0,2.416911,-0.252933,0.57608\C,0,0.967211,-0.723753,0.765246\C,
 0,-0.03932,0.409065,0.417834\C,0,0.22523,0.813782,-1.040157\C,0,1.6756
 78,1.107729,-1.374685\H,0,2.66191,0.450336,1.381428\H,0,0.763737,-1.51
 9939,0.039033\H,0,-0.0671,-0.008124,-1.704923\H,0,-0.358588,1.689437,-
 1.328873\O,0,2.642413,0.492251,-0.662829\O,0,1.999114,1.82139,-2.30102
 3\C,0,3.478918,-1.359779,0.581399\C,0,3.308916,-2.436215,-0.494611\C,0
 ,0.774297,-1.308124,2.172773\O,0,-1.36791,-0.074189,0.594209\Si,0,-2.5
 06861,-0.901313,-0.327368\C,0,-3.244426,0.212929,-1.659867\C,0,-1.8018
 06,-2.465347,-1.118286\C,0,-3.831978,-1.362881,0.924857\H,0,-1.043316,
 -2.257785,-1.880345\H,0,-1.354957,-3.127889,-0.369442\H,0,-2.608765,-3
 .021177,-1.610531\H,0,-4.662223,-1.887008,0.438505\H,0,-3.430557,-2.01
 969,1.703618\H,0,-4.239809,-0.472762,1.414999\H,0,-3.621338,1.145671,-
 1.227001\H,0,-2.523587,0.474587,-2.440853\H,0,-4.087579,-0.292045,-2.1
 45743\H,0,1.294781,-2.263896,2.275464\H,0,1.156138,-0.63836,2.950537\H
 ,0,-0.286925,-1.478992,2.364096\H,0,3.493329,-1.814435,1.577854\H,0,4.
 449885,-0.868089,0.455252\H,0,4.161986,-3.120984,-0.482446\H,0,2.40644
 ,-3.036256,-0.341495\H,0,3.254716,-1.987762,-1.490997\C,0,0.098391,1.6
 3631,1.360067\C,0,-0.89719,2.730778,1.087702\C,0,-0.579626,3.98776,0.7
 73127\H,0,1.113129,2.044126,1.292654\H,0,-0.039674,1.27701,2.387017\H,
 0,-1.944497,2.447569,1.172217\H,0,-1.342037,4.742123,0.601458\H,0,0.45
 4799,4.311167,0.67996\\Version=ES64L-G09RevD.01\State=1-A\HF=-1064.341
 1101\RMSD=1.457e-09\Dipole=-0.8212616,-1.4936308,1.3442334\Quadrupole=
 1.995375,1.6085665,-3.6039414,-5.4928932,10.3911283,5.1896708\PG=C01 [
 X(C14H26O3Si1)]\\@


 IF AT FIRST YOU DON'T SUCCEED, TRY LOOKING IN 
 THE WASTEBASKET FOR THE DIRECTIONS.
 Job cpu time:       0 days  2 hours 20 minutes 15.6 seconds.
 File lengths (MBytes):  RWF=    415 Int=      0 D2E=      0 Chk=     21 Scr=      1
 Normal termination of Gaussian 09 at Wed Jun 26 14:09:40 2019.
