 Entering Gaussian System, Link 0=/usr/local/Cluster-Apps/gaussian/g09/g09
 Initial command:
 /usr/local/Cluster-Apps/gaussian/g09/l1.exe "/home/ke291/rds/hpc-work/26Jun1304IP1NMR/Gau-379091.inp" -scrdir="/home/ke291/rds/hpc-work/26Jun1304IP1NMR/"
 Entering Link 1 = /usr/local/Cluster-Apps/gaussian/g09/l1.exe PID=    379116.
  
 Copyright (c) 1988,1990,1992,1993,1995,1998,2003,2009,2013,
            Gaussian, Inc.  All Rights Reserved.
  
 This is part of the Gaussian(R) 09 program.  It is based on
 the Gaussian(R) 03 system (copyright 2003, Gaussian, Inc.),
 the Gaussian(R) 98 system (copyright 1998, Gaussian, Inc.),
 the Gaussian(R) 94 system (copyright 1995, Gaussian, Inc.),
 the Gaussian 92(TM) system (copyright 1992, Gaussian, Inc.),
 the Gaussian 90(TM) system (copyright 1990, Gaussian, Inc.),
 the Gaussian 88(TM) system (copyright 1988, Gaussian, Inc.),
 the Gaussian 86(TM) system (copyright 1986, Carnegie Mellon
 University), and the Gaussian 82(TM) system (copyright 1983,
 Carnegie Mellon University). Gaussian is a federally registered
 trademark of Gaussian, Inc.
  
 This software contains proprietary and confidential information,
 including trade secrets, belonging to Gaussian, Inc.
  
 This software is provided under written license and may be
 used, copied, transmitted, or stored only in accord with that
 written license.
  
 The following legend is applicable only to US Government
 contracts under FAR:
  
                    RESTRICTED RIGHTS LEGEND
  
 Use, reproduction and disclosure by the US Government is
 subject to restrictions as set forth in subparagraphs (a)
 and (c) of the Commercial Computer Software - Restricted
 Rights clause in FAR 52.227-19.
  
 Gaussian, Inc.
 340 Quinnipiac St., Bldg. 40, Wallingford CT 06492
  
  
 ---------------------------------------------------------------
 Warning -- This program may not be used in any manner that
 competes with the business of Gaussian, Inc. or will provide
 assistance to any competitor of Gaussian, Inc.  The licensee
 of this program is prohibited from giving any competitor of
 Gaussian, Inc. access to this program.  By using this program,
 the user acknowledges that Gaussian, Inc. is engaged in the
 business of creating and licensing software in the field of
 computational chemistry and represents and warrants to the
 licensee that it is not a competitor of Gaussian, Inc. and that
 it will not use this program in any manner prohibited above.
 ---------------------------------------------------------------
  

 Cite this work as:
 Gaussian 09, Revision D.01,
 M. J. Frisch, G. W. Trucks, H. B. Schlegel, G. E. Scuseria, 
 M. A. Robb, J. R. Cheeseman, G. Scalmani, V. Barone, B. Mennucci, 
 G. A. Petersson, H. Nakatsuji, M. Caricato, X. Li, H. P. Hratchian, 
 A. F. Izmaylov, J. Bloino, G. Zheng, J. L. Sonnenberg, M. Hada, 
 M. Ehara, K. Toyota, R. Fukuda, J. Hasegawa, M. Ishida, T. Nakajima, 
 Y. Honda, O. Kitao, H. Nakai, T. Vreven, J. A. Montgomery, Jr., 
 J. E. Peralta, F. Ogliaro, M. Bearpark, J. J. Heyd, E. Brothers, 
 K. N. Kudin, V. N. Staroverov, T. Keith, R. Kobayashi, J. Normand, 
 K. Raghavachari, A. Rendell, J. C. Burant, S. S. Iyengar, J. Tomasi, 
 M. Cossi, N. Rega, J. M. Millam, M. Klene, J. E. Knox, J. B. Cross, 
 V. Bakken, C. Adamo, J. Jaramillo, R. Gomperts, R. E. Stratmann, 
 O. Yazyev, A. J. Austin, R. Cammi, C. Pomelli, J. W. Ochterski, 
 R. L. Martin, K. Morokuma, V. G. Zakrzewski, G. A. Voth, 
 P. Salvador, J. J. Dannenberg, S. Dapprich, A. D. Daniels, 
 O. Farkas, J. B. Foresman, J. V. Ortiz, J. Cioslowski, 
 and D. J. Fox, Gaussian, Inc., Wallingford CT, 2013.
 
 ******************************************
 Gaussian 09:  ES64L-G09RevD.01 24-Apr-2013
                26-Jun-2019 
 ******************************************
 %nprocshared=5
 Will use up to    5 processors via shared memory.
 %mem=6000MB
 %chk=IP1_4ginp008.chk
 --------------------------------------------------------
 # m062x/def2tzvp int=ultrafine scrf=(solvent=chloroform)
 --------------------------------------------------------
 1/38=1/1;
 2/12=2,17=6,18=5,40=1/2;
 3/5=44,7=101,11=2,16=1,25=1,30=1,70=2201,72=7,74=-55,75=-5/1,2,3;
 4//1;
 5/5=2,38=5,53=7/2;
 6/7=2,8=2,9=2,10=2,28=1/1;
 99/5=1,9=1/99;
 ------------
 IP1_4ginp008
 ------------
 Symbolic Z-matrix:
 Charge =  0 Multiplicity = 1
 C                    -2.53643   0.14333  -0.04412 
 C                    -1.22689   0.34917   0.73248 
 C                    -0.0216    0.02663  -0.19849 
 C                    -0.1546   -1.44621  -0.62403 
 C                    -1.53802  -1.87537  -1.08652 
 H                    -2.5764    0.85525  -0.87682 
 H                    -1.16651   1.41491   0.97629 
 H                     0.54596  -1.70885  -1.42124 
 H                     0.08411  -2.08847   0.23046 
 O                    -2.61633  -1.18541  -0.65518 
 O                    -1.71238  -2.8647   -1.76691 
 C                    -3.83005   0.29618   0.75639 
 C                    -4.04509   1.71312   1.2981 
 C                    -1.18362  -0.43513   2.05482 
 O                     1.16054   0.2501    0.5594 
 Si                    2.76321  -0.25557   0.48712 
 C                     2.94161  -2.0251    1.12097 
 C                     3.49616  -0.14701  -1.24944 
 C                     3.6533    0.9318    1.64199 
 H                     4.55456  -0.43184  -1.21541 
 H                     3.00342  -0.81899  -1.96022 
 H                     3.43996   0.87065  -1.64811 
 H                     3.24725   0.87379   2.6573 
 H                     4.72252   0.69852   1.69538 
 H                     3.54993   1.96604   1.29836 
 H                     2.49087  -2.75873   0.44483 
 H                     4.00337  -2.28021   1.2195 
 H                     2.47951  -2.14531   2.10662 
 H                    -1.88953  -0.01543   2.77615 
 H                    -1.4423   -1.49038   1.92246 
 H                    -0.1855   -0.37721   2.49078 
 H                    -3.8461   -0.43346   1.57248 
 H                    -4.65463   0.03024   0.08604 
 H                    -5.01787   1.78696   1.79244 
 H                    -3.28192   1.99557   2.03016 
 H                    -4.02637   2.4552    0.4921 
 C                     0.01946   0.92152  -1.47194 
 C                     0.09523   2.4044   -1.23141 
 C                     1.06082   3.1994   -1.69479 
 H                    -0.86289   0.6983   -2.08701 
 H                     0.8825    0.60656  -2.06667 
 H                    -0.71826   2.85406  -0.66293 
 H                     1.05401   4.27005  -1.51281 
 H                     1.88905   2.81034  -2.28241 
 
                          Input orientation:                          
 ---------------------------------------------------------------------
 Center     Atomic      Atomic             Coordinates (Angstroms)
 Number     Number       Type             X           Y           Z
 ---------------------------------------------------------------------
      1          6           0       -2.536429    0.143332   -0.044119
      2          6           0       -1.226891    0.349166    0.732484
      3          6           0       -0.021600    0.026633   -0.198490
      4          6           0       -0.154601   -1.446205   -0.624031
      5          6           0       -1.538015   -1.875365   -1.086515
      6          1           0       -2.576402    0.855248   -0.876824
      7          1           0       -1.166515    1.414913    0.976289
      8          1           0        0.545959   -1.708849   -1.421238
      9          1           0        0.084112   -2.088475    0.230462
     10          8           0       -2.616328   -1.185411   -0.655183
     11          8           0       -1.712381   -2.864703   -1.766909
     12          6           0       -3.830045    0.296182    0.756391
     13          6           0       -4.045087    1.713124    1.298104
     14          6           0       -1.183618   -0.435131    2.054819
     15          8           0        1.160536    0.250101    0.559397
     16         14           0        2.763214   -0.255568    0.487123
     17          6           0        2.941606   -2.025101    1.120968
     18          6           0        3.496161   -0.147011   -1.249441
     19          6           0        3.653295    0.931804    1.641990
     20          1           0        4.554561   -0.431839   -1.215406
     21          1           0        3.003423   -0.818985   -1.960221
     22          1           0        3.439955    0.870647   -1.648107
     23          1           0        3.247247    0.873793    2.657302
     24          1           0        4.722522    0.698523    1.695379
     25          1           0        3.549931    1.966044    1.298359
     26          1           0        2.490872   -2.758734    0.444825
     27          1           0        4.003369   -2.280206    1.219503
     28          1           0        2.479511   -2.145305    2.106624
     29          1           0       -1.889531   -0.015431    2.776146
     30          1           0       -1.442296   -1.490376    1.922462
     31          1           0       -0.185498   -0.377209    2.490777
     32          1           0       -3.846096   -0.433458    1.572475
     33          1           0       -4.654631    0.030237    0.086037
     34          1           0       -5.017872    1.786958    1.792440
     35          1           0       -3.281921    1.995565    2.030162
     36          1           0       -4.026373    2.455202    0.492104
     37          6           0        0.019455    0.921518   -1.471943
     38          6           0        0.095226    2.404399   -1.231412
     39          6           0        1.060818    3.199403   -1.694787
     40          1           0       -0.862886    0.698297   -2.087006
     41          1           0        0.882500    0.606559   -2.066674
     42          1           0       -0.718258    2.854057   -0.662925
     43          1           0        1.054008    4.270052   -1.512811
     44          1           0        1.889053    2.810335   -2.282405
 ---------------------------------------------------------------------
                    Distance matrix (angstroms):
                    1          2          3          4          5
     1  C    0.000000
     2  C    1.536349   0.000000
     3  C    2.522264   1.556749   0.000000
     4  C    2.921649   2.492648   1.538839   0.000000
     5  C    2.481644   2.890345   2.589536   1.520495   0.000000
     6  H    1.096275   2.160364   2.770154   3.350479   2.928902
     7  H    2.129511   1.094944   2.149013   3.430888   3.901167
     8  H    3.850733   3.466546   2.197529   1.093300   2.117242
     9  H    3.453056   2.812979   2.160754   1.095287   2.100271
    10  O    1.464698   2.492204   2.900040   2.475699   1.350867
    11  O    3.563051   4.100198   3.698446   2.396870   1.213313
    12  C    1.528928   2.603803   3.935570   4.295389   3.655861
    13  C    2.557706   3.181593   4.612211   5.367667   4.984884
    14  C    2.563251   1.538039   2.576997   3.042595   3.473881
    15  O    3.747423   2.395742   1.421892   2.451029   3.809043
    16  Si   5.341119   4.043123   2.881821   3.341545   4.858050
    17  C    6.005697   4.812944   3.838121   3.600922   4.996239
    18  C    6.158672   5.146012   3.675499   3.925189   5.325099
    19  C    6.463539   4.998288   4.208510   5.028901   6.501895
    20  H    7.210054   6.150564   4.710155   4.853336   6.262576
    21  H    5.940325   5.148863   3.601323   3.485961   4.743834
    22  H    6.230484   5.264846   3.846571   4.397427   5.712806
    23  H    6.425119   4.898782   4.422509   5.265179   6.668791
    24  H    7.485082   6.036947   5.152171   5.810839   7.318344
    25  H    6.493713   5.074696   4.331017   5.390972   6.806706
    26  H    5.825359   4.854230   3.805869   3.140655   4.399690
    27  H    7.087964   5.874215   4.851040   4.624164   6.015692
    28  H    5.918041   4.674191   4.035644   3.857948   5.139019
    29  H    2.897857   2.179123   3.512747   4.076555   4.301519
    30  H    2.780930   2.201445   2.969534   2.853898   3.035016
    31  H    3.496218   2.168805   2.724355   3.293286   4.107407
    32  H    2.159002   2.859776   4.239666   4.413324   3.804808
    33  H    2.125208   3.502715   4.641761   4.788982   3.836599
    34  H    3.497430   4.190739   5.659088   6.320133   5.814671
    35  H    2.879091   2.935600   4.412853   5.354498   5.266781
    36  H    2.802180   3.511448   4.734245   5.608685   5.238108
    37  C    3.029323   2.596240   1.556980   2.520984   3.224410
    38  C    3.667110   3.135102   2.595062   3.906210   4.583105
    39  C    5.000446   4.387381   3.671104   4.919902   5.733864
    40  H    2.698540   2.864248   2.173796   2.690883   2.842625
    41  H    3.999298   3.514408   2.154953   2.714892   3.602714
    42  H    3.322152   2.912105   2.948789   4.337220   4.818595
    43  H    5.663754   5.061343   4.570665   5.909844   6.683297
    44  H    5.630961   4.985581   3.967656   5.004484   5.927118
                    6          7          8          9         10
     6  H    0.000000
     7  H    2.394793   0.000000
     8  H    4.076778   4.294018   0.000000
     9  H    4.119457   3.793950   1.756568   0.000000
    10  O    2.053048   3.394900   3.295586   2.981991   0.000000
    11  O    3.921329   5.112555   2.560388   2.796320   2.207505
    12  C    2.133440   2.897293   5.283146   4.613439   2.379237
    13  C    2.761032   2.911816   6.338961   5.713344   3.776002
    14  C    3.492772   2.141537   4.086168   2.769289   3.155897
    15  O    4.048906   2.635480   2.852736   2.595347   4.219076
    16  Si   5.621900   4.297972   3.266510   3.256226   5.577539
    17  C    6.537277   5.360157   3.507414   2.993708   5.894949
    18  C    6.165986   5.397595   3.342536   4.195411   6.228478
    19  C    6.720075   4.889491   5.100191   4.884011   7.004839
    20  H    7.254093   6.398807   4.212127   4.981957   7.232107
    21  H    5.925475   5.567924   2.668612   3.864334   5.780916
    22  H    6.065613   5.329470   3.883360   4.852536   6.472390
    23  H    6.812142   4.753936   5.531861   4.966891   7.042328
    24  H    7.740483   5.975873   5.740420   5.606085   7.933037
    25  H    6.595244   4.759447   5.470365   5.439801   7.195189
    26  H    6.362774   5.574788   2.892600   2.507527   5.456084
    27  H    7.584131   6.359305   4.387898   4.046670   6.966593
    28  H    6.592916   5.219800   4.046595   3.043214   5.875079
    29  H    3.817599   2.410004   5.139777   3.830572   3.697446
    30  H    3.824154   3.067899   3.896308   2.355952   2.848791
    31  H    4.310001   2.543181   4.196684   2.847832   4.056993
    32  H    3.044988   3.309391   5.466177   4.470639   2.653342
    33  H    2.434498   3.857049   5.687041   5.192830   2.486340
    34  H    3.735483   3.954424   7.314684   6.594619   4.537979
    35  H    3.201351   2.433670   6.347244   5.590034   4.215768
    36  H    2.556606   3.081465   6.473517   6.132662   4.069221
    37  C    2.664026   2.764743   2.683022   3.458673   3.471829
    38  C    3.108568   2.728556   4.142222   4.724734   4.535560
    39  C    4.403805   3.908972   4.942757   5.711584   5.816251
    40  H    2.103642   3.160618   2.867480   3.746140   2.945001
    41  H    3.666278   3.756531   2.427130   3.630078   4.176752
    42  H    2.737460   2.226902   4.795143   5.086311   4.463186
    43  H    5.024464   4.390690   6.001146   6.664125   6.630910
    44  H    5.073294   4.680041   4.792550   5.794019   6.237972
                   11         12         13         14         15
    11  O    0.000000
    12  C    4.565385   0.000000
    13  C    5.982668   1.532129   0.000000
    14  C    4.559388   3.037155   3.657270   0.000000
    15  O    4.833979   4.994680   5.457530   2.863719   0.000000
    16  Si   5.649708   6.621782   7.133470   4.250576   1.682112
    17  C    5.541152   7.167742   7.925881   4.518579   2.943487
    18  C    5.897672   7.608750   8.174381   5.735981   2.980728
    19  C    7.404359   7.562320   7.745567   5.043279   2.801888
    20  H    6.745187   8.644051   9.212630   6.604626   3.890292
    21  H    5.144039   7.437732   8.167604   5.813708   3.299644
    22  H    6.365023   7.678836   8.088002   6.065818   3.233249
    23  H    7.625477   7.350861   7.465255   4.659274   3.023997
    24  H    8.129698   8.613360   8.835056   6.024687   3.765539
    25  H    7.773282   7.585922   7.599228   5.361377   3.033106
    26  H    4.750824   7.027345   7.965197   4.636064   3.291809
    27  H    6.475345   8.259214   8.985016   5.568383   3.862628
    28  H    5.752717   6.898876   7.623094   4.043005   3.141906
    29  H    5.365546   2.818174   3.133518   1.093057   3.779867
    30  H    3.946287   3.202008   4.174537   1.094520   3.414958
    31  H    5.162062   4.091977   4.548449   1.090714   2.436299
    32  H    4.649213   1.094817   2.173175   2.705817   5.153634
    33  H    4.524480   1.095465   2.161657   4.017537   5.838542
    34  H    6.725562   2.169503   1.093677   4.439372   6.484986
    35  H    6.364229   2.193362   1.094579   3.211194   4.994519
    36  H    6.225680   2.183978   1.095749   4.344808   5.636579
    37  C    4.173935   4.491678   4.981998   3.965593   2.424708
    38  C    5.596216   4.878903   4.900868   4.527437   2.997146
    39  C    6.668524   6.193344   6.102187   5.683914   3.713445
    40  H    3.676829   4.129242   4.755549   4.306070   3.361334
    41  H    4.344298   5.502191   6.068553   4.726591   2.664698
    42  H    5.908577   4.270878   4.026804   4.292022   3.435771
    43  H    7.656514   6.692899   6.359237   6.314563   4.523870
    44  H    6.741077   6.947181   7.016975   6.227830   3.893761
                   16         17         18         19         20
    16  Si   0.000000
    17  C    1.888076   0.000000
    18  C    1.888028   3.074669   0.000000
    19  C    1.880376   3.085653   3.090130   0.000000
    20  H    2.477620   3.255572   1.096584   3.291886   0.000000
    21  H    2.522822   3.309420   1.095239   4.057526   1.763706
    22  H    2.507099   4.037510   1.094405   3.297574   1.768063
    23  H    2.493877   3.295046   4.045570   1.095034   4.290875
    24  H    2.491799   3.304503   3.300129   1.095681   3.127075
    25  H    2.492506   4.041134   3.310465   1.094723   3.616371
    26  H    2.518293   1.094782   3.271428   4.050247   3.525567
    27  H    2.484658   1.096416   3.302040   3.258536   3.106293
    28  H    2.504871   1.095216   4.036078   3.325997   4.275241
    29  H    5.190889   5.488012   6.725202   5.736417   7.591588
    30  H    4.612078   4.488532   6.021126   5.648953   6.850475
    31  H    3.567118   3.790871   5.253269   4.143704   6.017220
    32  H    6.700195   6.986421   7.871086   7.622968   8.851176
    33  H    7.434176   7.937148   8.261376   8.500320   9.312169
    34  H    8.149912   8.850760   9.245649   8.714532  10.276267
    35  H    6.632664   7.464896   7.828718   7.027054   8.822497
    36  H    7.310731   8.307907   8.148191   7.913298   9.213198
    37  C    3.570950   4.893334   3.644001   4.785549   4.739681
    38  C    4.140887   5.766805   4.251632   4.804668   5.284900
    39  C    4.426704   6.225856   4.162657   4.795521   5.061814
    40  H    4.548033   5.672932   4.518556   5.861384   5.602288
    41  H    3.286674   4.618075   2.840240   4.640827   3.909854
    42  H    4.807601   6.354767   5.206893   5.302656   6.237385
    43  H    5.234726   7.080167   5.054099   5.277591   5.869421
    44  H    4.223056   6.006018   3.520754   4.694923   4.330717
                   21         22         23         24         25
    21  H    0.000000
    22  H    1.772803   0.000000
    23  H    4.924070   4.309721   0.000000
    24  H    4.315269   3.585178   1.769873   0.000000
    25  H    4.321273   3.145417   1.769564   1.771780   0.000000
    26  H    3.132025   4.295757   4.320001   4.300787   4.916671
    27  H    3.639465   4.297499   3.547773   3.101043   4.271120
    28  H    4.309621   4.910848   3.163482   3.645213   4.324613
    29  H    6.857104   6.983020   5.214531   6.737732   5.974767
    30  H    5.940573   6.493055   5.302933   6.545825   6.103988
    31  H    5.493247   5.641934   3.657386   5.087093   4.567945
    32  H    7.716507   8.072136   7.293920   8.643940   7.780358
    33  H    7.972085   8.320809   8.352405   9.537693   8.516567
    34  H    9.231174   9.176700   8.360266   9.801499   8.583906
    35  H    7.959296   7.744593   6.654451   8.115757   6.870998
    36  H    8.133402   7.927003   7.752063   9.004274   7.634769
    37  C    3.488815   3.425411   5.241334   5.674548   4.607588
    38  C    4.402156   3.703139   5.234509   5.734805   4.304287
    39  C    4.471198   3.329501   5.397186   5.581729   4.083599
    40  H    4.155306   4.328600   6.279526   6.745607   5.704457
    41  H    2.557699   2.604902   5.289555   5.376548   4.504091
    42  H    5.387497   4.711182   5.538103   6.309518   4.780443
    43  H    5.467970   4.155358   5.808159   6.042044   4.409168
    44  H    3.810195   2.563205   5.476823   5.320814   4.036485
                   26         27         28         29         30
    26  H    0.000000
    27  H    1.765435   0.000000
    28  H    1.771440   1.768424   0.000000
    29  H    5.669982   6.502201   4.906440   0.000000
    30  H    4.388844   5.547364   3.980379   1.761891   0.000000
    31  H    4.125595   4.773274   3.221181   1.765233   1.772474
    32  H    6.843659   8.071503   6.574879   2.334891   2.649117
    33  H    7.678887   9.032378   7.727337   3.858050   4.000477
    34  H    8.880350   9.912259   8.471845   3.742032   4.852068
    35  H    7.644723   8.486156   7.095544   2.557215   3.943045
    36  H    8.346367   9.350399   8.130059   3.985846   4.928586
    37  C    4.829716   5.776373   5.316335   4.750617   4.413155
    38  C    5.933535   6.574655   6.125937   5.084816   5.242153
    39  C    6.490176   6.868610   6.710389   6.247316   6.429938
    40  H    5.441408   6.594310   6.069944   5.021320   4.604545
    41  H    4.496630   5.373285   5.247820   5.614618   5.070998
    42  H    6.559653   7.224815   6.549027   4.629584   5.107108
    43  H    7.436447   7.685711   7.502611   6.739803   7.156477
    44  H    6.230128   6.530490   6.646095   6.917484   6.875675
                   31         32         33         34         35
    31  H    0.000000
    32  H    3.774443   0.000000
    33  H    5.091359   1.754491   0.000000
    34  H    5.340705   2.520256   2.475848   0.000000
    35  H    3.928111   2.535335   3.086498   1.764527   0.000000
    36  H    5.173931   3.089346   2.537726   1.766492   1.769491
    37  C    4.175146   5.103619   5.006872   6.064639   4.931268
    38  C    4.655195   5.607962   5.471148   5.972327   4.712763
    39  C    5.644856   6.924629   6.773574   7.148862   5.846696
    40  H    4.750965   4.855122   4.421058   5.787849   4.948303
    41  H    4.783177   6.056786   5.968763   7.148461   6.004649
    42  H    4.546510   5.058472   4.902034   5.064997   3.816031
    43  H    6.257965   7.460095   7.288409   7.345622   6.043693
    44  H    6.103070   7.633756   7.493882   8.084385   6.782408
                   36         37         38         39         40
    36  H    0.000000
    37  C    4.751672   0.000000
    38  C    4.467736   1.504172   0.000000
    39  C    5.587114   2.514529   1.333835   0.000000
    40  H    4.443667   1.098479   2.135604   3.179623   0.000000
    41  H    5.836254   1.094418   2.133001   2.625440   1.747913
    42  H    3.526585   2.221134   1.089553   2.085453   2.587707
    43  H    5.755314   3.504947   2.116391   1.086025   4.094095
    44  H    6.543415   2.778466   2.118298   1.087493   3.474486
                   41         42         43         44
    41  H    0.000000
    42  H    3.095833   0.000000
    43  H    3.709092   2.422452   0.000000
    44  H    2.432348   3.069641   1.849419   0.000000
 Stoichiometry    C14H26O3Si
 Framework group  C1[X(C14H26O3Si)]
 Deg. of freedom   126
 Full point group                 C1      NOp   1
 Largest Abelian subgroup         C1      NOp   1
 Largest concise Abelian subgroup C1      NOp   1
                         Standard orientation:                         
 ---------------------------------------------------------------------
 Center     Atomic      Atomic             Coordinates (Angstroms)
 Number     Number       Type             X           Y           Z
 ---------------------------------------------------------------------
      1          6           0       -2.536429    0.143332   -0.044119
      2          6           0       -1.226891    0.349166    0.732484
      3          6           0       -0.021600    0.026633   -0.198490
      4          6           0       -0.154601   -1.446205   -0.624031
      5          6           0       -1.538015   -1.875365   -1.086515
      6          1           0       -2.576402    0.855248   -0.876824
      7          1           0       -1.166515    1.414913    0.976289
      8          1           0        0.545959   -1.708849   -1.421238
      9          1           0        0.084112   -2.088475    0.230462
     10          8           0       -2.616328   -1.185411   -0.655183
     11          8           0       -1.712381   -2.864703   -1.766909
     12          6           0       -3.830045    0.296182    0.756391
     13          6           0       -4.045087    1.713124    1.298104
     14          6           0       -1.183618   -0.435131    2.054819
     15          8           0        1.160536    0.250101    0.559397
     16         14           0        2.763214   -0.255568    0.487123
     17          6           0        2.941606   -2.025101    1.120968
     18          6           0        3.496161   -0.147011   -1.249441
     19          6           0        3.653295    0.931804    1.641990
     20          1           0        4.554561   -0.431839   -1.215406
     21          1           0        3.003423   -0.818985   -1.960221
     22          1           0        3.439955    0.870647   -1.648107
     23          1           0        3.247247    0.873793    2.657302
     24          1           0        4.722522    0.698523    1.695379
     25          1           0        3.549931    1.966044    1.298359
     26          1           0        2.490872   -2.758734    0.444825
     27          1           0        4.003369   -2.280206    1.219503
     28          1           0        2.479511   -2.145305    2.106624
     29          1           0       -1.889531   -0.015431    2.776146
     30          1           0       -1.442296   -1.490376    1.922462
     31          1           0       -0.185498   -0.377209    2.490777
     32          1           0       -3.846096   -0.433458    1.572475
     33          1           0       -4.654631    0.030237    0.086037
     34          1           0       -5.017872    1.786958    1.792440
     35          1           0       -3.281921    1.995565    2.030162
     36          1           0       -4.026373    2.455202    0.492104
     37          6           0        0.019455    0.921518   -1.471943
     38          6           0        0.095226    2.404399   -1.231412
     39          6           0        1.060818    3.199403   -1.694787
     40          1           0       -0.862886    0.698297   -2.087006
     41          1           0        0.882500    0.606559   -2.066674
     42          1           0       -0.718258    2.854057   -0.662925
     43          1           0        1.054008    4.270052   -1.512811
     44          1           0        1.889053    2.810335   -2.282405
 ---------------------------------------------------------------------
 Rotational constants (GHZ):      0.5046307      0.2596342      0.2330896
 Standard basis: def2TZVP (5D, 7F)
 There are   810 symmetry adapted cartesian basis functions of A   symmetry.
 There are   720 symmetry adapted basis functions of A   symmetry.
   720 basis functions,  1144 primitive gaussians,   810 cartesian basis functions
    74 alpha electrons       74 beta electrons
       nuclear repulsion energy      1625.9036021764 Hartrees.
 NAtoms=   44 NActive=   44 NUniq=   44 SFac= 1.00D+00 NAtFMM=   60 NAOKFM=F Big=F
 Integral buffers will be    131072 words long.
 Raffenetti 2 integral format.
 Two-electron integral symmetry is turned on.
 ------------------------------------------------------------------------------
 Polarizable Continuum Model (PCM)
 =================================
 Model                : PCM (using non-symmetric T matrix).
 Atomic radii         : UFF (Universal Force Field).
 Polarization charges : Total charges.
 Charge compensation  : None.
 Solution method      : On-the-fly selection.
 Cavity type          : Scaled VdW (van der Waals Surface) (Alpha=1.100).
 Cavity algorithm     : GePol (No added spheres)
                        Default sphere list used, NSphG=   44.
                        Lebedev-Laikov grids with approx.  5.0 points / Ang**2.
                        Smoothing algorithm: Karplus/York (Gamma=1.0000).
                        Polarization charges: spherical gaussians, with
                                              point-specific exponents (IZeta= 3).
                        Self-potential: point-specific (ISelfS= 7).
                        Self-field    : sphere-specific E.n sum rule (ISelfD= 2).
 Solvent              : Chloroform, Eps=   4.711300 Eps(inf)=   2.090627
 ------------------------------------------------------------------------------
 One-electron integrals computed using PRISM.
   1 Symmetry operations used in ECPInt.
 ECPInt:  NShTT=   46360 NPrTT=  137514 LenC2=   42089 LenP2D=   90303.
 LDataN:  DoStor=T MaxTD1= 6 Len=  172
 NBasis=   720 RedAO= T EigKep=  4.57D-05  NBF=   720
 NBsUse=   720 1.00D-06 EigRej= -1.00D+00 NBFU=   720
 ExpMin= 7.01D-02 ExpMax= 4.48D+04 ExpMxC= 1.53D+03 IAcc=3 IRadAn=         5 AccDes= 0.00D+00
 Harris functional with IExCor= 1009 and IRadAn=       5 diagonalized for initial guess.
 HarFok:  IExCor= 1009 AccDes= 0.00D+00 IRadAn=         5 IDoV= 1 UseB2=F ITyADJ=14
 ICtDFT=  3500011 ScaDFX=  1.000000  1.000000  1.000000  1.000000
 FoFCou: FMM=F IPFlag=           0 FMFlag=      100000 FMFlg1=           0
         NFxFlg=           0 DoJE=T BraDBF=F KetDBF=T FulRan=T
         wScrn=  0.000000 ICntrl=     500 IOpCl=  0 I1Cent=   200000004 NGrid=           0
         NMat0=    1 NMatS0=      1 NMatT0=    0 NMatD0=    1 NMtDS0=    0 NMtDT0=    0
 Petite list used in FoFCou.
 Requested convergence on RMS density matrix=1.00D-08 within 128 cycles.
 Requested convergence on MAX density matrix=1.00D-06.
 Requested convergence on             energy=1.00D-06.
 No special actions if energy rises.
 Inv3:  Mode=1 IEnd=    24779628.
 Iteration    1 A*A^-1 deviation from unit magnitude is 4.77D-15 for   1128.
 Iteration    1 A*A^-1 deviation from orthogonality  is 3.63D-15 for   2821   1123.
 Iteration    1 A^-1*A deviation from unit magnitude is 6.88D-15 for    541.
 Iteration    1 A^-1*A deviation from orthogonality  is 1.32D-11 for   2231   2027.
 Error on total polarization charges =  0.01466
 SCF Done:  E(RM062X) =  -1064.33976720     A.U. after   14 cycles
            NFock= 14  Conv=0.16D-08     -V/T= 2.0048

 **********************************************************************

            Population analysis using the SCF density.

 **********************************************************************

 Orbital symmetries:
       Occupied  (A) (A) (A) (A) (A) (A) (A) (A) (A) (A) (A) (A)
                 (A) (A) (A) (A) (A) (A) (A) (A) (A) (A) (A) (A)
                 (A) (A) (A) (A) (A) (A) (A) (A) (A) (A) (A) (A)
                 (A) (A) (A) (A) (A) (A) (A) (A) (A) (A) (A) (A)
                 (A) (A) (A) (A) (A) (A) (A) (A) (A) (A) (A) (A)
                 (A) (A) (A) (A) (A) (A) (A) (A) (A) (A) (A) (A)
                 (A) (A)
       Virtual   (A) (A) (A) (A) (A) (A) (A) (A) (A) (A) (A) (A)
                 (A) (A) (A) (A) (A) (A) (A) (A) (A) (A) (A) (A)
                 (A) (A) (A) (A) (A) (A) (A) (A) (A) (A) (A) (A)
                 (A) (A) (A) (A) (A) (A) (A) (A) (A) (A) (A) (A)
                 (A) (A) (A) (A) (A) (A) (A) (A) (A) (A) (A) (A)
                 (A) (A) (A) (A) (A) (A) (A) (A) (A) (A) (A) (A)
                 (A) (A) (A) (A) (A) (A) (A) (A) (A) (A) (A) (A)
                 (A) (A) (A) (A) (A) (A) (A) (A) (A) (A) (A) (A)
                 (A) (A) (A) (A) (A) (A) (A) (A) (A) (A) (A) (A)
                 (A) (A) (A) (A) (A) (A) (A) (A) (A) (A) (A) (A)
                 (A) (A) (A) (A) (A) (A) (A) (A) (A) (A) (A) (A)
                 (A) (A) (A) (A) (A) (A) (A) (A) (A) (A) (A) (A)
                 (A) (A) (A) (A) (A) (A) (A) (A) (A) (A) (A) (A)
                 (A) (A) (A) (A) (A) (A) (A) (A) (A) (A) (A) (A)
                 (A) (A) (A) (A) (A) (A) (A) (A) (A) (A) (A) (A)
                 (A) (A) (A) (A) (A) (A) (A) (A) (A) (A) (A) (A)
                 (A) (A) (A) (A) (A) (A) (A) (A) (A) (A) (A) (A)
                 (A) (A) (A) (A) (A) (A) (A) (A) (A) (A) (A) (A)
                 (A) (A) (A) (A) (A) (A) (A) (A) (A) (A) (A) (A)
                 (A) (A) (A) (A) (A) (A) (A) (A) (A) (A) (A) (A)
                 (A) (A) (A) (A) (A) (A) (A) (A) (A) (A) (A) (A)
                 (A) (A) (A) (A) (A) (A) (A) (A) (A) (A) (A) (A)
                 (A) (A) (A) (A) (A) (A) (A) (A) (A) (A) (A) (A)
                 (A) (A) (A) (A) (A) (A) (A) (A) (A) (A) (A) (A)
                 (A) (A) (A) (A) (A) (A) (A) (A) (A) (A) (A) (A)
                 (A) (A) (A) (A) (A) (A) (A) (A) (A) (A) (A) (A)
                 (A) (A) (A) (A) (A) (A) (A) (A) (A) (A) (A) (A)
                 (A) (A) (A) (A) (A) (A) (A) (A) (A) (A) (A) (A)
                 (A) (A) (A) (A) (A) (A) (A) (A) (A) (A) (A) (A)
                 (A) (A) (A) (A) (A) (A) (A) (A) (A) (A) (A) (A)
                 (A) (A) (A) (A) (A) (A) (A) (A) (A) (A) (A) (A)
                 (A) (A) (A) (A) (A) (A) (A) (A) (A) (A) (A) (A)
                 (A) (A) (A) (A) (A) (A) (A) (A) (A) (A) (A) (A)
                 (A) (A) (A) (A) (A) (A) (A) (A) (A) (A) (A) (A)
                 (A) (A) (A) (A) (A) (A) (A) (A) (A) (A) (A) (A)
                 (A) (A) (A) (A) (A) (A) (A) (A) (A) (A) (A) (A)
                 (A) (A) (A) (A) (A) (A) (A) (A) (A) (A) (A) (A)
                 (A) (A) (A) (A) (A) (A) (A) (A) (A) (A) (A) (A)
                 (A) (A) (A) (A) (A) (A) (A) (A) (A) (A) (A) (A)
                 (A) (A) (A) (A) (A) (A) (A) (A) (A) (A) (A) (A)
                 (A) (A) (A) (A) (A) (A) (A) (A) (A) (A) (A) (A)
                 (A) (A) (A) (A) (A) (A) (A) (A) (A) (A) (A) (A)
                 (A) (A) (A) (A) (A) (A) (A) (A) (A) (A) (A) (A)
                 (A) (A) (A) (A) (A) (A) (A) (A) (A) (A) (A) (A)
                 (A) (A) (A) (A) (A) (A) (A) (A) (A) (A) (A) (A)
                 (A) (A) (A) (A) (A) (A) (A) (A) (A) (A) (A) (A)
                 (A) (A) (A) (A) (A) (A) (A) (A) (A) (A) (A) (A)
                 (A) (A) (A) (A) (A) (A) (A) (A) (A) (A) (A) (A)
                 (A) (A) (A) (A) (A) (A) (A) (A) (A) (A) (A) (A)
                 (A) (A) (A) (A) (A) (A) (A) (A) (A) (A) (A) (A)
                 (A) (A) (A) (A) (A) (A) (A) (A) (A) (A) (A) (A)
                 (A) (A) (A) (A) (A) (A) (A) (A) (A) (A) (A) (A)
                 (A) (A) (A) (A) (A) (A) (A) (A) (A) (A) (A) (A)
                 (A) (A) (A) (A) (A) (A) (A) (A) (A) (A)
 The electronic state is 1-A.
 Alpha  occ. eigenvalues --  -67.01641 -19.67395 -19.61930 -19.61803 -10.68439
 Alpha  occ. eigenvalues --  -10.62207 -10.61072 -10.55914 -10.55511 -10.54960
 Alpha  occ. eigenvalues --  -10.54831 -10.54158 -10.53655 -10.53260 -10.52997
 Alpha  occ. eigenvalues --  -10.51234 -10.50988 -10.50746  -5.55089  -3.86275
 Alpha  occ. eigenvalues --   -3.86132  -3.86120  -1.23008  -1.14362  -1.13409
 Alpha  occ. eigenvalues --   -0.93707  -0.90673  -0.88406  -0.84640  -0.80993
 Alpha  occ. eigenvalues --   -0.80323  -0.78662  -0.76982  -0.76767  -0.73710
 Alpha  occ. eigenvalues --   -0.70096  -0.68581  -0.64796  -0.60957  -0.59537
 Alpha  occ. eigenvalues --   -0.59227  -0.57647  -0.56472  -0.54290  -0.53589
 Alpha  occ. eigenvalues --   -0.52620  -0.50995  -0.50129  -0.49514  -0.48736
 Alpha  occ. eigenvalues --   -0.47829  -0.47676  -0.47424  -0.47150  -0.46115
 Alpha  occ. eigenvalues --   -0.45716  -0.45431  -0.44752  -0.44520  -0.44136
 Alpha  occ. eigenvalues --   -0.43945  -0.42918  -0.42510  -0.42234  -0.41306
 Alpha  occ. eigenvalues --   -0.40754  -0.39378  -0.38425  -0.36728  -0.36647
 Alpha  occ. eigenvalues --   -0.35873  -0.34556  -0.33639  -0.32170
 Alpha virt. eigenvalues --    0.02753   0.03913   0.04965   0.06073   0.07582
 Alpha virt. eigenvalues --    0.08015   0.08655   0.09275   0.09723   0.10301
 Alpha virt. eigenvalues --    0.10382   0.11208   0.11664   0.12456   0.12820
 Alpha virt. eigenvalues --    0.13321   0.13555   0.14137   0.14588   0.14846
 Alpha virt. eigenvalues --    0.15170   0.15410   0.16104   0.16361   0.16981
 Alpha virt. eigenvalues --    0.17109   0.17479   0.17801   0.18069   0.18437
 Alpha virt. eigenvalues --    0.18846   0.19448   0.20090   0.20514   0.20967
 Alpha virt. eigenvalues --    0.21230   0.21711   0.22475   0.23072   0.23171
 Alpha virt. eigenvalues --    0.23391   0.24419   0.24741   0.25160   0.25554
 Alpha virt. eigenvalues --    0.26473   0.26701   0.27157   0.27511   0.28384
 Alpha virt. eigenvalues --    0.28677   0.29373   0.29803   0.30135   0.30490
 Alpha virt. eigenvalues --    0.30919   0.32260   0.32732   0.32851   0.33508
 Alpha virt. eigenvalues --    0.34121   0.35182   0.35302   0.35588   0.36870
 Alpha virt. eigenvalues --    0.37375   0.37552   0.38432   0.38745   0.38948
 Alpha virt. eigenvalues --    0.39746   0.39892   0.40335   0.41252   0.41425
 Alpha virt. eigenvalues --    0.42353   0.43073   0.43133   0.43607   0.44142
 Alpha virt. eigenvalues --    0.44394   0.45025   0.45100   0.45574   0.45886
 Alpha virt. eigenvalues --    0.46427   0.46773   0.47175   0.47474   0.48314
 Alpha virt. eigenvalues --    0.48341   0.48612   0.48672   0.49201   0.49776
 Alpha virt. eigenvalues --    0.49990   0.50430   0.50771   0.50979   0.51544
 Alpha virt. eigenvalues --    0.52074   0.52694   0.53264   0.53624   0.54087
 Alpha virt. eigenvalues --    0.54508   0.55007   0.55130   0.55723   0.56322
 Alpha virt. eigenvalues --    0.56597   0.57179   0.57786   0.58537   0.59541
 Alpha virt. eigenvalues --    0.59735   0.60282   0.60787   0.61250   0.61776
 Alpha virt. eigenvalues --    0.63016   0.63837   0.64449   0.64903   0.65693
 Alpha virt. eigenvalues --    0.66272   0.66725   0.67380   0.67820   0.68588
 Alpha virt. eigenvalues --    0.69081   0.70257   0.71355   0.72656   0.73229
 Alpha virt. eigenvalues --    0.74024   0.74867   0.76057   0.76474   0.76858
 Alpha virt. eigenvalues --    0.77992   0.78395   0.79702   0.80096   0.81222
 Alpha virt. eigenvalues --    0.81728   0.82731   0.83780   0.84174   0.85189
 Alpha virt. eigenvalues --    0.86318   0.87824   0.89010   0.89592   0.90607
 Alpha virt. eigenvalues --    0.91305   0.91781   0.92527   0.93124   0.93373
 Alpha virt. eigenvalues --    0.94297   0.94531   0.95333   0.95676   0.97132
 Alpha virt. eigenvalues --    0.97969   0.98597   0.99719   1.00801   1.01188
 Alpha virt. eigenvalues --    1.01679   1.02723   1.03409   1.04189   1.05077
 Alpha virt. eigenvalues --    1.05426   1.06483   1.07129   1.07423   1.07798
 Alpha virt. eigenvalues --    1.07872   1.08672   1.09383   1.09785   1.10834
 Alpha virt. eigenvalues --    1.11267   1.12895   1.13961   1.14568   1.15248
 Alpha virt. eigenvalues --    1.16018   1.16860   1.17552   1.19340   1.20257
 Alpha virt. eigenvalues --    1.20762   1.21985   1.22537   1.23349   1.23565
 Alpha virt. eigenvalues --    1.24686   1.25925   1.26664   1.28270   1.29154
 Alpha virt. eigenvalues --    1.29701   1.30741   1.31473   1.32447   1.33735
 Alpha virt. eigenvalues --    1.34460   1.35291   1.37105   1.38171   1.38626
 Alpha virt. eigenvalues --    1.39220   1.40116   1.41189   1.41920   1.42328
 Alpha virt. eigenvalues --    1.44543   1.44982   1.45064   1.46233   1.46403
 Alpha virt. eigenvalues --    1.47071   1.48492   1.50131   1.51219   1.52252
 Alpha virt. eigenvalues --    1.53692   1.54160   1.55869   1.56242   1.56431
 Alpha virt. eigenvalues --    1.57738   1.58075   1.58310   1.58950   1.59164
 Alpha virt. eigenvalues --    1.59467   1.59620   1.60389   1.61396   1.61539
 Alpha virt. eigenvalues --    1.61827   1.62239   1.62910   1.63994   1.64410
 Alpha virt. eigenvalues --    1.64859   1.65547   1.66134   1.66621   1.67393
 Alpha virt. eigenvalues --    1.67440   1.67510   1.69175   1.69399   1.69809
 Alpha virt. eigenvalues --    1.70348   1.71035   1.71995   1.73044   1.73345
 Alpha virt. eigenvalues --    1.74326   1.74701   1.75866   1.76456   1.77208
 Alpha virt. eigenvalues --    1.78796   1.79580   1.81278   1.82603   1.83148
 Alpha virt. eigenvalues --    1.84572   1.85477   1.86001   1.86472   1.87216
 Alpha virt. eigenvalues --    1.88742   1.89336   1.89611   1.91697   1.92697
 Alpha virt. eigenvalues --    1.93442   1.94552   1.96876   1.97534   1.97770
 Alpha virt. eigenvalues --    1.98804   2.00026   2.00677   2.01560   2.02420
 Alpha virt. eigenvalues --    2.02600   2.04838   2.06008   2.06284   2.06760
 Alpha virt. eigenvalues --    2.06923   2.07511   2.08145   2.08620   2.09750
 Alpha virt. eigenvalues --    2.10942   2.11426   2.12049   2.13651   2.13976
 Alpha virt. eigenvalues --    2.14339   2.15696   2.16595   2.19559   2.19753
 Alpha virt. eigenvalues --    2.20565   2.21303   2.22617   2.23651   2.23888
 Alpha virt. eigenvalues --    2.24646   2.25756   2.26309   2.26848   2.28493
 Alpha virt. eigenvalues --    2.29660   2.30710   2.30916   2.31493   2.32867
 Alpha virt. eigenvalues --    2.33093   2.33487   2.35658   2.36432   2.36710
 Alpha virt. eigenvalues --    2.38098   2.38470   2.38670   2.39480   2.39917
 Alpha virt. eigenvalues --    2.40160   2.40778   2.41652   2.41967   2.43149
 Alpha virt. eigenvalues --    2.43302   2.44367   2.44852   2.45179   2.45446
 Alpha virt. eigenvalues --    2.45662   2.46077   2.48206   2.48760   2.49246
 Alpha virt. eigenvalues --    2.50211   2.50887   2.51770   2.52746   2.53856
 Alpha virt. eigenvalues --    2.54458   2.55669   2.57219   2.57854   2.58578
 Alpha virt. eigenvalues --    2.59237   2.59499   2.60730   2.61230   2.62116
 Alpha virt. eigenvalues --    2.62369   2.62942   2.63287   2.64073   2.64635
 Alpha virt. eigenvalues --    2.65438   2.65760   2.66907   2.67491   2.68155
 Alpha virt. eigenvalues --    2.68559   2.68886   2.69649   2.70352   2.70480
 Alpha virt. eigenvalues --    2.71458   2.71737   2.73060   2.73437   2.73867
 Alpha virt. eigenvalues --    2.74271   2.74604   2.75625   2.78332   2.78716
 Alpha virt. eigenvalues --    2.79796   2.80505   2.82186   2.83216   2.83859
 Alpha virt. eigenvalues --    2.85366   2.85642   2.86188   2.87010   2.89272
 Alpha virt. eigenvalues --    2.89653   2.90458   2.91085   2.92001   2.93841
 Alpha virt. eigenvalues --    2.94804   2.95456   2.96887   2.99476   3.00118
 Alpha virt. eigenvalues --    3.01620   3.02476   3.03824   3.04590   3.05232
 Alpha virt. eigenvalues --    3.06722   3.08314   3.08776   3.08919   3.10162
 Alpha virt. eigenvalues --    3.10972   3.11444   3.12622   3.12844   3.13629
 Alpha virt. eigenvalues --    3.14280   3.14616   3.14763   3.15499   3.16359
 Alpha virt. eigenvalues --    3.17193   3.17771   3.18090   3.18647   3.19222
 Alpha virt. eigenvalues --    3.19622   3.21564   3.22100   3.23619   3.23935
 Alpha virt. eigenvalues --    3.24407   3.24831   3.25434   3.26149   3.26612
 Alpha virt. eigenvalues --    3.27736   3.28321   3.28747   3.29768   3.30035
 Alpha virt. eigenvalues --    3.30586   3.31075   3.31437   3.32068   3.33254
 Alpha virt. eigenvalues --    3.33341   3.33707   3.34488   3.34881   3.35529
 Alpha virt. eigenvalues --    3.35735   3.36730   3.37947   3.38895   3.39139
 Alpha virt. eigenvalues --    3.39424   3.40120   3.40474   3.41885   3.42257
 Alpha virt. eigenvalues --    3.42792   3.44424   3.44931   3.45604   3.45825
 Alpha virt. eigenvalues --    3.46217   3.46825   3.49342   3.49479   3.50376
 Alpha virt. eigenvalues --    3.50573   3.53201   3.53701   3.54631   3.54837
 Alpha virt. eigenvalues --    3.56121   3.56381   3.57581   3.58111   3.58684
 Alpha virt. eigenvalues --    3.59066   3.60361   3.60959   3.61217   3.63020
 Alpha virt. eigenvalues --    3.63479   3.64041   3.65140   3.65947   3.66205
 Alpha virt. eigenvalues --    3.66874   3.67577   3.69125   3.69468   3.70008
 Alpha virt. eigenvalues --    3.71404   3.71939   3.73197   3.74776   3.76393
 Alpha virt. eigenvalues --    3.77999   3.78718   3.79586   3.81711   3.83259
 Alpha virt. eigenvalues --    3.85042   3.87878   3.88467   3.90349   3.90838
 Alpha virt. eigenvalues --    3.93217   3.94640   3.97575   3.98673   4.01889
 Alpha virt. eigenvalues --    4.02752   4.06096   4.07397   4.08139   4.10510
 Alpha virt. eigenvalues --    4.11147   4.12820   4.14750   4.14895   4.19023
 Alpha virt. eigenvalues --    4.20942   4.21973   4.24720   4.25966   4.26800
 Alpha virt. eigenvalues --    4.27551   4.27779   4.28236   4.29563   4.29781
 Alpha virt. eigenvalues --    4.30478   4.30926   4.31808   4.35174   4.36542
 Alpha virt. eigenvalues --    4.37237   4.37932   4.38496   4.39087   4.39618
 Alpha virt. eigenvalues --    4.41544   4.43099   4.44699   4.45870   4.48407
 Alpha virt. eigenvalues --    4.50927   4.53224   4.53716   4.55058   4.55292
 Alpha virt. eigenvalues --    4.60801   4.62935   4.64643   4.68049   4.69270
 Alpha virt. eigenvalues --    4.71511   4.73861   4.78588   4.81286   4.84828
 Alpha virt. eigenvalues --    4.85976   4.89322   4.93386   4.95669   4.99793
 Alpha virt. eigenvalues --    5.07741   5.12317   5.12457   5.15152   5.21494
 Alpha virt. eigenvalues --    5.24610   5.25948   5.26386   5.29201   5.37883
 Alpha virt. eigenvalues --    5.48135   5.49217   5.53326   5.60376   5.80785
 Alpha virt. eigenvalues --    5.86188   5.87099   5.89313   5.91276   6.01099
 Alpha virt. eigenvalues --    6.13812   6.17548   6.22469   6.36470   6.38494
 Alpha virt. eigenvalues --    6.50987   6.60843   6.63699   6.66169   6.66607
 Alpha virt. eigenvalues --    6.69436   6.74915   6.81355   6.84867   6.89323
 Alpha virt. eigenvalues --    6.92006   6.97976   7.04690   7.06034   7.16280
 Alpha virt. eigenvalues --    7.20692   7.34971   7.42717  12.17308  22.29279
 Alpha virt. eigenvalues --   22.38250  22.41675  22.43076  22.44998  22.56381
 Alpha virt. eigenvalues --   22.60940  22.65012  22.70481  22.77803  22.82299
 Alpha virt. eigenvalues --   22.88746  22.90851  23.44982  44.05415  44.50660
 Alpha virt. eigenvalues --   44.54279
          Condensed to atoms (all electrons):
               1          2          3          4          5          6
     1  C    5.428043  -0.009382  -0.057612  -0.013904  -0.030570   0.470536
     2  C   -0.009382   6.032730   0.060039   0.026882  -0.028862  -0.078022
     3  C   -0.057612   0.060039   5.794466  -0.246572   0.092534  -0.031014
     4  C   -0.013904   0.026882  -0.246572   6.252009   0.079351   0.005714
     5  C   -0.030570  -0.028862   0.092534   0.079351   4.437850  -0.004656
     6  H    0.470536  -0.078022  -0.031014   0.005714  -0.004656   0.517735
     7  H   -0.028010   0.419007  -0.048161   0.010669   0.001036   0.002876
     8  H   -0.000932   0.012801  -0.027062   0.372299  -0.005045   0.000239
     9  H    0.002672  -0.020499  -0.027699   0.394184  -0.006191  -0.000296
    10  O    0.159368  -0.000270   0.024598  -0.161867   0.396325  -0.035600
    11  O    0.000719   0.000450   0.014069  -0.160272   0.743221   0.000415
    12  C    0.199226  -0.052069   0.022537  -0.006133   0.002880  -0.034906
    13  C   -0.045673   0.038840  -0.002942   0.001681  -0.000361  -0.004237
    14  C   -0.019596   0.126479  -0.028019   0.008181  -0.006732   0.005893
    15  O    0.010330  -0.074849   0.154862  -0.021235  -0.003420  -0.000147
    16  Si  -0.001353   0.005704  -0.075551   0.015177  -0.002683  -0.000076
    17  C    0.000218   0.000292  -0.004811   0.013004   0.000649   0.000000
    18  C    0.000182  -0.000840   0.015551  -0.010198   0.000490   0.000001
    19  C   -0.000047  -0.000070   0.000546  -0.001540  -0.000077   0.000002
    20  H   -0.000002   0.000028  -0.000694   0.000257  -0.000008   0.000000
    21  H   -0.000040   0.000146   0.005275  -0.002901  -0.000153  -0.000002
    22  H    0.000014  -0.000281  -0.003933   0.001120  -0.000015  -0.000001
    23  H    0.000007   0.000159  -0.000134   0.000097   0.000000   0.000000
    24  H    0.000001   0.000007   0.000002   0.000019   0.000000   0.000000
    25  H    0.000005   0.000025   0.000839   0.000113  -0.000001   0.000000
    26  H   -0.000010   0.000112  -0.003650   0.002926   0.000532   0.000000
    27  H   -0.000002  -0.000040   0.000062  -0.000322  -0.000017   0.000000
    28  H   -0.000008  -0.000018   0.003512  -0.003165  -0.000029   0.000000
    29  H   -0.023426  -0.034352   0.011210  -0.001133   0.000167  -0.000213
    30  H    0.012720  -0.044087  -0.031320   0.024782  -0.005986   0.000394
    31  H    0.008009  -0.062301   0.019110  -0.010809   0.000403  -0.000151
    32  H   -0.014519  -0.030693  -0.002234   0.000664  -0.000261   0.006295
    33  H   -0.069043   0.014837  -0.000075   0.000558  -0.000080  -0.006709
    34  H    0.011988  -0.000870   0.000052  -0.000022  -0.000004  -0.000224
    35  H   -0.025467   0.020059   0.000782   0.000004  -0.000054   0.001292
    36  H    0.017942  -0.011515  -0.000271  -0.000013   0.000029   0.000637
    37  C    0.057883  -0.155819   0.216933  -0.061502  -0.004975   0.009594
    38  C   -0.013047   0.031094  -0.032344   0.000926   0.002194  -0.002652
    39  C    0.000242  -0.001222  -0.004689   0.000125  -0.000027   0.000456
    40  H    0.001003  -0.023882  -0.041478   0.001330   0.001560  -0.011081
    41  H   -0.001351   0.015601  -0.031688  -0.004267  -0.002202   0.000685
    42  H   -0.004695   0.015541  -0.009886  -0.000784   0.000046   0.000590
    43  H   -0.000012   0.000091  -0.000254   0.000027   0.000000   0.000005
    44  H   -0.000051   0.000301  -0.002343  -0.000082   0.000010  -0.000005
               7          8          9         10         11         12
     1  C   -0.028010  -0.000932   0.002672   0.159368   0.000719   0.199226
     2  C    0.419007   0.012801  -0.020499  -0.000270   0.000450  -0.052069
     3  C   -0.048161  -0.027062  -0.027699   0.024598   0.014069   0.022537
     4  C    0.010669   0.372299   0.394184  -0.161867  -0.160272  -0.006133
     5  C    0.001036  -0.005045  -0.006191   0.396325   0.743221   0.002880
     6  H    0.002876   0.000239  -0.000296  -0.035600   0.000415  -0.034906
     7  H    0.494223  -0.000018  -0.000479   0.002619   0.000038  -0.013966
     8  H   -0.000018   0.452965  -0.010166   0.006331   0.011578  -0.000014
     9  H   -0.000479  -0.010166   0.449553   0.000648   0.003114   0.000406
    10  O    0.002619   0.006331   0.000648   7.994939  -0.101942  -0.059213
    11  O    0.000038   0.011578   0.003114  -0.101942   7.855623   0.000078
    12  C   -0.013966  -0.000014   0.000406  -0.059213   0.000078   5.263199
    13  C   -0.001394  -0.000008  -0.000054   0.008501   0.000001   0.206775
    14  C   -0.023878   0.000700  -0.004602  -0.005196  -0.000042   0.027423
    15  O    0.004026  -0.001563  -0.002944  -0.000326  -0.000196  -0.000320
    16  Si  -0.000288   0.001590  -0.005714  -0.000309  -0.000708   0.000086
    17  C    0.000091  -0.003179  -0.003994  -0.000003   0.000018  -0.000003
    18  C   -0.000004  -0.000708   0.000935  -0.000003   0.000040   0.000000
    19  C   -0.000102   0.000044   0.000079  -0.000001  -0.000001  -0.000001
    20  H   -0.000001   0.000009  -0.000027   0.000000   0.000000   0.000000
    21  H   -0.000005   0.002005  -0.000088  -0.000004  -0.000060   0.000000
    22  H    0.000013  -0.000199  -0.000035   0.000000   0.000000   0.000000
    23  H   -0.000024  -0.000010  -0.000003   0.000000   0.000000   0.000000
    24  H    0.000004  -0.000003  -0.000004   0.000000   0.000000   0.000000
    25  H    0.000028  -0.000004  -0.000014   0.000000   0.000000   0.000000
    26  H    0.000004  -0.000456  -0.002969  -0.000002  -0.000008   0.000000
    27  H   -0.000002   0.000041   0.000426   0.000000  -0.000001   0.000000
    28  H   -0.000015   0.000170   0.000311   0.000001   0.000003   0.000001
    29  H   -0.008032   0.000021   0.000358   0.000674  -0.000006   0.014065
    30  H    0.005998   0.000421  -0.007124   0.004579  -0.000053  -0.013598
    31  H   -0.002677  -0.000240   0.001228  -0.000231  -0.000005  -0.000759
    32  H    0.001791   0.000000  -0.000068   0.002328  -0.000036   0.416268
    33  H   -0.000729  -0.000012   0.000005   0.004245  -0.000066   0.445136
    34  H    0.000290   0.000000   0.000000  -0.000229   0.000000  -0.042543
    35  H   -0.007852   0.000001   0.000001  -0.000099   0.000000  -0.024249
    36  H    0.001456   0.000000   0.000001   0.000019   0.000000  -0.056160
    37  C   -0.007156  -0.014357   0.008497  -0.012065   0.002070  -0.002755
    38  C   -0.000485   0.000267  -0.000343   0.001183  -0.000014   0.001034
    39  C    0.000475   0.000000   0.000004  -0.000011   0.000001   0.000022
    40  H    0.002066  -0.000077  -0.000131   0.003551  -0.000647   0.001169
    41  H   -0.000582   0.002764  -0.000209  -0.000108  -0.000089  -0.000005
    42  H   -0.006667  -0.000004   0.000012   0.000035  -0.000001   0.000365
    43  H    0.000050   0.000001   0.000000   0.000000   0.000000  -0.000001
    44  H   -0.000077  -0.000009   0.000003   0.000001   0.000000   0.000001
              13         14         15         16         17         18
     1  C   -0.045673  -0.019596   0.010330  -0.001353   0.000218   0.000182
     2  C    0.038840   0.126479  -0.074849   0.005704   0.000292  -0.000840
     3  C   -0.002942  -0.028019   0.154862  -0.075551  -0.004811   0.015551
     4  C    0.001681   0.008181  -0.021235   0.015177   0.013004  -0.010198
     5  C   -0.000361  -0.006732  -0.003420  -0.002683   0.000649   0.000490
     6  H   -0.004237   0.005893  -0.000147  -0.000076   0.000000   0.000001
     7  H   -0.001394  -0.023878   0.004026  -0.000288   0.000091  -0.000004
     8  H   -0.000008   0.000700  -0.001563   0.001590  -0.003179  -0.000708
     9  H   -0.000054  -0.004602  -0.002944  -0.005714  -0.003994   0.000935
    10  O    0.008501  -0.005196  -0.000326  -0.000309  -0.000003  -0.000003
    11  O    0.000001  -0.000042  -0.000196  -0.000708   0.000018   0.000040
    12  C    0.206775   0.027423  -0.000320   0.000086  -0.000003   0.000000
    13  C    5.111243  -0.014302   0.000020  -0.000007   0.000000   0.000000
    14  C   -0.014302   5.182003  -0.011143   0.003451  -0.002310  -0.000175
    15  O    0.000020  -0.011143   8.068481   0.388552  -0.022707  -0.027582
    16  Si  -0.000007   0.003451   0.388552  12.432629   0.346576   0.333322
    17  C    0.000000  -0.002310  -0.022707   0.346576   5.169935  -0.043590
    18  C    0.000000  -0.000175  -0.027582   0.333322  -0.043590   5.187253
    19  C    0.000000  -0.000029  -0.020264   0.386756  -0.048579  -0.047412
    20  H    0.000000   0.000002   0.001180  -0.022560   0.000456   0.383993
    21  H    0.000000   0.000021   0.000592  -0.033675   0.000412   0.389486
    22  H    0.000000  -0.000002   0.000542  -0.042029   0.003510   0.396228
    23  H    0.000000  -0.000190   0.000601  -0.033216   0.000727   0.003143
    24  H    0.000000  -0.000013   0.001293  -0.043201   0.003619   0.002890
    25  H    0.000000   0.000011   0.000542  -0.033004   0.003113   0.000612
    26  H    0.000000   0.000108   0.001484  -0.035912   0.393356   0.001235
    27  H    0.000000   0.000037   0.001264  -0.027164   0.383751   0.001511
    28  H    0.000000  -0.000370  -0.001158  -0.040244   0.394036   0.003091
    29  H   -0.003971   0.420263   0.000552  -0.000008  -0.000002   0.000002
    30  H    0.001421   0.421205   0.000200  -0.000569   0.000249   0.000009
    31  H    0.000133   0.425869   0.004805  -0.002212  -0.000272   0.000252
    32  H   -0.040582   0.005762  -0.000003  -0.000003   0.000000   0.000000
    33  H   -0.033983  -0.001484   0.000009   0.000000   0.000000   0.000000
    34  H    0.416322   0.000361   0.000000   0.000000   0.000000   0.000000
    35  H    0.406462  -0.004187  -0.000013  -0.000002   0.000000   0.000000
    36  H    0.414529   0.001204   0.000001   0.000000   0.000000   0.000000
    37  C    0.000921   0.009444  -0.067773  -0.002945  -0.000299   0.004947
    38  C   -0.000478   0.000234   0.013040   0.000068   0.000229  -0.002925
    39  C   -0.000047   0.000001  -0.001079   0.003084   0.000023  -0.001254
    40  H    0.000003  -0.000919   0.005230   0.001266   0.000029  -0.000436
    41  H   -0.000006  -0.000036  -0.004222  -0.003862  -0.000036  -0.003067
    42  H   -0.000854   0.001052   0.000083  -0.000227  -0.000001  -0.000077
    43  H    0.000003  -0.000003  -0.000018   0.000028   0.000000   0.000065
    44  H   -0.000001   0.000009   0.000041  -0.000405   0.000002  -0.001442
              19         20         21         22         23         24
     1  C   -0.000047  -0.000002  -0.000040   0.000014   0.000007   0.000001
     2  C   -0.000070   0.000028   0.000146  -0.000281   0.000159   0.000007
     3  C    0.000546  -0.000694   0.005275  -0.003933  -0.000134   0.000002
     4  C   -0.001540   0.000257  -0.002901   0.001120   0.000097   0.000019
     5  C   -0.000077  -0.000008  -0.000153  -0.000015   0.000000   0.000000
     6  H    0.000002   0.000000  -0.000002  -0.000001   0.000000   0.000000
     7  H   -0.000102  -0.000001  -0.000005   0.000013  -0.000024   0.000004
     8  H    0.000044   0.000009   0.002005  -0.000199  -0.000010  -0.000003
     9  H    0.000079  -0.000027  -0.000088  -0.000035  -0.000003  -0.000004
    10  O   -0.000001   0.000000  -0.000004   0.000000   0.000000   0.000000
    11  O   -0.000001   0.000000  -0.000060   0.000000   0.000000   0.000000
    12  C   -0.000001   0.000000   0.000000   0.000000   0.000000   0.000000
    13  C    0.000000   0.000000   0.000000   0.000000   0.000000   0.000000
    14  C   -0.000029   0.000002   0.000021  -0.000002  -0.000190  -0.000013
    15  O   -0.020264   0.001180   0.000592   0.000542   0.000601   0.001293
    16  Si   0.386756  -0.022560  -0.033675  -0.042029  -0.033216  -0.043201
    17  C   -0.048579   0.000456   0.000412   0.003510   0.000727   0.003619
    18  C   -0.047412   0.383993   0.389486   0.396228   0.003143   0.002890
    19  C    5.107492   0.000558   0.003464   0.000829   0.391016   0.391381
    20  H    0.000558   0.491587  -0.014494  -0.014519  -0.000141   0.000132
    21  H    0.003464  -0.014494   0.510090  -0.021694  -0.000090  -0.000167
    22  H    0.000829  -0.014519  -0.021694   0.518085  -0.000205   0.000291
    23  H    0.391016  -0.000141  -0.000090  -0.000205   0.516486  -0.019380
    24  H    0.391381   0.000132  -0.000167   0.000291  -0.019380   0.528995
    25  H    0.390703   0.000273  -0.000119   0.000624  -0.017960  -0.019087
    26  H    0.002675   0.000214   0.000823  -0.000169  -0.000140  -0.000153
    27  H    0.001706   0.000181   0.000188  -0.000186   0.000277  -0.000117
    28  H    0.001982  -0.000121  -0.000193  -0.000088   0.000837   0.000228
    29  H    0.000007   0.000000   0.000000   0.000000   0.000002   0.000000
    30  H   -0.000012   0.000000  -0.000004   0.000000   0.000001   0.000000
    31  H   -0.000097  -0.000005  -0.000006  -0.000007   0.000621   0.000015
    32  H    0.000000   0.000000   0.000000   0.000000   0.000000   0.000000
    33  H    0.000000   0.000000   0.000000   0.000000   0.000000   0.000000
    34  H    0.000000   0.000000   0.000000   0.000000   0.000000   0.000000
    35  H    0.000000   0.000000   0.000000   0.000000   0.000000   0.000000
    36  H    0.000000   0.000000   0.000000   0.000000   0.000000   0.000000
    37  C    0.000707   0.000264  -0.006320   0.005282   0.000040  -0.000036
    38  C   -0.001006   0.000017   0.001030  -0.001994   0.000011   0.000046
    39  C   -0.000756   0.000094  -0.000209   0.002970   0.000000   0.000003
    40  H   -0.000012   0.000010   0.000014   0.000248   0.000000   0.000000
    41  H    0.000331   0.000554   0.001150  -0.004014  -0.000010  -0.000003
    42  H    0.000031   0.000002   0.000010  -0.000048  -0.000002   0.000000
    43  H   -0.000007  -0.000002  -0.000004   0.000025   0.000000   0.000000
    44  H    0.000035   0.000102   0.000111  -0.000314  -0.000002  -0.000001
              25         26         27         28         29         30
     1  C    0.000005  -0.000010  -0.000002  -0.000008  -0.023426   0.012720
     2  C    0.000025   0.000112  -0.000040  -0.000018  -0.034352  -0.044087
     3  C    0.000839  -0.003650   0.000062   0.003512   0.011210  -0.031320
     4  C    0.000113   0.002926  -0.000322  -0.003165  -0.001133   0.024782
     5  C   -0.000001   0.000532  -0.000017  -0.000029   0.000167  -0.005986
     6  H    0.000000   0.000000   0.000000   0.000000  -0.000213   0.000394
     7  H    0.000028   0.000004  -0.000002  -0.000015  -0.008032   0.005998
     8  H   -0.000004  -0.000456   0.000041   0.000170   0.000021   0.000421
     9  H   -0.000014  -0.002969   0.000426   0.000311   0.000358  -0.007124
    10  O    0.000000  -0.000002   0.000000   0.000001   0.000674   0.004579
    11  O    0.000000  -0.000008  -0.000001   0.000003  -0.000006  -0.000053
    12  C    0.000000   0.000000   0.000000   0.000001   0.014065  -0.013598
    13  C    0.000000   0.000000   0.000000   0.000000  -0.003971   0.001421
    14  C    0.000011   0.000108   0.000037  -0.000370   0.420263   0.421205
    15  O    0.000542   0.001484   0.001264  -0.001158   0.000552   0.000200
    16  Si  -0.033004  -0.035912  -0.027164  -0.040244  -0.000008  -0.000569
    17  C    0.003113   0.393356   0.383751   0.394036  -0.000002   0.000249
    18  C    0.000612   0.001235   0.001511   0.003091   0.000002   0.000009
    19  C    0.390703   0.002675   0.001706   0.001982   0.000007  -0.000012
    20  H    0.000273   0.000214   0.000181  -0.000121   0.000000   0.000000
    21  H   -0.000119   0.000823   0.000188  -0.000193   0.000000  -0.000004
    22  H    0.000624  -0.000169  -0.000186  -0.000088   0.000000   0.000000
    23  H   -0.017960  -0.000140   0.000277   0.000837   0.000002   0.000001
    24  H   -0.019087  -0.000153  -0.000117   0.000228   0.000000   0.000000
    25  H    0.514598  -0.000096  -0.000139  -0.000173   0.000000   0.000000
    26  H   -0.000096   0.510364  -0.017081  -0.019531   0.000000   0.000033
    27  H   -0.000139  -0.017081   0.505030  -0.015225   0.000001  -0.000007
    28  H   -0.000173  -0.019531  -0.015225   0.509355   0.000008   0.000022
    29  H    0.000000   0.000000   0.000001   0.000008   0.503337  -0.024001
    30  H    0.000000   0.000033  -0.000007   0.000022  -0.024001   0.503644
    31  H    0.000003  -0.000036   0.000012   0.000846  -0.018070  -0.022202
    32  H    0.000000   0.000000   0.000000   0.000000  -0.009106   0.000471
    33  H    0.000000   0.000000   0.000000   0.000000   0.000403  -0.000152
    34  H    0.000000   0.000000   0.000000   0.000000  -0.000003  -0.000010
    35  H    0.000000   0.000000   0.000000   0.000000   0.002396  -0.000035
    36  H    0.000000   0.000000   0.000000   0.000000  -0.000049  -0.000035
    37  C   -0.000491   0.000329   0.000027  -0.000054  -0.000581   0.000071
    38  C    0.000333  -0.000001  -0.000005   0.000007   0.000024  -0.000076
    39  C    0.000670  -0.000002   0.000000   0.000000   0.000007  -0.000001
    40  H    0.000005   0.000009  -0.000001  -0.000001   0.000006  -0.000029
    41  H    0.000013  -0.000087  -0.000004   0.000005   0.000009   0.000001
    42  H   -0.000014   0.000000   0.000000   0.000000   0.000016  -0.000030
    43  H    0.000010   0.000000   0.000000   0.000000   0.000000   0.000000
    44  H   -0.000079   0.000001   0.000000   0.000000   0.000000   0.000000
              31         32         33         34         35         36
     1  C    0.008009  -0.014519  -0.069043   0.011988  -0.025467   0.017942
     2  C   -0.062301  -0.030693   0.014837  -0.000870   0.020059  -0.011515
     3  C    0.019110  -0.002234  -0.000075   0.000052   0.000782  -0.000271
     4  C   -0.010809   0.000664   0.000558  -0.000022   0.000004  -0.000013
     5  C    0.000403  -0.000261  -0.000080  -0.000004  -0.000054   0.000029
     6  H   -0.000151   0.006295  -0.006709  -0.000224   0.001292   0.000637
     7  H   -0.002677   0.001791  -0.000729   0.000290  -0.007852   0.001456
     8  H   -0.000240   0.000000  -0.000012   0.000000   0.000001   0.000000
     9  H    0.001228  -0.000068   0.000005   0.000000   0.000001   0.000001
    10  O   -0.000231   0.002328   0.004245  -0.000229  -0.000099   0.000019
    11  O   -0.000005  -0.000036  -0.000066   0.000000   0.000000   0.000000
    12  C   -0.000759   0.416268   0.445136  -0.042543  -0.024249  -0.056160
    13  C    0.000133  -0.040582  -0.033983   0.416322   0.406462   0.414529
    14  C    0.425869   0.005762  -0.001484   0.000361  -0.004187   0.001204
    15  O    0.004805  -0.000003   0.000009   0.000000  -0.000013   0.000001
    16  Si  -0.002212  -0.000003   0.000000   0.000000  -0.000002   0.000000
    17  C   -0.000272   0.000000   0.000000   0.000000   0.000000   0.000000
    18  C    0.000252   0.000000   0.000000   0.000000   0.000000   0.000000
    19  C   -0.000097   0.000000   0.000000   0.000000   0.000000   0.000000
    20  H   -0.000005   0.000000   0.000000   0.000000   0.000000   0.000000
    21  H   -0.000006   0.000000   0.000000   0.000000   0.000000   0.000000
    22  H   -0.000007   0.000000   0.000000   0.000000   0.000000   0.000000
    23  H    0.000621   0.000000   0.000000   0.000000   0.000000   0.000000
    24  H    0.000015   0.000000   0.000000   0.000000   0.000000   0.000000
    25  H    0.000003   0.000000   0.000000   0.000000   0.000000   0.000000
    26  H   -0.000036   0.000000   0.000000   0.000000   0.000000   0.000000
    27  H    0.000012   0.000000   0.000000   0.000000   0.000000   0.000000
    28  H    0.000846   0.000000   0.000000   0.000000   0.000000   0.000000
    29  H   -0.018070  -0.009106   0.000403  -0.000003   0.002396  -0.000049
    30  H   -0.022202   0.000471  -0.000152  -0.000010  -0.000035  -0.000035
    31  H    0.485829   0.000370   0.000034  -0.000004   0.000039   0.000003
    32  H    0.000370   0.515330  -0.020579  -0.003834  -0.002825   0.005956
    33  H    0.000034  -0.020579   0.511348  -0.005538   0.004984  -0.002547
    34  H   -0.000004  -0.003834  -0.005538   0.507950  -0.021989  -0.021609
    35  H    0.000039  -0.002825   0.004984  -0.021989   0.528150  -0.028410
    36  H    0.000003   0.005956  -0.002547  -0.021609  -0.028410   0.527194
    37  C    0.001107   0.000233  -0.000005  -0.000016  -0.000001   0.000000
    38  C    0.000071  -0.000061   0.000016   0.000002   0.000188   0.000050
    39  C   -0.000043   0.000000  -0.000002   0.000000  -0.000004  -0.000016
    40  H   -0.000044  -0.000053   0.000024   0.000004  -0.000034   0.000017
    41  H   -0.000045   0.000001  -0.000001   0.000000   0.000001   0.000003
    42  H   -0.000022  -0.000009   0.000000   0.000021   0.000072   0.000010
    43  H    0.000000   0.000000   0.000000   0.000000   0.000001   0.000000
    44  H    0.000000   0.000000   0.000000   0.000000   0.000000   0.000000
              37         38         39         40         41         42
     1  C    0.057883  -0.013047   0.000242   0.001003  -0.001351  -0.004695
     2  C   -0.155819   0.031094  -0.001222  -0.023882   0.015601   0.015541
     3  C    0.216933  -0.032344  -0.004689  -0.041478  -0.031688  -0.009886
     4  C   -0.061502   0.000926   0.000125   0.001330  -0.004267  -0.000784
     5  C   -0.004975   0.002194  -0.000027   0.001560  -0.002202   0.000046
     6  H    0.009594  -0.002652   0.000456  -0.011081   0.000685   0.000590
     7  H   -0.007156  -0.000485   0.000475   0.002066  -0.000582  -0.006667
     8  H   -0.014357   0.000267   0.000000  -0.000077   0.002764  -0.000004
     9  H    0.008497  -0.000343   0.000004  -0.000131  -0.000209   0.000012
    10  O   -0.012065   0.001183  -0.000011   0.003551  -0.000108   0.000035
    11  O    0.002070  -0.000014   0.000001  -0.000647  -0.000089  -0.000001
    12  C   -0.002755   0.001034   0.000022   0.001169  -0.000005   0.000365
    13  C    0.000921  -0.000478  -0.000047   0.000003  -0.000006  -0.000854
    14  C    0.009444   0.000234   0.000001  -0.000919  -0.000036   0.001052
    15  O   -0.067773   0.013040  -0.001079   0.005230  -0.004222   0.000083
    16  Si  -0.002945   0.000068   0.003084   0.001266  -0.003862  -0.000227
    17  C   -0.000299   0.000229   0.000023   0.000029  -0.000036  -0.000001
    18  C    0.004947  -0.002925  -0.001254  -0.000436  -0.003067  -0.000077
    19  C    0.000707  -0.001006  -0.000756  -0.000012   0.000331   0.000031
    20  H    0.000264   0.000017   0.000094   0.000010   0.000554   0.000002
    21  H   -0.006320   0.001030  -0.000209   0.000014   0.001150   0.000010
    22  H    0.005282  -0.001994   0.002970   0.000248  -0.004014  -0.000048
    23  H    0.000040   0.000011   0.000000   0.000000  -0.000010  -0.000002
    24  H   -0.000036   0.000046   0.000003   0.000000  -0.000003   0.000000
    25  H   -0.000491   0.000333   0.000670   0.000005   0.000013  -0.000014
    26  H    0.000329  -0.000001  -0.000002   0.000009  -0.000087   0.000000
    27  H    0.000027  -0.000005   0.000000  -0.000001  -0.000004   0.000000
    28  H   -0.000054   0.000007   0.000000  -0.000001   0.000005   0.000000
    29  H   -0.000581   0.000024   0.000007   0.000006   0.000009   0.000016
    30  H    0.000071  -0.000076  -0.000001  -0.000029   0.000001  -0.000030
    31  H    0.001107   0.000071  -0.000043  -0.000044  -0.000045  -0.000022
    32  H    0.000233  -0.000061   0.000000  -0.000053   0.000001  -0.000009
    33  H   -0.000005   0.000016  -0.000002   0.000024  -0.000001   0.000000
    34  H   -0.000016   0.000002   0.000000   0.000004   0.000000   0.000021
    35  H   -0.000001   0.000188  -0.000004  -0.000034   0.000001   0.000072
    36  H    0.000000   0.000050  -0.000016   0.000017   0.000003   0.000010
    37  C    5.432587   0.202598  -0.037292   0.439770   0.415156  -0.048412
    38  C    0.202598   5.148523   0.530320  -0.052315  -0.040445   0.409029
    39  C   -0.037292   0.530320   5.016765  -0.002855   0.000608  -0.017209
    40  H    0.439770  -0.052315  -0.002855   0.492138  -0.014030   0.000307
    41  H    0.415156  -0.040445   0.000608  -0.014030   0.484475   0.002841
    42  H   -0.048412   0.409029  -0.017209   0.000307   0.002841   0.504022
    43  H    0.006263  -0.046787   0.421392  -0.000283   0.000198  -0.006533
    44  H    0.006599  -0.076090   0.438647   0.000351   0.000840   0.004415
              43         44
     1  C   -0.000012  -0.000051
     2  C    0.000091   0.000301
     3  C   -0.000254  -0.002343
     4  C    0.000027  -0.000082
     5  C    0.000000   0.000010
     6  H    0.000005  -0.000005
     7  H    0.000050  -0.000077
     8  H    0.000001  -0.000009
     9  H    0.000000   0.000003
    10  O    0.000000   0.000001
    11  O    0.000000   0.000000
    12  C   -0.000001   0.000001
    13  C    0.000003  -0.000001
    14  C   -0.000003   0.000009
    15  O   -0.000018   0.000041
    16  Si   0.000028  -0.000405
    17  C    0.000000   0.000002
    18  C    0.000065  -0.001442
    19  C   -0.000007   0.000035
    20  H   -0.000002   0.000102
    21  H   -0.000004   0.000111
    22  H    0.000025  -0.000314
    23  H    0.000000  -0.000002
    24  H    0.000000  -0.000001
    25  H    0.000010  -0.000079
    26  H    0.000000   0.000001
    27  H    0.000000   0.000000
    28  H    0.000000   0.000000
    29  H    0.000000   0.000000
    30  H    0.000000   0.000000
    31  H    0.000000   0.000000
    32  H    0.000000   0.000000
    33  H    0.000000   0.000000
    34  H    0.000000   0.000000
    35  H    0.000001   0.000000
    36  H    0.000000   0.000000
    37  C    0.006263   0.006599
    38  C   -0.046787  -0.076090
    39  C    0.421392   0.438647
    40  H   -0.000283   0.000351
    41  H    0.000198   0.000840
    42  H   -0.006533   0.004415
    43  H    0.500554  -0.022811
    44  H   -0.022811   0.509222
 Mulliken charges:
               1
     1  C   -0.022357
     2  C   -0.191282
     3  C    0.277459
     4  C   -0.505377
     5  C    0.343134
     6  H    0.186635
     7  H    0.203844
     8  H    0.199822
     9  H    0.231214
    10  O   -0.232465
    11  O   -0.367290
    12  C   -0.293978
    13  C   -0.457954
    14  C   -0.516485
    15  O   -0.396771
    16  Si   0.489639
    17  C   -0.584511
    18  C   -0.585524
    19  C   -0.560331
    20  H    0.172663
    21  H    0.165409
    22  H    0.159949
    23  H    0.157485
    24  H    0.153237
    25  H    0.158664
    26  H    0.166099
    27  H    0.165799
    28  H    0.165979
    29  H    0.169426
    30  H    0.173108
    31  H    0.171482
    32  H    0.169397
    33  H    0.159406
    34  H    0.159904
    35  H    0.150791
    36  H    0.151574
    37  C   -0.398470
    38  C   -0.071465
    39  C   -0.349192
    40  H    0.198199
    41  H    0.185133
    42  H    0.156976
    43  H    0.148003
    44  H    0.143023
 Sum of Mulliken charges =   0.00000
 Mulliken charges with hydrogens summed into heavy atoms:
               1
     1  C    0.164278
     2  C    0.012563
     3  C    0.277459
     4  C   -0.074342
     5  C    0.343134
    10  O   -0.232465
    11  O   -0.367290
    12  C    0.034825
    13  C    0.004316
    14  C   -0.002470
    15  O   -0.396771
    16  Si   0.489639
    17  C   -0.086634
    18  C   -0.087502
    19  C   -0.090946
    37  C   -0.015138
    38  C    0.085510
    39  C   -0.058166
 Electronic spatial extent (au):  <R**2>=           5524.9384
 Charge=              0.0000 electrons
 Dipole moment (field-independent basis, Debye):
    X=              1.8467    Y=              3.9636    Z=              2.3839  Tot=              4.9803
 Quadrupole moment (field-independent basis, Debye-Ang):
   XX=           -115.5019   YY=           -131.7021   ZZ=           -124.0108
   XY=            -13.8721   XZ=             -9.5040   YZ=             -9.5359
 Traceless Quadrupole moment (field-independent basis, Debye-Ang):
   XX=              8.2364   YY=             -7.9639   ZZ=             -0.2725
   XY=            -13.8721   XZ=             -9.5040   YZ=             -9.5359
 Octapole moment (field-independent basis, Debye-Ang**2):
  XXX=              0.5547  YYY=             43.1760  ZZZ=             13.2702  XYY=             24.0201
  XXY=             23.4209  XXZ=             17.7550  XZZ=              2.6653  YZZ=              8.7326
  YYZ=             26.0994  XYZ=             13.2832
 Hexadecapole moment (field-independent basis, Debye-Ang**3):
 XXXX=          -4291.9829 YYYY=          -1903.7558 ZZZZ=          -1295.2696 XXXY=            -92.1081
 XXXZ=            -42.5826 YYYX=            -36.0034 YYYZ=            -74.4139 ZZZX=            -12.7546
 ZZZY=              3.8147 XXYY=          -1111.7500 XXZZ=           -973.6198 YYZZ=           -588.2228
 XXYZ=            -42.1850 YYXZ=            -73.6418 ZZXY=            -24.4146
 N-N= 1.625903602176D+03 E-N=-5.744815917407D+03  KE= 1.059307260589D+03
 1\1\GINC-CPU-E-273\SP\RM062X\def2TZVP\C14H26O3Si1\KE291\26-Jun-2019\0\
 \# m062x/def2tzvp int=ultrafine scrf=(solvent=chloroform)\\IP1_4ginp00
 8\\0,1\C,0,-2.536429,0.143332,-0.044119\C,0,-1.226891,0.349166,0.73248
 4\C,0,-0.0216,0.026633,-0.19849\C,0,-0.154601,-1.446205,-0.624031\C,0,
 -1.538015,-1.875365,-1.086515\H,0,-2.576402,0.855248,-0.876824\H,0,-1.
 166515,1.414913,0.976289\H,0,0.545959,-1.708849,-1.421238\H,0,0.084112
 ,-2.088475,0.230462\O,0,-2.616328,-1.185411,-0.655183\O,0,-1.712381,-2
 .864703,-1.766909\C,0,-3.830045,0.296182,0.756391\C,0,-4.045087,1.7131
 24,1.298104\C,0,-1.183618,-0.435131,2.054819\O,0,1.160536,0.250101,0.5
 59397\Si,0,2.763214,-0.255568,0.487123\C,0,2.941606,-2.025101,1.120968
 \C,0,3.496161,-0.147011,-1.249441\C,0,3.653295,0.931804,1.64199\H,0,4.
 554561,-0.431839,-1.215406\H,0,3.003423,-0.818985,-1.960221\H,0,3.4399
 55,0.870647,-1.648107\H,0,3.247247,0.873793,2.657302\H,0,4.722522,0.69
 8523,1.695379\H,0,3.549931,1.966044,1.298359\H,0,2.490872,-2.758734,0.
 444825\H,0,4.003369,-2.280206,1.219503\H,0,2.479511,-2.145305,2.106624
 \H,0,-1.889531,-0.015431,2.776146\H,0,-1.442296,-1.490376,1.922462\H,0
 ,-0.185498,-0.377209,2.490777\H,0,-3.846096,-0.433458,1.572475\H,0,-4.
 654631,0.030237,0.086037\H,0,-5.017872,1.786958,1.79244\H,0,-3.281921,
 1.995565,2.030162\H,0,-4.026373,2.455202,0.492104\C,0,0.019455,0.92151
 8,-1.471943\C,0,0.095226,2.404399,-1.231412\C,0,1.060818,3.199403,-1.6
 94787\H,0,-0.862886,0.698297,-2.087006\H,0,0.8825,0.606559,-2.066674\H
 ,0,-0.718258,2.854057,-0.662925\H,0,1.054008,4.270052,-1.512811\H,0,1.
 889053,2.810335,-2.282405\\Version=ES64L-G09RevD.01\State=1-A\HF=-1064
 .3397672\RMSD=1.554e-09\Dipole=0.7265586,1.5593849,0.9378955\Quadrupol
 e=6.1235533,-5.9209561,-0.2025971,-10.3135565,-7.0659737,-7.0896865\PG
 =C01 [X(C14H26O3Si1)]\\@


 LIFE IS SO UNCERTAIN - EAT DESSERT FIRST.
 Job cpu time:       0 days  2 hours 27 minutes 57.3 seconds.
 File lengths (MBytes):  RWF=    408 Int=      0 D2E=      0 Chk=     21 Scr=      1
 Normal termination of Gaussian 09 at Wed Jun 26 13:48:45 2019.
