 Entering Gaussian System, Link 0=/usr/local/Cluster-Apps/gaussian/g09/g09
 Initial command:
 /usr/local/Cluster-Apps/gaussian/g09/l1.exe "/home/ke291/rds/hpc-work/26Jun1304IP1NMR/Gau-297345.inp" -scrdir="/home/ke291/rds/hpc-work/26Jun1304IP1NMR/"
 Entering Link 1 = /usr/local/Cluster-Apps/gaussian/g09/l1.exe PID=    297366.
  
 Copyright (c) 1988,1990,1992,1993,1995,1998,2003,2009,2013,
            Gaussian, Inc.  All Rights Reserved.
  
 This is part of the Gaussian(R) 09 program.  It is based on
 the Gaussian(R) 03 system (copyright 2003, Gaussian, Inc.),
 the Gaussian(R) 98 system (copyright 1998, Gaussian, Inc.),
 the Gaussian(R) 94 system (copyright 1995, Gaussian, Inc.),
 the Gaussian 92(TM) system (copyright 1992, Gaussian, Inc.),
 the Gaussian 90(TM) system (copyright 1990, Gaussian, Inc.),
 the Gaussian 88(TM) system (copyright 1988, Gaussian, Inc.),
 the Gaussian 86(TM) system (copyright 1986, Carnegie Mellon
 University), and the Gaussian 82(TM) system (copyright 1983,
 Carnegie Mellon University). Gaussian is a federally registered
 trademark of Gaussian, Inc.
  
 This software contains proprietary and confidential information,
 including trade secrets, belonging to Gaussian, Inc.
  
 This software is provided under written license and may be
 used, copied, transmitted, or stored only in accord with that
 written license.
  
 The following legend is applicable only to US Government
 contracts under FAR:
  
                    RESTRICTED RIGHTS LEGEND
  
 Use, reproduction and disclosure by the US Government is
 subject to restrictions as set forth in subparagraphs (a)
 and (c) of the Commercial Computer Software - Restricted
 Rights clause in FAR 52.227-19.
  
 Gaussian, Inc.
 340 Quinnipiac St., Bldg. 40, Wallingford CT 06492
  
  
 ---------------------------------------------------------------
 Warning -- This program may not be used in any manner that
 competes with the business of Gaussian, Inc. or will provide
 assistance to any competitor of Gaussian, Inc.  The licensee
 of this program is prohibited from giving any competitor of
 Gaussian, Inc. access to this program.  By using this program,
 the user acknowledges that Gaussian, Inc. is engaged in the
 business of creating and licensing software in the field of
 computational chemistry and represents and warrants to the
 licensee that it is not a competitor of Gaussian, Inc. and that
 it will not use this program in any manner prohibited above.
 ---------------------------------------------------------------
  

 Cite this work as:
 Gaussian 09, Revision D.01,
 M. J. Frisch, G. W. Trucks, H. B. Schlegel, G. E. Scuseria, 
 M. A. Robb, J. R. Cheeseman, G. Scalmani, V. Barone, B. Mennucci, 
 G. A. Petersson, H. Nakatsuji, M. Caricato, X. Li, H. P. Hratchian, 
 A. F. Izmaylov, J. Bloino, G. Zheng, J. L. Sonnenberg, M. Hada, 
 M. Ehara, K. Toyota, R. Fukuda, J. Hasegawa, M. Ishida, T. Nakajima, 
 Y. Honda, O. Kitao, H. Nakai, T. Vreven, J. A. Montgomery, Jr., 
 J. E. Peralta, F. Ogliaro, M. Bearpark, J. J. Heyd, E. Brothers, 
 K. N. Kudin, V. N. Staroverov, T. Keith, R. Kobayashi, J. Normand, 
 K. Raghavachari, A. Rendell, J. C. Burant, S. S. Iyengar, J. Tomasi, 
 M. Cossi, N. Rega, J. M. Millam, M. Klene, J. E. Knox, J. B. Cross, 
 V. Bakken, C. Adamo, J. Jaramillo, R. Gomperts, R. E. Stratmann, 
 O. Yazyev, A. J. Austin, R. Cammi, C. Pomelli, J. W. Ochterski, 
 R. L. Martin, K. Morokuma, V. G. Zakrzewski, G. A. Voth, 
 P. Salvador, J. J. Dannenberg, S. Dapprich, A. D. Daniels, 
 O. Farkas, J. B. Foresman, J. V. Ortiz, J. Cioslowski, 
 and D. J. Fox, Gaussian, Inc., Wallingford CT, 2013.
 
 ******************************************
 Gaussian 09:  ES64L-G09RevD.01 24-Apr-2013
                26-Jun-2019 
 ******************************************
 %nprocshared=4
 Will use up to    4 processors via shared memory.
 %mem=6000MB
 %chk=IP1_2ginp002.chk
 --------------------------------------------------------
 # m062x/def2tzvp int=ultrafine scrf=(solvent=chloroform)
 --------------------------------------------------------
 1/38=1/1;
 2/12=2,17=6,18=5,40=1/2;
 3/5=44,7=101,11=2,16=1,25=1,30=1,70=2201,72=7,74=-55,75=-5/1,2,3;
 4//1;
 5/5=2,38=5,53=7/2;
 6/7=2,8=2,9=2,10=2,28=1/1;
 99/5=1,9=1/99;
 ------------
 IP1_2ginp002
 ------------
 Symbolic Z-matrix:
 Charge =  0 Multiplicity = 1
 C                     2.41691  -0.25294   0.57608 
 C                     0.96721  -0.72375   0.76525 
 C                    -0.03932   0.40907   0.41783 
 C                     0.22523   0.81378  -1.04016 
 C                     1.67568   1.10773  -1.37469 
 H                     2.66191   0.45033   1.38143 
 H                     0.76373  -1.51994   0.03903 
 H                    -0.0671   -0.00812  -1.70492 
 H                    -0.35858   1.68944  -1.32887 
 O                     2.64241   0.49225  -0.66283 
 O                     1.99912   1.82139  -2.30102 
 C                     3.47891  -1.35979   0.5814 
 C                     3.30891  -2.43622  -0.49461 
 C                     0.77429  -1.30812   2.17277 
 O                    -1.36791  -0.07418   0.59421 
 Si                   -2.50686  -0.90131  -0.32737 
 C                    -3.24443   0.21292  -1.65987 
 C                    -1.8018   -2.46535  -1.11828 
 C                    -3.83198  -1.36287   0.92486 
 H                    -2.60876  -3.02118  -1.61052 
 H                    -1.04331  -2.25779  -1.88034 
 H                    -1.35495  -3.12789  -0.36943 
 H                    -4.66222  -1.887     0.43851 
 H                    -3.43056  -2.01968   1.70362 
 H                    -4.23981  -0.47275   1.415 
 H                    -4.08758  -0.29205  -2.14575 
 H                    -3.62134   1.14567  -1.22701 
 H                    -2.52358   0.47458  -2.44086 
 H                    -0.28693  -1.47899   2.3641 
 H                     1.29477  -2.2639    2.27547 
 H                     1.15613  -0.63836   2.95054 
 H                     3.49332  -1.81444   1.57786 
 H                     4.44988  -0.8681    0.45525 
 H                     2.40643  -3.03626  -0.34149 
 H                     3.25471  -1.98777  -1.491 
 H                     4.16197  -3.12099  -0.48244 
 C                     0.09839   1.63631   1.36007 
 C                    -0.89718   2.73079   1.0877 
 C                    -0.57961   3.98777   0.77313 
 H                     1.11313   2.04413   1.29265 
 H                    -0.03967   1.27701   2.38702 
 H                    -1.94449   2.44758   1.17221 
 H                    -1.34202   4.74213   0.60146 
 H                     0.45481   4.31117   0.67996 
 
                          Input orientation:                          
 ---------------------------------------------------------------------
 Center     Atomic      Atomic             Coordinates (Angstroms)
 Number     Number       Type             X           Y           Z
 ---------------------------------------------------------------------
      1          6           0        2.416908   -0.252938    0.576081
      2          6           0        0.967206   -0.723754    0.765246
      3          6           0       -0.039320    0.409068    0.417833
      4          6           0        0.225231    0.813784   -1.040158
      5          6           0        1.675681    1.107726   -1.374685
      6          1           0        2.661909    0.450331    1.381429
      7          1           0        0.763731   -1.519938    0.039033
      8          1           0       -0.067101   -0.008122   -1.704923
      9          1           0       -0.358583    1.689440   -1.328874
     10          8           0        2.642413    0.492246   -0.662828
     11          8           0        1.999119    1.821387   -2.301023
     12          6           0        3.478912   -1.359787    0.581400
     13          6           0        3.308907   -2.436222   -0.494610
     14          6           0        0.774290   -1.308123    2.172773
     15          8           0       -1.367913   -0.074180    0.594207
     16         14           0       -2.506861   -0.901311   -0.327368
     17          6           0       -3.244425    0.212924   -1.659873
     18          6           0       -1.801803   -2.465348   -1.118278
     19          6           0       -3.831980   -1.362874    0.924857
     20          1           0       -2.608761   -3.021181   -1.610521
     21          1           0       -1.043312   -2.257788   -1.880337
     22          1           0       -1.354954   -3.127886   -0.369430
     23          1           0       -4.662224   -1.887002    0.438506
     24          1           0       -3.430560   -2.019680    1.703621
     25          1           0       -4.239812   -0.472754    1.414995
     26          1           0       -4.087575   -0.292054   -2.145750
     27          1           0       -3.621340    1.145667   -1.227012
     28          1           0       -2.523583    0.474581   -2.440858
     29          1           0       -0.286933   -1.478987    2.364095
     30          1           0        1.294771   -2.263896    2.275465
     31          1           0        1.156133   -0.638360    2.950537
     32          1           0        3.493321   -1.814443    1.577856
     33          1           0        4.449880   -0.868100    0.455254
     34          1           0        2.406429   -3.036261   -0.341494
     35          1           0        3.254709   -1.987769   -1.490996
     36          1           0        4.161974   -3.120994   -0.482444
     37          6           0        0.098393    1.636313    1.360066
     38          6           0       -0.897183    2.730785    1.087699
     39          6           0       -0.579614    3.987765    0.773125
     40          1           0        1.113133    2.044125    1.292654
     41          1           0       -0.039674    1.277013    2.387016
     42          1           0       -1.944492    2.447579    1.172214
     43          1           0       -1.342022    4.742131    0.601455
     44          1           0        0.454812    4.311168    0.679959
 ---------------------------------------------------------------------
                    Distance matrix (angstroms):
                    1          2          3          4          5
     1  C    0.000000
     2  C    1.535932   0.000000
     3  C    2.548794   1.554695   0.000000
     4  C    2.924649   2.484760   1.536073   0.000000
     5  C    2.491247   2.904404   2.577299   1.517272   0.000000
     6  H    1.096904   2.151784   2.868250   3.454502   3.000163
     7  H    2.150977   1.096675   2.123545   2.626955   3.120075
     8  H    3.381304   2.771941   2.163542   1.096768   2.095582
     9  H    3.886520   3.459272   2.189125   1.091315   2.116299
    10  O    1.463232   2.514830   2.892480   2.467495   1.349121
    11  O    3.571428   4.116381   3.679953   2.398275   1.213271
    12  C    1.533948   2.597500   3.941264   4.235599   3.628571
    13  C    2.590129   3.162807   4.487633   4.513227   4.000191
    14  C    2.522109   1.536176   2.586604   3.889329   4.385578
    15  O    3.789083   2.429811   1.424709   2.449028   3.812729
    16  Si   5.047783   3.646159   2.891570   3.303626   4.756759
    17  C    6.104687   4.949384   3.824661   3.575415   5.008937
    18  C    5.056000   3.774682   3.705165   3.855863   4.992544
    19  C    6.356273   4.844186   4.216767   5.006005   6.459573
    20  H    6.140175   4.869289   4.741609   4.802477   5.954825
    21  H    4.693244   3.659857   3.660834   3.427777   4.356064
    22  H    4.835934   3.529840   3.854960   4.299258   5.304309
    23  H    7.266581   5.757637   5.161744   5.776496   7.240518
    24  H    6.211731   4.679778   4.364926   5.377885   6.732781
    25  H    6.712974   5.253400   4.406368   5.255432   6.728543
    26  H    7.051113   5.849023   4.842716   4.587538   5.980723
    27  H    6.455051   5.340279   4.009858   3.865381   5.299215
    28  H    5.834351   4.888836   3.787871   3.103707   4.378518
    29  H    3.465681   2.167847   2.722866   4.136188   4.951910
    30  H    2.862001   2.181765   3.517859   4.648590   4.983625
    31  H    2.715906   2.195104   2.990118   4.347522   4.693218
    32  H    2.144881   2.869006   4.332344   4.943884   4.534356
    33  H    2.127439   3.499421   4.667491   4.786716   3.866361
    34  H    2.930689   2.940055   4.292850   4.479799   4.332909
    35  H    2.825660   3.452685   4.498787   4.150866   3.476916
    36  H    3.520153   4.184499   5.560819   5.593878   4.985962
    37  C    3.091830   2.584292   1.553351   2.540417   3.200954
    38  C    4.488603   3.938751   2.564180   3.076115   3.913730
    39  C    5.196300   4.958944   3.636650   3.742984   4.241942
    40  H    2.736751   2.821455   2.183317   2.782826   2.882360
    41  H    3.413947   2.765323   2.151978   3.468469   4.137813
    42  H    5.164298   4.324461   2.890380   3.503081   4.624668
    43  H    6.251473   5.935930   4.528375   4.536859   5.120602
    44  H    4.969072   5.061646   3.941987   3.904255   3.996764
                    6          7          8          9         10
     6  H    0.000000
     7  H    3.047469   0.000000
     8  H    4.145268   2.453009   0.000000
     9  H    4.243172   3.664815   1.762978   0.000000
    10  O    2.044780   2.840940   2.945810   3.298919   0.000000
    11  O    3.984914   4.262218   2.823421   2.553672   2.205476
    12  C    2.141044   2.773449   4.430404   5.260542   2.382826
    13  C    3.502901   2.757222   4.331046   5.582792   3.008062
    14  C    2.698424   2.144254   4.175460   4.746611   3.843416
    15  O    4.139359   2.634832   2.642437   2.797739   4.240718
    16  Si   5.609198   3.348689   2.940727   3.511425   5.345050
    17  C    6.647606   4.685553   3.185322   3.258488   5.977205
    18  C    5.888501   2.969029   3.064523   4.403351   5.357784
    19  C    6.757719   4.682938   4.788049   5.143968   6.919536
    20  H    6.984492   4.043323   3.943028   5.228057   6.388828
    21  H    5.630425   2.737482   2.458608   4.043955   4.757056
    22  H    5.657237   2.690941   3.629743   5.011977   5.400961
    23  H    7.745654   5.453009   5.407368   5.868211   7.760894
    24  H    6.582016   4.540118   5.193977   5.691278   6.985045
    25  H    6.963258   5.293893   5.230802   5.221862   7.253523
    26  H    7.651644   5.460416   4.054523   4.301045   6.935915
    27  H    6.838616   5.285562   3.767259   3.309327   6.322963
    28  H    6.442033   4.575412   2.609388   2.720223   5.463444
    29  H    3.658356   2.551761   4.332283   4.866424   4.650709
    30  H    3.167869   2.416010   4.773542   5.599438   4.248061
    31  H    2.432018   3.067249   4.854566   5.101605   4.067395
    32  H    2.420543   3.147280   5.168756   5.963509   3.326488
    33  H    2.406845   3.766408   5.080260   5.731094   2.523408
    34  H    3.897442   2.267707   4.140883   5.563494   3.550958
    35  H    3.813996   2.960545   3.872879   5.157909   2.685376
    36  H    4.298672   3.792542   5.391614   6.655235   3.923915
    37  C    2.824646   3.485645   3.482199   2.728012   3.445726
    38  C    4.237202   4.682626   3.998673   2.685948   4.539179
    39  C    4.836419   5.716490   4.729747   3.122427   4.966092
    40  H    2.224133   3.794231   3.819704   3.027236   2.927616
    41  H    2.998860   3.739174   4.289090   3.752284   4.136544
    42  H    5.025107   4.935561   4.222912   3.057012   5.313229
    43  H    5.921095   6.630537   5.432284   3.743293   5.961179
    44  H    4.502155   5.874352   4.961484   3.401541   4.601395
                   11         12         13         14         15
    11  O    0.000000
    12  C    4.540707   0.000000
    13  C    4.806860   1.531474   0.000000
    14  C    5.595435   3.138490   3.848613   0.000000
    15  O    4.828295   5.014445   5.351393   2.933176   0.000000
    16  Si   5.622478   6.071700   6.017232   4.145136   1.682453
    17  C    5.522045   7.259476   7.163936   5.757849   2.946965
    18  C    5.849956   5.656600   5.148705   4.336639   2.972970
    19  C    7.385630   7.318956   7.359295   4.772632   2.800301
    20  H    6.720105   6.680158   6.050308   5.356577   3.883986
    21  H    5.106176   5.226573   4.570983   4.542383   3.316154
    22  H    6.283006   5.234168   4.716531   3.782593   3.202169
    23  H    8.101275   8.159441   8.044332   5.735719   3.763383
    24  H    7.763529   7.031048   7.101137   4.290359   3.044714
    25  H    7.615519   7.814116   8.030253   5.139386   3.013363
    26  H    6.445044   8.113515   7.876018   6.581775   3.866703
    27  H    5.761914   7.743464   7.835475   6.074635   3.143692
    28  H    4.721046   6.966268   6.802837   5.944711   3.293681
    29  H    6.154822   4.168189   4.692394   1.091784   2.504896
    30  H    6.174940   2.908220   3.429250   1.093137   3.835540
    31  H    5.860022   3.395375   4.442497   1.095127   3.498771
    32  H    5.522463   1.095374   2.171574   2.829031   5.256204
    33  H    4.564716   1.095649   2.159414   4.080864   5.873358
    34  H    5.253799   2.193745   1.094513   3.460040   4.888263
    35  H    4.091738   2.177029   1.093998   4.476338   5.420196
    36  H    5.693180   2.167992   1.093976   4.670448   6.404834
    37  C    4.129235   4.583759   5.507519   3.128423   2.379576
    38  C    4.549616   6.011599   6.847836   4.503775   2.886685
    39  C    4.559983   6.716004   7.615468   5.642561   4.141597
    40  H    3.707978   4.205878   5.299929   3.482383   3.336260
    41  H    5.141083   4.753253   5.771038   2.718707   2.608468
    42  H    5.292217   6.652699   7.363967   4.743226   2.650623
    43  H    5.302674   7.776581   8.623297   6.599499   4.816386
    44  H    4.179731   6.427645   7.419754   5.822971   4.749838
                   16         17         18         19         20
    16  Si   0.000000
    17  C    1.887085   0.000000
    18  C    1.889142   3.089923   0.000000
    19  C    1.880704   3.083697   3.084067   0.000000
    20  H    2.480063   3.296352   1.096556   3.267168   0.000000
    21  H    2.528580   3.316311   1.095045   4.055447   1.762442
    22  H    2.507249   4.049241   1.095173   3.305466   1.767406
    23  H    2.490731   3.289839   3.307577   1.095697   3.114737
    24  H    2.495774   4.041319   3.288553   1.094991   3.558356
    25  H    2.494516   3.303901   4.041261   1.094932   4.278850
    26  H    2.485229   1.096349   3.317176   3.261995   3.149840
    27  H    2.498308   1.095191   4.044993   3.311750   4.305231
    28  H    2.521943   1.094539   3.303539   4.051689   3.594032
    29  H    3.536349   5.272726   3.923603   3.827825   4.854567
    30  H    4.804559   6.498140   4.598570   5.377691   5.559850
    31  H    4.922533   6.430045   5.351871   5.432271   6.376168
    32  H    6.361279   7.745342   5.977554   7.368199   6.989805
    33  H    7.000703   8.052621   6.641592   8.309906   7.663393
    34  H    5.357110   6.650374   4.317239   6.581916   5.173276
    35  H    5.977467   6.863695   5.092673   7.513188   5.955040
    36  H    7.030249   8.207076   6.033307   8.305106   6.864792
    37  C    4.009279   4.724458   5.155246   4.963100   6.151855
    38  C    4.217298   4.404352   5.717033   5.039603   6.579894
    39  C    5.369211   5.222080   6.834751   6.263405   7.676231
    40  H    4.940083   5.573062   5.885983   6.016399   6.923745
    41  H    4.266144   5.270676   5.421942   4.846493   6.407416
    42  H    3.712152   3.834609   5.422505   4.259501   6.171888
    43  H    5.836780   5.407999   7.424058   6.601179   8.171076
    44  H    6.079157   5.996230   7.365266   7.115568   8.270134
                   21         22         23         24         25
    21  H    0.000000
    22  H    1.771167   0.000000
    23  H    4.314051   3.623615   0.000000
    24  H    4.312818   3.135889   1.770626   0.000000
    25  H    4.925766   4.307703   1.769763   1.769512   0.000000
    26  H    3.633468   4.320240   3.090705   4.270131   3.568576
    27  H    4.319325   4.912760   3.613097   4.317919   3.159430
    28  H    3.157725   4.316744   4.294368   4.921448   4.325562
    29  H    4.381078   3.366258   4.797660   3.257448   4.187905
    30  H    4.768371   3.842264   6.245179   4.766068   5.880494
    31  H    5.549545   4.850307   6.459310   4.949808   5.612623
    32  H    5.721599   5.387284   8.235065   6.928064   7.850350
    33  H    6.128734   6.283537   9.168908   8.061383   8.751465
    34  H    3.856782   3.762603   7.203822   6.267884   7.336848
    35  H    4.324058   4.879218   8.149292   7.409414   8.179725
    36  H    5.458409   5.518090   8.957531   7.977365   9.011296
    37  C    5.193046   5.272662   5.993872   5.092919   4.824024
    38  C    5.806587   6.054486   5.993408   5.418881   4.641439
    39  C    6.801677   7.248384   7.161883   6.714396   5.805625
    40  H    5.764077   5.966881   7.038329   6.109710   5.916390
    41  H    5.631377   5.360139   5.930906   4.778422   4.652706
    42  H    5.680728   5.814639   5.168461   4.737847   3.722335
    43  H    7.432858   7.929688   7.415908   7.162321   6.021134
    44  H    7.207682   7.727612   8.041124   7.498242   6.742824
                   26         27         28         29         30
    26  H    0.000000
    27  H    1.768756   0.000000
    28  H    1.766604   1.768855   0.000000
    29  H    6.016011   5.559058   5.648593   0.000000
    30  H    7.239126   6.932576   6.657536   1.767972   0.000000
    31  H    7.320420   6.592338   6.621638   1.770030   1.765591
    32  H    8.582126   8.200484   7.588994   3.875696   2.349955
    33  H    8.943444   8.487041   7.669383   5.143370   3.900785
    34  H    7.277232   7.389632   6.406119   4.123047   2.946321
    35  H    7.563946   7.560963   6.352485   5.259640   4.254860
    36  H    8.878319   8.907230   7.839657   5.530980   4.069586
    37  C    5.790654   4.557425   4.761450   3.295701   4.181017
    38  C    5.456313   3.910437   4.492922   4.441145   5.582319
    39  C    6.256395   4.618459   5.143070   5.701072   6.697284
    40  H    6.657906   5.437939   5.443187   3.939605   4.422438
    41  H    6.276419   5.089870   5.488358   2.767164   3.785660
    42  H    4.807003   3.203604   4.157205   4.425608   5.823056
    43  H    6.358319   4.633911   5.372498   6.551521   7.670685
    44  H    7.057447   5.501995   5.773191   6.075557   6.817818
                   31         32         33         34         35
    31  H    0.000000
    32  H    2.954636   0.000000
    33  H    4.138597   1.752371   0.000000
    34  H    4.260356   2.521523   3.084059   0.000000
    35  H    5.094324   3.082990   2.543616   1.772080   0.000000
    36  H    5.194604   2.529626   2.457173   1.763231   1.767627
    37  C    2.970278   4.845687   5.101589   5.482270   5.587921
    38  C    4.363188   6.338444   6.476345   6.798181   6.793572
    39  C    5.399535   7.134564   6.998305   7.713350   7.452200
    40  H    3.153752   4.542596   4.507347   5.491209   5.347076
    41  H    2.327265   4.763811   5.337538   5.659728   6.045721
    42  H    4.722216   6.920924   7.238491   7.162006   7.334623
    43  H    6.380333   8.205033   8.064874   8.685817   8.414264
    44  H    5.490465   6.896511   6.544912   7.670521   7.226969
                   36         37         38         39         40
    36  H    0.000000
    37  C    6.522231   0.000000
    38  C    7.893272   1.504402   0.000000
    39  C    8.636757   2.516649   1.334094   0.000000
    40  H    6.254987   1.095697   2.134216   2.629266   0.000000
    41  H    6.725334   1.096716   2.130023   3.200681   1.764951
    42  H    8.428275   2.206087   1.088212   2.096267   3.086479
    43  H    9.659065   3.506621   2.116560   1.086188   3.712786
    44  H    8.386374   2.782881   2.119376   1.087799   2.438907
                   41         42         43         44
    41  H    0.000000
    42  H    2.544465   0.000000
    43  H    4.109913   2.440021   0.000000
    44  H    3.516341   3.077651   1.849461   0.000000
 Stoichiometry    C14H26O3Si
 Framework group  C1[X(C14H26O3Si)]
 Deg. of freedom   126
 Full point group                 C1      NOp   1
 Largest Abelian subgroup         C1      NOp   1
 Largest concise Abelian subgroup C1      NOp   1
                         Standard orientation:                         
 ---------------------------------------------------------------------
 Center     Atomic      Atomic             Coordinates (Angstroms)
 Number     Number       Type             X           Y           Z
 ---------------------------------------------------------------------
      1          6           0       -2.416908   -0.252938   -0.576081
      2          6           0       -0.967206   -0.723754   -0.765246
      3          6           0        0.039320    0.409068   -0.417833
      4          6           0       -0.225231    0.813784    1.040158
      5          6           0       -1.675681    1.107726    1.374685
      6          1           0       -2.661909    0.450331   -1.381429
      7          1           0       -0.763731   -1.519938   -0.039033
      8          1           0        0.067101   -0.008122    1.704923
      9          1           0        0.358583    1.689440    1.328874
     10          8           0       -2.642413    0.492246    0.662828
     11          8           0       -1.999119    1.821387    2.301023
     12          6           0       -3.478912   -1.359787   -0.581400
     13          6           0       -3.308907   -2.436222    0.494610
     14          6           0       -0.774290   -1.308123   -2.172773
     15          8           0        1.367913   -0.074180   -0.594207
     16         14           0        2.506861   -0.901311    0.327368
     17          6           0        3.244425    0.212924    1.659873
     18          6           0        1.801803   -2.465348    1.118278
     19          6           0        3.831980   -1.362874   -0.924857
     20          1           0        2.608761   -3.021181    1.610521
     21          1           0        1.043312   -2.257788    1.880337
     22          1           0        1.354954   -3.127886    0.369430
     23          1           0        4.662224   -1.887002   -0.438506
     24          1           0        3.430560   -2.019680   -1.703621
     25          1           0        4.239812   -0.472754   -1.414995
     26          1           0        4.087575   -0.292054    2.145750
     27          1           0        3.621340    1.145667    1.227012
     28          1           0        2.523583    0.474581    2.440858
     29          1           0        0.286933   -1.478987   -2.364095
     30          1           0       -1.294771   -2.263896   -2.275465
     31          1           0       -1.156133   -0.638360   -2.950537
     32          1           0       -3.493321   -1.814443   -1.577856
     33          1           0       -4.449880   -0.868100   -0.455254
     34          1           0       -2.406429   -3.036261    0.341494
     35          1           0       -3.254709   -1.987769    1.490996
     36          1           0       -4.161974   -3.120994    0.482444
     37          6           0       -0.098393    1.636313   -1.360066
     38          6           0        0.897183    2.730785   -1.087699
     39          6           0        0.579614    3.987765   -0.773125
     40          1           0       -1.113133    2.044125   -1.292654
     41          1           0        0.039674    1.277013   -2.387016
     42          1           0        1.944492    2.447579   -1.172214
     43          1           0        1.342022    4.742131   -0.601455
     44          1           0       -0.454812    4.311168   -0.679959
 ---------------------------------------------------------------------
 Rotational constants (GHZ):      0.4437597      0.2975758      0.2430224
 Standard basis: def2TZVP (5D, 7F)
 There are   810 symmetry adapted cartesian basis functions of A   symmetry.
 There are   720 symmetry adapted basis functions of A   symmetry.
   720 basis functions,  1144 primitive gaussians,   810 cartesian basis functions
    74 alpha electrons       74 beta electrons
       nuclear repulsion energy      1632.9993819168 Hartrees.
 NAtoms=   44 NActive=   44 NUniq=   44 SFac= 1.00D+00 NAtFMM=   60 NAOKFM=F Big=F
 Integral buffers will be    131072 words long.
 Raffenetti 2 integral format.
 Two-electron integral symmetry is turned on.
 ------------------------------------------------------------------------------
 Polarizable Continuum Model (PCM)
 =================================
 Model                : PCM (using non-symmetric T matrix).
 Atomic radii         : UFF (Universal Force Field).
 Polarization charges : Total charges.
 Charge compensation  : None.
 Solution method      : On-the-fly selection.
 Cavity type          : Scaled VdW (van der Waals Surface) (Alpha=1.100).
 Cavity algorithm     : GePol (No added spheres)
                        Default sphere list used, NSphG=   44.
                        Lebedev-Laikov grids with approx.  5.0 points / Ang**2.
                        Smoothing algorithm: Karplus/York (Gamma=1.0000).
                        Polarization charges: spherical gaussians, with
                                              point-specific exponents (IZeta= 3).
                        Self-potential: point-specific (ISelfS= 7).
                        Self-field    : sphere-specific E.n sum rule (ISelfD= 2).
 Solvent              : Chloroform, Eps=   4.711300 Eps(inf)=   2.090627
 ------------------------------------------------------------------------------
 One-electron integrals computed using PRISM.
   1 Symmetry operations used in ECPInt.
 ECPInt:  NShTT=   46360 NPrTT=  137514 LenC2=   42371 LenP2D=   90913.
 LDataN:  DoStor=T MaxTD1= 6 Len=  172
 NBasis=   720 RedAO= T EigKep=  3.51D-05  NBF=   720
 NBsUse=   720 1.00D-06 EigRej= -1.00D+00 NBFU=   720
 ExpMin= 7.01D-02 ExpMax= 4.48D+04 ExpMxC= 1.53D+03 IAcc=3 IRadAn=         5 AccDes= 0.00D+00
 Harris functional with IExCor= 1009 and IRadAn=       5 diagonalized for initial guess.
 HarFok:  IExCor= 1009 AccDes= 0.00D+00 IRadAn=         5 IDoV= 1 UseB2=F ITyADJ=14
 ICtDFT=  3500011 ScaDFX=  1.000000  1.000000  1.000000  1.000000
 FoFCou: FMM=F IPFlag=           0 FMFlag=      100000 FMFlg1=           0
         NFxFlg=           0 DoJE=T BraDBF=F KetDBF=T FulRan=T
         wScrn=  0.000000 ICntrl=     500 IOpCl=  0 I1Cent=   200000004 NGrid=           0
         NMat0=    1 NMatS0=      1 NMatT0=    0 NMatD0=    1 NMtDS0=    0 NMtDT0=    0
 Petite list used in FoFCou.
 Requested convergence on RMS density matrix=1.00D-08 within 128 cycles.
 Requested convergence on MAX density matrix=1.00D-06.
 Requested convergence on             energy=1.00D-06.
 No special actions if energy rises.
 Inv3:  Mode=1 IEnd=    26107500.
 Iteration    1 A*A^-1 deviation from unit magnitude is 5.11D-15 for   2909.
 Iteration    1 A*A^-1 deviation from orthogonality  is 2.91D-15 for   2939   1753.
 Iteration    1 A^-1*A deviation from unit magnitude is 5.33D-15 for   2909.
 Iteration    1 A^-1*A deviation from orthogonality  is 4.70D-13 for   2245   2219.
 Error on total polarization charges =  0.01462
 SCF Done:  E(RM062X) =  -1064.34111013     A.U. after   14 cycles
            NFock= 14  Conv=0.15D-08     -V/T= 2.0047

 **********************************************************************

            Population analysis using the SCF density.

 **********************************************************************

 Orbital symmetries:
       Occupied  (A) (A) (A) (A) (A) (A) (A) (A) (A) (A) (A) (A)
                 (A) (A) (A) (A) (A) (A) (A) (A) (A) (A) (A) (A)
                 (A) (A) (A) (A) (A) (A) (A) (A) (A) (A) (A) (A)
                 (A) (A) (A) (A) (A) (A) (A) (A) (A) (A) (A) (A)
                 (A) (A) (A) (A) (A) (A) (A) (A) (A) (A) (A) (A)
                 (A) (A) (A) (A) (A) (A) (A) (A) (A) (A) (A) (A)
                 (A) (A)
       Virtual   (A) (A) (A) (A) (A) (A) (A) (A) (A) (A) (A) (A)
                 (A) (A) (A) (A) (A) (A) (A) (A) (A) (A) (A) (A)
                 (A) (A) (A) (A) (A) (A) (A) (A) (A) (A) (A) (A)
                 (A) (A) (A) (A) (A) (A) (A) (A) (A) (A) (A) (A)
                 (A) (A) (A) (A) (A) (A) (A) (A) (A) (A) (A) (A)
                 (A) (A) (A) (A) (A) (A) (A) (A) (A) (A) (A) (A)
                 (A) (A) (A) (A) (A) (A) (A) (A) (A) (A) (A) (A)
                 (A) (A) (A) (A) (A) (A) (A) (A) (A) (A) (A) (A)
                 (A) (A) (A) (A) (A) (A) (A) (A) (A) (A) (A) (A)
                 (A) (A) (A) (A) (A) (A) (A) (A) (A) (A) (A) (A)
                 (A) (A) (A) (A) (A) (A) (A) (A) (A) (A) (A) (A)
                 (A) (A) (A) (A) (A) (A) (A) (A) (A) (A) (A) (A)
                 (A) (A) (A) (A) (A) (A) (A) (A) (A) (A) (A) (A)
                 (A) (A) (A) (A) (A) (A) (A) (A) (A) (A) (A) (A)
                 (A) (A) (A) (A) (A) (A) (A) (A) (A) (A) (A) (A)
                 (A) (A) (A) (A) (A) (A) (A) (A) (A) (A) (A) (A)
                 (A) (A) (A) (A) (A) (A) (A) (A) (A) (A) (A) (A)
                 (A) (A) (A) (A) (A) (A) (A) (A) (A) (A) (A) (A)
                 (A) (A) (A) (A) (A) (A) (A) (A) (A) (A) (A) (A)
                 (A) (A) (A) (A) (A) (A) (A) (A) (A) (A) (A) (A)
                 (A) (A) (A) (A) (A) (A) (A) (A) (A) (A) (A) (A)
                 (A) (A) (A) (A) (A) (A) (A) (A) (A) (A) (A) (A)
                 (A) (A) (A) (A) (A) (A) (A) (A) (A) (A) (A) (A)
                 (A) (A) (A) (A) (A) (A) (A) (A) (A) (A) (A) (A)
                 (A) (A) (A) (A) (A) (A) (A) (A) (A) (A) (A) (A)
                 (A) (A) (A) (A) (A) (A) (A) (A) (A) (A) (A) (A)
                 (A) (A) (A) (A) (A) (A) (A) (A) (A) (A) (A) (A)
                 (A) (A) (A) (A) (A) (A) (A) (A) (A) (A) (A) (A)
                 (A) (A) (A) (A) (A) (A) (A) (A) (A) (A) (A) (A)
                 (A) (A) (A) (A) (A) (A) (A) (A) (A) (A) (A) (A)
                 (A) (A) (A) (A) (A) (A) (A) (A) (A) (A) (A) (A)
                 (A) (A) (A) (A) (A) (A) (A) (A) (A) (A) (A) (A)
                 (A) (A) (A) (A) (A) (A) (A) (A) (A) (A) (A) (A)
                 (A) (A) (A) (A) (A) (A) (A) (A) (A) (A) (A) (A)
                 (A) (A) (A) (A) (A) (A) (A) (A) (A) (A) (A) (A)
                 (A) (A) (A) (A) (A) (A) (A) (A) (A) (A) (A) (A)
                 (A) (A) (A) (A) (A) (A) (A) (A) (A) (A) (A) (A)
                 (A) (A) (A) (A) (A) (A) (A) (A) (A) (A) (A) (A)
                 (A) (A) (A) (A) (A) (A) (A) (A) (A) (A) (A) (A)
                 (A) (A) (A) (A) (A) (A) (A) (A) (A) (A) (A) (A)
                 (A) (A) (A) (A) (A) (A) (A) (A) (A) (A) (A) (A)
                 (A) (A) (A) (A) (A) (A) (A) (A) (A) (A) (A) (A)
                 (A) (A) (A) (A) (A) (A) (A) (A) (A) (A) (A) (A)
                 (A) (A) (A) (A) (A) (A) (A) (A) (A) (A) (A) (A)
                 (A) (A) (A) (A) (A) (A) (A) (A) (A) (A) (A) (A)
                 (A) (A) (A) (A) (A) (A) (A) (A) (A) (A) (A) (A)
                 (A) (A) (A) (A) (A) (A) (A) (A) (A) (A) (A) (A)
                 (A) (A) (A) (A) (A) (A) (A) (A) (A) (A) (A) (A)
                 (A) (A) (A) (A) (A) (A) (A) (A) (A) (A) (A) (A)
                 (A) (A) (A) (A) (A) (A) (A) (A) (A) (A) (A) (A)
                 (A) (A) (A) (A) (A) (A) (A) (A) (A) (A) (A) (A)
                 (A) (A) (A) (A) (A) (A) (A) (A) (A) (A) (A) (A)
                 (A) (A) (A) (A) (A) (A) (A) (A) (A) (A) (A) (A)
                 (A) (A) (A) (A) (A) (A) (A) (A) (A) (A)
 The electronic state is 1-A.
 Alpha  occ. eigenvalues --  -67.01747 -19.67317 -19.61999 -19.61680 -10.68307
 Alpha  occ. eigenvalues --  -10.62102 -10.61157 -10.55700 -10.55625 -10.54512
 Alpha  occ. eigenvalues --  -10.54468 -10.54246 -10.53369 -10.53318 -10.52842
 Alpha  occ. eigenvalues --  -10.51350 -10.51007 -10.50879  -5.55196  -3.86383
 Alpha  occ. eigenvalues --   -3.86240  -3.86225  -1.22966  -1.14261  -1.13425
 Alpha  occ. eigenvalues --   -0.93640  -0.90787  -0.87866  -0.84916  -0.81016
 Alpha  occ. eigenvalues --   -0.79616  -0.79081  -0.77105  -0.76835  -0.73679
 Alpha  occ. eigenvalues --   -0.69371  -0.69094  -0.64756  -0.62026  -0.60013
 Alpha  occ. eigenvalues --   -0.58248  -0.56328  -0.55704  -0.54695  -0.53978
 Alpha  occ. eigenvalues --   -0.51691  -0.50502  -0.49989  -0.49817  -0.49076
 Alpha  occ. eigenvalues --   -0.48415  -0.47673  -0.47407  -0.46737  -0.46489
 Alpha  occ. eigenvalues --   -0.45755  -0.45481  -0.44914  -0.44576  -0.44096
 Alpha  occ. eigenvalues --   -0.43430  -0.42857  -0.42549  -0.41590  -0.41249
 Alpha  occ. eigenvalues --   -0.40933  -0.39340  -0.38728  -0.37064  -0.36580
 Alpha  occ. eigenvalues --   -0.35982  -0.34291  -0.33487  -0.31955
 Alpha virt. eigenvalues --    0.03107   0.03785   0.04946   0.06687   0.06860
 Alpha virt. eigenvalues --    0.07386   0.09254   0.09606   0.09795   0.10023
 Alpha virt. eigenvalues --    0.11021   0.11164   0.11745   0.12198   0.12836
 Alpha virt. eigenvalues --    0.13079   0.13443   0.14211   0.14537   0.14581
 Alpha virt. eigenvalues --    0.14908   0.15454   0.16027   0.16284   0.16560
 Alpha virt. eigenvalues --    0.16891   0.17174   0.17741   0.18035   0.18869
 Alpha virt. eigenvalues --    0.18987   0.19639   0.20065   0.20265   0.20821
 Alpha virt. eigenvalues --    0.20885   0.21642   0.22010   0.22864   0.23305
 Alpha virt. eigenvalues --    0.23666   0.24281   0.24575   0.25090   0.25237
 Alpha virt. eigenvalues --    0.26393   0.26563   0.26940   0.27304   0.27362
 Alpha virt. eigenvalues --    0.28707   0.29165   0.29607   0.30792   0.30975
 Alpha virt. eigenvalues --    0.31305   0.31784   0.32532   0.33063   0.34036
 Alpha virt. eigenvalues --    0.34438   0.34780   0.34902   0.35470   0.36992
 Alpha virt. eigenvalues --    0.37636   0.37915   0.38495   0.38938   0.39468
 Alpha virt. eigenvalues --    0.39843   0.40256   0.40367   0.40818   0.41302
 Alpha virt. eigenvalues --    0.42008   0.42738   0.43352   0.43653   0.43995
 Alpha virt. eigenvalues --    0.44325   0.44717   0.45183   0.45625   0.46017
 Alpha virt. eigenvalues --    0.46387   0.46668   0.47153   0.47454   0.48025
 Alpha virt. eigenvalues --    0.48334   0.48626   0.48978   0.49162   0.49519
 Alpha virt. eigenvalues --    0.49936   0.50075   0.50545   0.51099   0.51285
 Alpha virt. eigenvalues --    0.52159   0.52575   0.52844   0.53211   0.53391
 Alpha virt. eigenvalues --    0.53534   0.54207   0.55000   0.55354   0.56345
 Alpha virt. eigenvalues --    0.56685   0.57163   0.57776   0.58418   0.58787
 Alpha virt. eigenvalues --    0.59254   0.59881   0.60908   0.61565   0.62891
 Alpha virt. eigenvalues --    0.62983   0.63691   0.64367   0.65008   0.65719
 Alpha virt. eigenvalues --    0.66116   0.67381   0.67849   0.68938   0.69435
 Alpha virt. eigenvalues --    0.69803   0.70512   0.72029   0.72509   0.72976
 Alpha virt. eigenvalues --    0.73698   0.75211   0.76419   0.76793   0.77641
 Alpha virt. eigenvalues --    0.78322   0.79113   0.79823   0.80629   0.82101
 Alpha virt. eigenvalues --    0.82386   0.82777   0.84009   0.84361   0.85029
 Alpha virt. eigenvalues --    0.86494   0.87770   0.88055   0.89608   0.90359
 Alpha virt. eigenvalues --    0.90695   0.91327   0.91979   0.93343   0.93776
 Alpha virt. eigenvalues --    0.94291   0.95568   0.96041   0.96964   0.97532
 Alpha virt. eigenvalues --    0.98904   0.99173   1.00427   1.00886   1.01605
 Alpha virt. eigenvalues --    1.02406   1.03266   1.03813   1.04651   1.04714
 Alpha virt. eigenvalues --    1.05009   1.05613   1.06279   1.06899   1.07398
 Alpha virt. eigenvalues --    1.08389   1.09225   1.09552   1.10226   1.10857
 Alpha virt. eigenvalues --    1.11574   1.13186   1.13491   1.14482   1.14815
 Alpha virt. eigenvalues --    1.15516   1.16632   1.17767   1.18249   1.20115
 Alpha virt. eigenvalues --    1.20938   1.21932   1.22157   1.23016   1.24655
 Alpha virt. eigenvalues --    1.25291   1.26769   1.26910   1.28175   1.28740
 Alpha virt. eigenvalues --    1.30187   1.30465   1.32104   1.32253   1.32824
 Alpha virt. eigenvalues --    1.35553   1.36010   1.36341   1.37811   1.38561
 Alpha virt. eigenvalues --    1.39194   1.40338   1.40801   1.41785   1.42166
 Alpha virt. eigenvalues --    1.44019   1.44435   1.44785   1.46121   1.46815
 Alpha virt. eigenvalues --    1.48325   1.50222   1.50709   1.51054   1.53743
 Alpha virt. eigenvalues --    1.54391   1.55337   1.55815   1.56332   1.56586
 Alpha virt. eigenvalues --    1.56796   1.57442   1.58750   1.58901   1.59236
 Alpha virt. eigenvalues --    1.59575   1.59981   1.60121   1.60724   1.61643
 Alpha virt. eigenvalues --    1.62159   1.62905   1.63446   1.63846   1.65041
 Alpha virt. eigenvalues --    1.65325   1.65974   1.66518   1.66715   1.67320
 Alpha virt. eigenvalues --    1.67888   1.67966   1.68325   1.68779   1.69066
 Alpha virt. eigenvalues --    1.69517   1.69848   1.70806   1.71676   1.73659
 Alpha virt. eigenvalues --    1.74548   1.75350   1.75833   1.76683   1.77668
 Alpha virt. eigenvalues --    1.78686   1.79473   1.81172   1.82374   1.82684
 Alpha virt. eigenvalues --    1.83212   1.84786   1.85511   1.86377   1.87470
 Alpha virt. eigenvalues --    1.88251   1.89037   1.89683   1.90761   1.92240
 Alpha virt. eigenvalues --    1.92500   1.94111   1.95104   1.96185   1.98169
 Alpha virt. eigenvalues --    1.99227   2.00069   2.01484   2.01777   2.02362
 Alpha virt. eigenvalues --    2.03057   2.04296   2.04700   2.05432   2.06078
 Alpha virt. eigenvalues --    2.07170   2.07801   2.08083   2.09116   2.10339
 Alpha virt. eigenvalues --    2.10563   2.11164   2.11707   2.13428   2.14738
 Alpha virt. eigenvalues --    2.15553   2.16817   2.17891   2.18182   2.19731
 Alpha virt. eigenvalues --    2.20622   2.21405   2.21987   2.23088   2.24782
 Alpha virt. eigenvalues --    2.25085   2.25856   2.25981   2.27917   2.28540
 Alpha virt. eigenvalues --    2.29678   2.30263   2.30705   2.31791   2.32969
 Alpha virt. eigenvalues --    2.34758   2.35251   2.35706   2.36792   2.37544
 Alpha virt. eigenvalues --    2.37832   2.38005   2.39019   2.39632   2.40147
 Alpha virt. eigenvalues --    2.40724   2.41584   2.41905   2.42328   2.42957
 Alpha virt. eigenvalues --    2.43423   2.43600   2.44464   2.44479   2.45536
 Alpha virt. eigenvalues --    2.46807   2.47552   2.48091   2.48846   2.49787
 Alpha virt. eigenvalues --    2.51453   2.51930   2.52937   2.53619   2.55279
 Alpha virt. eigenvalues --    2.55647   2.57510   2.57917   2.58060   2.58180
 Alpha virt. eigenvalues --    2.58936   2.59780   2.60692   2.61052   2.61468
 Alpha virt. eigenvalues --    2.62364   2.62559   2.62877   2.63722   2.64031
 Alpha virt. eigenvalues --    2.64638   2.65429   2.66453   2.66832   2.67573
 Alpha virt. eigenvalues --    2.68255   2.68584   2.69307   2.70499   2.70763
 Alpha virt. eigenvalues --    2.71297   2.72050   2.72477   2.73184   2.73798
 Alpha virt. eigenvalues --    2.74064   2.74932   2.76964   2.78120   2.79032
 Alpha virt. eigenvalues --    2.79562   2.80221   2.81184   2.82751   2.83672
 Alpha virt. eigenvalues --    2.84151   2.85068   2.86817   2.87129   2.88726
 Alpha virt. eigenvalues --    2.89938   2.90285   2.91078   2.92034   2.94434
 Alpha virt. eigenvalues --    2.95962   2.96352   2.97297   2.98253   2.98685
 Alpha virt. eigenvalues --    2.99784   3.01580   3.03452   3.03813   3.05255
 Alpha virt. eigenvalues --    3.05623   3.07557   3.08409   3.09767   3.09855
 Alpha virt. eigenvalues --    3.11026   3.11571   3.12227   3.12531   3.13142
 Alpha virt. eigenvalues --    3.13715   3.14336   3.14809   3.15093   3.15945
 Alpha virt. eigenvalues --    3.17253   3.18024   3.18754   3.19254   3.20051
 Alpha virt. eigenvalues --    3.20657   3.22441   3.22789   3.23281   3.23551
 Alpha virt. eigenvalues --    3.24719   3.25124   3.25253   3.25683   3.26382
 Alpha virt. eigenvalues --    3.27395   3.27806   3.28077   3.29012   3.29441
 Alpha virt. eigenvalues --    3.29524   3.30428   3.31133   3.31683   3.32676
 Alpha virt. eigenvalues --    3.32828   3.33052   3.33386   3.34518   3.35645
 Alpha virt. eigenvalues --    3.35704   3.36905   3.38106   3.38513   3.39305
 Alpha virt. eigenvalues --    3.40251   3.41020   3.42173   3.42457   3.43144
 Alpha virt. eigenvalues --    3.43504   3.44005   3.44369   3.44972   3.45170
 Alpha virt. eigenvalues --    3.46295   3.47071   3.47670   3.50331   3.50574
 Alpha virt. eigenvalues --    3.51375   3.52169   3.53284   3.53707   3.54972
 Alpha virt. eigenvalues --    3.55940   3.56743   3.57564   3.58070   3.58414
 Alpha virt. eigenvalues --    3.59792   3.60404   3.61185   3.61886   3.62268
 Alpha virt. eigenvalues --    3.63401   3.63815   3.63997   3.65363   3.66364
 Alpha virt. eigenvalues --    3.66449   3.67334   3.67878   3.68621   3.70276
 Alpha virt. eigenvalues --    3.72455   3.74631   3.75637   3.76519   3.77946
 Alpha virt. eigenvalues --    3.79281   3.79844   3.80941   3.82228   3.84931
 Alpha virt. eigenvalues --    3.86148   3.87378   3.88286   3.91096   3.92753
 Alpha virt. eigenvalues --    3.93230   3.94758   3.96870   3.99391   4.00484
 Alpha virt. eigenvalues --    4.02682   4.04550   4.06008   4.06965   4.09199
 Alpha virt. eigenvalues --    4.10230   4.13938   4.14847   4.15991   4.17317
 Alpha virt. eigenvalues --    4.20012   4.21743   4.23479   4.24804   4.26844
 Alpha virt. eigenvalues --    4.27202   4.27804   4.28664   4.29088   4.29813
 Alpha virt. eigenvalues --    4.29893   4.31426   4.33630   4.35081   4.35954
 Alpha virt. eigenvalues --    4.37131   4.37698   4.38623   4.39026   4.40270
 Alpha virt. eigenvalues --    4.41588   4.42865   4.43852   4.47573   4.48811
 Alpha virt. eigenvalues --    4.50595   4.52598   4.54233   4.57351   4.58353
 Alpha virt. eigenvalues --    4.60381   4.63606   4.66519   4.68311   4.69682
 Alpha virt. eigenvalues --    4.71766   4.75923   4.76821   4.79530   4.83908
 Alpha virt. eigenvalues --    4.85679   4.86500   4.90453   4.95403   5.01764
 Alpha virt. eigenvalues --    5.02928   5.06417   5.16677   5.21865   5.22217
 Alpha virt. eigenvalues --    5.24459   5.25513   5.26578   5.29026   5.36160
 Alpha virt. eigenvalues --    5.48930   5.49744   5.52058   5.60730   5.81646
 Alpha virt. eigenvalues --    5.85469   5.86597   5.88582   5.91766   6.02171
 Alpha virt. eigenvalues --    6.14403   6.17800   6.22604   6.36976   6.38698
 Alpha virt. eigenvalues --    6.51322   6.61570   6.62526   6.64500   6.65939
 Alpha virt. eigenvalues --    6.69924   6.75815   6.81432   6.85645   6.89340
 Alpha virt. eigenvalues --    6.92277   6.98368   7.04330   7.05910   7.15861
 Alpha virt. eigenvalues --    7.19723   7.34737   7.42930  12.17745  22.28537
 Alpha virt. eigenvalues --   22.37862  22.42039  22.44309  22.45204  22.52981
 Alpha virt. eigenvalues --   22.60735  22.63155  22.68793  22.78256  22.80562
 Alpha virt. eigenvalues --   22.90692  22.90949  23.45136  44.06449  44.50478
 Alpha virt. eigenvalues --   44.53784
          Condensed to atoms (all electrons):
               1          2          3          4          5          6
     1  C    5.399022   0.019472  -0.043514   0.011793  -0.051862   0.469753
     2  C    0.019472   5.878011   0.069198  -0.027859  -0.005996  -0.054568
     3  C   -0.043514   0.069198   5.788542  -0.223623   0.080529  -0.032822
     4  C    0.011793  -0.027859  -0.223623   6.247597   0.090077   0.007343
     5  C   -0.051862  -0.005996   0.080529   0.090077   4.440428  -0.005888
     6  H    0.469753  -0.054568  -0.032822   0.007343  -0.005888   0.513948
     7  H   -0.022326   0.416652  -0.047695  -0.013437   0.000623   0.005965
     8  H    0.003834  -0.024028  -0.029324   0.389812  -0.010406  -0.000141
     9  H   -0.000198   0.010523  -0.028369   0.376916  -0.008114   0.000166
    10  O    0.177711  -0.031318   0.028923  -0.158652   0.385313  -0.037703
    11  O    0.001336  -0.000884   0.015230  -0.156016   0.738928   0.000240
    12  C    0.199272  -0.026836   0.022221  -0.007179   0.005103  -0.047527
    13  C   -0.038469   0.023084  -0.002715  -0.000134  -0.001618   0.008249
    14  C   -0.054120   0.207035  -0.017390  -0.002266   0.002408  -0.008685
    15  O    0.007251  -0.034296   0.156068  -0.018314  -0.002895  -0.000139
    16  Si   0.001455  -0.004954  -0.074101   0.015725  -0.001167  -0.000001
    17  C    0.000080  -0.000010  -0.004670   0.006814  -0.000106  -0.000002
    18  C   -0.001081  -0.000595   0.020424  -0.012055   0.000010  -0.000019
    19  C   -0.000055   0.001131  -0.000019  -0.000944  -0.000032   0.000001
    20  H   -0.000004   0.000318  -0.000856   0.000339  -0.000007   0.000000
    21  H   -0.000363  -0.001426   0.001801  -0.003491  -0.000416  -0.000001
    22  H    0.000380   0.001602  -0.001227   0.000723   0.000044  -0.000002
    23  H    0.000001  -0.000011  -0.000032   0.000031   0.000000   0.000000
    24  H    0.000015  -0.000505   0.000780   0.000082  -0.000001   0.000000
    25  H    0.000005  -0.000066  -0.000004   0.000147   0.000002   0.000000
    26  H   -0.000005   0.000020   0.000129  -0.000318  -0.000013   0.000000
    27  H    0.000000  -0.000116   0.003811  -0.003171  -0.000015   0.000000
    28  H   -0.000002   0.000563  -0.003888   0.003503   0.000497   0.000000
    29  H    0.013338  -0.061696   0.007335   0.002800  -0.000370  -0.000100
    30  H   -0.013886  -0.043893   0.011881  -0.000663   0.000067   0.000548
    31  H   -0.003216  -0.025718  -0.023124  -0.000989   0.000201   0.003035
    32  H   -0.027494  -0.018991  -0.001573   0.000820  -0.000341   0.000364
    33  H   -0.066063   0.015337  -0.000471   0.000578  -0.000068  -0.007385
    34  H   -0.029803   0.026759   0.000067   0.000317   0.000251  -0.000595
    35  H    0.019830  -0.013240  -0.000789   0.001820  -0.002411   0.000446
    36  H    0.011205  -0.000886   0.000050  -0.000036   0.000060  -0.000211
    37  C    0.021600  -0.064043   0.169524  -0.053081   0.001222   0.010207
    38  C   -0.004200   0.013135  -0.032609  -0.001120   0.000217  -0.000219
    39  C    0.000718  -0.001018  -0.007756   0.000271   0.000065   0.000186
    40  H    0.005526  -0.021519  -0.010252  -0.013911   0.001422  -0.009696
    41  H   -0.007811   0.010194  -0.076460   0.005863   0.000078  -0.000087
    42  H    0.000023  -0.000535   0.004321  -0.002646   0.000468  -0.000009
    43  H    0.000004   0.000024  -0.000182  -0.000036   0.000013   0.000000
    44  H    0.000003   0.000091  -0.002235   0.000091  -0.000011   0.000072
               7          8          9         10         11         12
     1  C   -0.022326   0.003834  -0.000198   0.177711   0.001336   0.199272
     2  C    0.416652  -0.024028   0.010523  -0.031318  -0.000884  -0.026836
     3  C   -0.047695  -0.029324  -0.028369   0.028923   0.015230   0.022221
     4  C   -0.013437   0.389812   0.376916  -0.158652  -0.156016  -0.007179
     5  C    0.000623  -0.010406  -0.008114   0.385313   0.738928   0.005103
     6  H    0.005965  -0.000141   0.000166  -0.037703   0.000240  -0.047527
     7  H    0.523229   0.001341   0.000039   0.001993  -0.000041  -0.016842
     8  H    0.001341   0.466979  -0.012121   0.002013   0.004558  -0.000112
     9  H    0.000039  -0.012121   0.441326   0.005580   0.010095   0.000012
    10  O    0.001993   0.002013   0.005580   8.002582  -0.102070  -0.044357
    11  O   -0.000041   0.004558   0.010095  -0.102070   7.856652  -0.000340
    12  C   -0.016842  -0.000112   0.000012  -0.044357  -0.000340   5.216315
    13  C   -0.003409   0.000295   0.000017  -0.002321   0.000047   0.222429
    14  C   -0.037985   0.000297  -0.000003   0.004410   0.000030   0.021226
    15  O   -0.005319  -0.007284  -0.000862  -0.000376  -0.000200  -0.000193
    16  Si   0.004795   0.009510  -0.002498  -0.000036  -0.000158  -0.000343
    17  C   -0.000101  -0.005622  -0.004317  -0.000033  -0.000083   0.000002
    18  C   -0.006156  -0.001507   0.000594  -0.000033   0.000007   0.000132
    19  C    0.000222   0.000161   0.000073   0.000000   0.000000   0.000004
    20  H    0.000434   0.000085  -0.000019   0.000000   0.000000   0.000002
    21  H   -0.000676   0.004298   0.000133   0.000031  -0.000009   0.000062
    22  H   -0.001551  -0.000441  -0.000029  -0.000003   0.000000  -0.000023
    23  H   -0.000009   0.000002   0.000000   0.000000   0.000000   0.000000
    24  H    0.000072   0.000002  -0.000005   0.000000   0.000000  -0.000001
    25  H   -0.000003  -0.000016  -0.000002   0.000000   0.000000   0.000000
    26  H   -0.000008   0.000007   0.000213   0.000000  -0.000001   0.000000
    27  H    0.000007   0.000169   0.000582   0.000001   0.000004   0.000000
    28  H   -0.000076   0.000951  -0.002779   0.000000   0.000025   0.000001
    29  H   -0.003392   0.000005  -0.000041  -0.000174   0.000000   0.000015
    30  H   -0.009350   0.000007   0.000012  -0.000025   0.000000   0.006114
    31  H    0.007431   0.000012  -0.000009   0.000099   0.000001  -0.006940
    32  H    0.002834  -0.000020  -0.000004   0.003866   0.000010   0.422691
    33  H   -0.000783  -0.000001  -0.000011   0.002672   0.000007   0.443489
    34  H   -0.014176  -0.000035  -0.000007   0.000896   0.000001  -0.032068
    35  H    0.003216  -0.000084   0.000000   0.003950  -0.000027  -0.055810
    36  H    0.000407  -0.000001   0.000000  -0.000044  -0.000001  -0.041508
    37  C    0.012797   0.006530  -0.007358  -0.006300   0.003179  -0.001254
    38  C   -0.000764   0.000358   0.000947   0.000629  -0.001210   0.000025
    39  C   -0.000018   0.000114  -0.001168  -0.000268   0.000536   0.000005
    40  H   -0.000198  -0.000174   0.000998   0.003749  -0.000860   0.001597
    41  H   -0.000563  -0.000133  -0.000055   0.000159  -0.000018   0.000089
    42  H    0.000020  -0.000085   0.001236   0.000012   0.000022   0.000004
    43  H    0.000000   0.000000   0.000017  -0.000002   0.000007   0.000000
    44  H    0.000003  -0.000019   0.000226  -0.000052   0.000102   0.000003
              13         14         15         16         17         18
     1  C   -0.038469  -0.054120   0.007251   0.001455   0.000080  -0.001081
     2  C    0.023084   0.207035  -0.034296  -0.004954  -0.000010  -0.000595
     3  C   -0.002715  -0.017390   0.156068  -0.074101  -0.004670   0.020424
     4  C   -0.000134  -0.002266  -0.018314   0.015725   0.006814  -0.012055
     5  C   -0.001618   0.002408  -0.002895  -0.001167  -0.000106   0.000010
     6  H    0.008249  -0.008685  -0.000139  -0.000001  -0.000002  -0.000019
     7  H   -0.003409  -0.037985  -0.005319   0.004795  -0.000101  -0.006156
     8  H    0.000295   0.000297  -0.007284   0.009510  -0.005622  -0.001507
     9  H    0.000017  -0.000003  -0.000862  -0.002498  -0.004317   0.000594
    10  O   -0.002321   0.004410  -0.000376  -0.000036  -0.000033  -0.000033
    11  O    0.000047   0.000030  -0.000200  -0.000158  -0.000083   0.000007
    12  C    0.222429   0.021226  -0.000193  -0.000343   0.000002   0.000132
    13  C    5.109381  -0.007939  -0.000004   0.000186  -0.000003   0.000075
    14  C   -0.007939   5.147688  -0.015151  -0.001201  -0.000155  -0.000777
    15  O   -0.000004  -0.015151   8.069316   0.375740  -0.019729  -0.027737
    16  Si   0.000186  -0.001201   0.375740  12.455441   0.350794   0.327684
    17  C   -0.000003  -0.000155  -0.019729   0.350794   5.139763  -0.046158
    18  C    0.000075  -0.000777  -0.027737   0.327684  -0.046158   5.193835
    19  C   -0.000003  -0.000098  -0.018334   0.391491  -0.046025  -0.044918
    20  H   -0.000002  -0.000004   0.001241  -0.022563   0.001103   0.382565
    21  H   -0.000070   0.000531   0.000800  -0.036003   0.001478   0.393140
    22  H    0.000007  -0.001349   0.000147  -0.040624   0.003422   0.392807
    23  H    0.000000  -0.000023   0.001325  -0.043359   0.002891   0.002985
    24  H    0.000000  -0.000131  -0.000093  -0.031760   0.002969   0.000370
    25  H    0.000000   0.000013   0.000653  -0.034330   0.000758   0.003143
    26  H    0.000000   0.000005   0.001252  -0.032792   0.386647   0.002222
    27  H    0.000000   0.000009  -0.001052  -0.040809   0.395271   0.003121
    28  H   -0.000001   0.000006   0.001363  -0.030428   0.389205   0.000969
    29  H   -0.000208   0.422366   0.008539  -0.000297   0.000194  -0.000262
    30  H   -0.001763   0.425530   0.000229  -0.000594   0.000000   0.000312
    31  H    0.000810   0.415294   0.000612   0.000135   0.000006  -0.000028
    32  H   -0.042739   0.001018  -0.000009  -0.000002   0.000000  -0.000001
    33  H   -0.039103  -0.000736   0.000011   0.000005   0.000000  -0.000002
    34  H    0.410745  -0.000722   0.000043  -0.000002   0.000002   0.000050
    35  H    0.414449   0.000399   0.000002  -0.000023   0.000000  -0.000005
    36  H    0.416790   0.000141   0.000000   0.000000   0.000000   0.000000
    37  C    0.000221  -0.001662  -0.097291   0.010292   0.000477  -0.001445
    38  C    0.000002   0.000202   0.012395   0.001056  -0.002466   0.000328
    39  C    0.000000  -0.000116   0.003023  -0.000115   0.000176   0.000019
    40  H   -0.000109   0.002418   0.004180  -0.000192   0.000022   0.000031
    41  H   -0.000019  -0.003153   0.001202  -0.000848   0.000045   0.000062
    42  H    0.000000   0.000120   0.002849  -0.001099   0.000006   0.000182
    43  H    0.000000   0.000001   0.000020   0.000006  -0.000004   0.000000
    44  H    0.000000  -0.000006  -0.000030   0.000008  -0.000003   0.000000
              19         20         21         22         23         24
     1  C   -0.000055  -0.000004  -0.000363   0.000380   0.000001   0.000015
     2  C    0.001131   0.000318  -0.001426   0.001602  -0.000011  -0.000505
     3  C   -0.000019  -0.000856   0.001801  -0.001227  -0.000032   0.000780
     4  C   -0.000944   0.000339  -0.003491   0.000723   0.000031   0.000082
     5  C   -0.000032  -0.000007  -0.000416   0.000044   0.000000  -0.000001
     6  H    0.000001   0.000000  -0.000001  -0.000002   0.000000   0.000000
     7  H    0.000222   0.000434  -0.000676  -0.001551  -0.000009   0.000072
     8  H    0.000161   0.000085   0.004298  -0.000441   0.000002   0.000002
     9  H    0.000073  -0.000019   0.000133  -0.000029   0.000000  -0.000005
    10  O    0.000000   0.000000   0.000031  -0.000003   0.000000   0.000000
    11  O    0.000000   0.000000  -0.000009   0.000000   0.000000   0.000000
    12  C    0.000004   0.000002   0.000062  -0.000023   0.000000  -0.000001
    13  C   -0.000003  -0.000002  -0.000070   0.000007   0.000000   0.000000
    14  C   -0.000098  -0.000004   0.000531  -0.001349  -0.000023  -0.000131
    15  O   -0.018334   0.001241   0.000800   0.000147   0.001325  -0.000093
    16  Si   0.391491  -0.022563  -0.036003  -0.040624  -0.043359  -0.031760
    17  C   -0.046025   0.001103   0.001478   0.003422   0.002891   0.002969
    18  C   -0.044918   0.382565   0.393140   0.392807   0.002985   0.000370
    19  C    5.103972   0.000095   0.003050   0.000966   0.393471   0.390107
    20  H    0.000095   0.491927  -0.014224  -0.015034   0.000223   0.000283
    21  H    0.003050  -0.014224   0.506351  -0.020864  -0.000173  -0.000121
    22  H    0.000966  -0.015034  -0.020864   0.514455   0.000265   0.000771
    23  H    0.393471   0.000223  -0.000173   0.000265   0.525967  -0.019762
    24  H    0.390107   0.000283  -0.000121   0.000771  -0.019762   0.518241
    25  H    0.391417  -0.000133  -0.000090  -0.000193  -0.018311  -0.017992
    26  H    0.001811   0.000157   0.000185  -0.000194  -0.000159  -0.000126
    27  H    0.001855  -0.000128  -0.000194  -0.000095   0.000237  -0.000176
    28  H    0.002622   0.000196   0.000578  -0.000168  -0.000140  -0.000092
    29  H   -0.001035  -0.000005  -0.000016   0.000417   0.000054   0.000875
    30  H    0.000023  -0.000004  -0.000006   0.000048   0.000000  -0.000008
    31  H    0.000008   0.000001  -0.000005   0.000020   0.000000   0.000012
    32  H    0.000000   0.000000   0.000000  -0.000004   0.000000   0.000000
    33  H    0.000000   0.000000   0.000000   0.000001   0.000000   0.000000
    34  H   -0.000001   0.000012   0.000007   0.000190   0.000000   0.000000
    35  H    0.000000  -0.000001   0.000036  -0.000006   0.000000   0.000000
    36  H    0.000000   0.000000   0.000004  -0.000002   0.000000   0.000000
    37  C   -0.000376   0.000024  -0.000040   0.000017   0.000003   0.000084
    38  C   -0.000102  -0.000003   0.000002  -0.000009  -0.000005   0.000017
    39  C   -0.000010   0.000000   0.000000   0.000000   0.000001  -0.000001
    40  H    0.000005   0.000000  -0.000002   0.000001   0.000000  -0.000001
    41  H   -0.000041  -0.000001  -0.000002   0.000001   0.000002  -0.000002
    42  H   -0.000131  -0.000003  -0.000008  -0.000003   0.000017  -0.000007
    43  H    0.000001   0.000000   0.000000   0.000000   0.000000   0.000000
    44  H    0.000000   0.000000   0.000000   0.000000   0.000000   0.000000
              25         26         27         28         29         30
     1  C    0.000005  -0.000005   0.000000  -0.000002   0.013338  -0.013886
     2  C   -0.000066   0.000020  -0.000116   0.000563  -0.061696  -0.043893
     3  C   -0.000004   0.000129   0.003811  -0.003888   0.007335   0.011881
     4  C    0.000147  -0.000318  -0.003171   0.003503   0.002800  -0.000663
     5  C    0.000002  -0.000013  -0.000015   0.000497  -0.000370   0.000067
     6  H    0.000000   0.000000   0.000000   0.000000  -0.000100   0.000548
     7  H   -0.000003  -0.000008   0.000007  -0.000076  -0.003392  -0.009350
     8  H   -0.000016   0.000007   0.000169   0.000951   0.000005   0.000007
     9  H   -0.000002   0.000213   0.000582  -0.002779  -0.000041   0.000012
    10  O    0.000000   0.000000   0.000001   0.000000  -0.000174  -0.000025
    11  O    0.000000  -0.000001   0.000004   0.000025   0.000000   0.000000
    12  C    0.000000   0.000000   0.000000   0.000001   0.000015   0.006114
    13  C    0.000000   0.000000   0.000000  -0.000001  -0.000208  -0.001763
    14  C    0.000013   0.000005   0.000009   0.000006   0.422366   0.425530
    15  O    0.000653   0.001252  -0.001052   0.001363   0.008539   0.000229
    16  Si  -0.034330  -0.032792  -0.040809  -0.030428  -0.000297  -0.000594
    17  C    0.000758   0.386647   0.395271   0.389205   0.000194   0.000000
    18  C    0.003143   0.002222   0.003121   0.000969  -0.000262   0.000312
    19  C    0.391417   0.001811   0.001855   0.002622  -0.001035   0.000023
    20  H   -0.000133   0.000157  -0.000128   0.000196  -0.000005  -0.000004
    21  H   -0.000090   0.000185  -0.000194   0.000578  -0.000016  -0.000006
    22  H   -0.000193  -0.000194  -0.000095  -0.000168   0.000417   0.000048
    23  H   -0.018311  -0.000159   0.000237  -0.000140   0.000054   0.000000
    24  H   -0.017992  -0.000126  -0.000176  -0.000092   0.000875  -0.000008
    25  H    0.515031   0.000245   0.000779  -0.000128   0.000013   0.000000
    26  H    0.000245   0.511233  -0.016028  -0.018035  -0.000007   0.000000
    27  H    0.000779  -0.016028   0.508105  -0.018037  -0.000005   0.000000
    28  H   -0.000128  -0.018035  -0.018037   0.509422  -0.000003   0.000000
    29  H    0.000013  -0.000007  -0.000005  -0.000003   0.488715  -0.019745
    30  H    0.000000   0.000000   0.000000   0.000000  -0.019745   0.502026
    31  H   -0.000001   0.000000   0.000000   0.000000  -0.023299  -0.023388
    32  H    0.000000   0.000000   0.000000   0.000000   0.000474  -0.007254
    33  H    0.000000   0.000000   0.000000   0.000000   0.000024   0.000240
    34  H    0.000000   0.000000   0.000000   0.000000  -0.000016   0.001327
    35  H    0.000000   0.000000   0.000000   0.000000   0.000022  -0.000063
    36  H    0.000000   0.000000   0.000000   0.000000   0.000001  -0.000022
    37  C    0.000031  -0.000053  -0.000147   0.000020  -0.007274   0.000181
    38  C   -0.000132   0.000090  -0.000261   0.000074  -0.000141   0.000045
    39  C    0.000011  -0.000004   0.000124   0.000074   0.000038   0.000000
    40  H    0.000002   0.000000   0.000003  -0.000007  -0.000027  -0.000063
    41  H   -0.000020   0.000000   0.000003   0.000000   0.000431   0.000375
    42  H    0.000583  -0.000008   0.000987  -0.000074   0.000002   0.000001
    43  H   -0.000001   0.000000   0.000000  -0.000001   0.000000   0.000000
    44  H    0.000000   0.000000   0.000004   0.000000   0.000000   0.000000
              31         32         33         34         35         36
     1  C   -0.003216  -0.027494  -0.066063  -0.029803   0.019830   0.011205
     2  C   -0.025718  -0.018991   0.015337   0.026759  -0.013240  -0.000886
     3  C   -0.023124  -0.001573  -0.000471   0.000067  -0.000789   0.000050
     4  C   -0.000989   0.000820   0.000578   0.000317   0.001820  -0.000036
     5  C    0.000201  -0.000341  -0.000068   0.000251  -0.002411   0.000060
     6  H    0.003035   0.000364  -0.007385  -0.000595   0.000446  -0.000211
     7  H    0.007431   0.002834  -0.000783  -0.014176   0.003216   0.000407
     8  H    0.000012  -0.000020  -0.000001  -0.000035  -0.000084  -0.000001
     9  H   -0.000009  -0.000004  -0.000011  -0.000007   0.000000   0.000000
    10  O    0.000099   0.003866   0.002672   0.000896   0.003950  -0.000044
    11  O    0.000001   0.000010   0.000007   0.000001  -0.000027  -0.000001
    12  C   -0.006940   0.422691   0.443489  -0.032068  -0.055810  -0.041508
    13  C    0.000810  -0.042739  -0.039103   0.410745   0.414449   0.416790
    14  C    0.415294   0.001018  -0.000736  -0.000722   0.000399   0.000141
    15  O    0.000612  -0.000009   0.000011   0.000043   0.000002   0.000000
    16  Si   0.000135  -0.000002   0.000005  -0.000002  -0.000023   0.000000
    17  C    0.000006   0.000000   0.000000   0.000002   0.000000   0.000000
    18  C   -0.000028  -0.000001  -0.000002   0.000050  -0.000005   0.000000
    19  C    0.000008   0.000000   0.000000  -0.000001   0.000000   0.000000
    20  H    0.000001   0.000000   0.000000   0.000012  -0.000001   0.000000
    21  H   -0.000005   0.000000   0.000000   0.000007   0.000036   0.000004
    22  H    0.000020  -0.000004   0.000001   0.000190  -0.000006  -0.000002
    23  H    0.000000   0.000000   0.000000   0.000000   0.000000   0.000000
    24  H    0.000012   0.000000   0.000000   0.000000   0.000000   0.000000
    25  H   -0.000001   0.000000   0.000000   0.000000   0.000000   0.000000
    26  H    0.000000   0.000000   0.000000   0.000000   0.000000   0.000000
    27  H    0.000000   0.000000   0.000000   0.000000   0.000000   0.000000
    28  H    0.000000   0.000000   0.000000   0.000000   0.000000   0.000000
    29  H   -0.023299   0.000474   0.000024  -0.000016   0.000022   0.000001
    30  H   -0.023388  -0.007254   0.000240   0.001327  -0.000063  -0.000022
    31  H    0.506393   0.000143  -0.000118  -0.000112  -0.000013  -0.000004
    32  H    0.000143   0.517923  -0.017353  -0.002637   0.005956  -0.003859
    33  H   -0.000118  -0.017353   0.510852   0.005600  -0.001628  -0.005218
    34  H   -0.000112  -0.002637   0.005600   0.539643  -0.028849  -0.021885
    35  H   -0.000013   0.005956  -0.001628  -0.028849   0.516195  -0.022119
    36  H   -0.000004  -0.003859  -0.005218  -0.021885  -0.022119   0.509447
    37  C    0.009072   0.000043  -0.000137  -0.000105   0.000052   0.000002
    38  C   -0.000009  -0.000002  -0.000008   0.000003  -0.000003   0.000000
    39  C   -0.000031   0.000000   0.000000   0.000000   0.000000   0.000000
    40  H    0.000437  -0.000019  -0.000027  -0.000009  -0.000001   0.000002
    41  H   -0.006005   0.000001   0.000008   0.000005   0.000000   0.000000
    42  H    0.000027   0.000000   0.000000   0.000000   0.000000   0.000000
    43  H    0.000000   0.000000   0.000000   0.000000   0.000000   0.000000
    44  H    0.000001   0.000000   0.000000   0.000000   0.000000   0.000000
              37         38         39         40         41         42
     1  C    0.021600  -0.004200   0.000718   0.005526  -0.007811   0.000023
     2  C   -0.064043   0.013135  -0.001018  -0.021519   0.010194  -0.000535
     3  C    0.169524  -0.032609  -0.007756  -0.010252  -0.076460   0.004321
     4  C   -0.053081  -0.001120   0.000271  -0.013911   0.005863  -0.002646
     5  C    0.001222   0.000217   0.000065   0.001422   0.000078   0.000468
     6  H    0.010207  -0.000219   0.000186  -0.009696  -0.000087  -0.000009
     7  H    0.012797  -0.000764  -0.000018  -0.000198  -0.000563   0.000020
     8  H    0.006530   0.000358   0.000114  -0.000174  -0.000133  -0.000085
     9  H   -0.007358   0.000947  -0.001168   0.000998  -0.000055   0.001236
    10  O   -0.006300   0.000629  -0.000268   0.003749   0.000159   0.000012
    11  O    0.003179  -0.001210   0.000536  -0.000860  -0.000018   0.000022
    12  C   -0.001254   0.000025   0.000005   0.001597   0.000089   0.000004
    13  C    0.000221   0.000002   0.000000  -0.000109  -0.000019   0.000000
    14  C   -0.001662   0.000202  -0.000116   0.002418  -0.003153   0.000120
    15  O   -0.097291   0.012395   0.003023   0.004180   0.001202   0.002849
    16  Si   0.010292   0.001056  -0.000115  -0.000192  -0.000848  -0.001099
    17  C    0.000477  -0.002466   0.000176   0.000022   0.000045   0.000006
    18  C   -0.001445   0.000328   0.000019   0.000031   0.000062   0.000182
    19  C   -0.000376  -0.000102  -0.000010   0.000005  -0.000041  -0.000131
    20  H    0.000024  -0.000003   0.000000   0.000000  -0.000001  -0.000003
    21  H   -0.000040   0.000002   0.000000  -0.000002  -0.000002  -0.000008
    22  H    0.000017  -0.000009   0.000000   0.000001   0.000001  -0.000003
    23  H    0.000003  -0.000005   0.000001   0.000000   0.000002   0.000017
    24  H    0.000084   0.000017  -0.000001  -0.000001  -0.000002  -0.000007
    25  H    0.000031  -0.000132   0.000011   0.000002  -0.000020   0.000583
    26  H   -0.000053   0.000090  -0.000004   0.000000   0.000000  -0.000008
    27  H   -0.000147  -0.000261   0.000124   0.000003   0.000003   0.000987
    28  H    0.000020   0.000074   0.000074  -0.000007   0.000000  -0.000074
    29  H   -0.007274  -0.000141   0.000038  -0.000027   0.000431   0.000002
    30  H    0.000181   0.000045   0.000000  -0.000063   0.000375   0.000001
    31  H    0.009072  -0.000009  -0.000031   0.000437  -0.006005   0.000027
    32  H    0.000043  -0.000002   0.000000  -0.000019   0.000001   0.000000
    33  H   -0.000137  -0.000008   0.000000  -0.000027   0.000008   0.000000
    34  H   -0.000105   0.000003   0.000000  -0.000009   0.000005   0.000000
    35  H    0.000052  -0.000003   0.000000  -0.000001   0.000000   0.000000
    36  H    0.000002   0.000000   0.000000   0.000002   0.000000   0.000000
    37  C    5.360782   0.219214  -0.041830   0.417866   0.444375  -0.039386
    38  C    0.219214   5.198151   0.525842  -0.042940  -0.032090   0.409434
    39  C   -0.041830   0.525842   5.007602   0.003570  -0.004634  -0.026578
    40  H    0.417866  -0.042940   0.003570   0.477153  -0.012979   0.002846
    41  H    0.444375  -0.032090  -0.004634  -0.012979   0.493892   0.000246
    42  H   -0.039386   0.409434  -0.026578   0.002846   0.000246   0.489536
    43  H    0.006465  -0.054486   0.427374   0.000201  -0.000340  -0.005962
    44  H    0.007923  -0.065204   0.430630  -0.001141   0.000677   0.003859
              43         44
     1  C    0.000004   0.000003
     2  C    0.000024   0.000091
     3  C   -0.000182  -0.002235
     4  C   -0.000036   0.000091
     5  C    0.000013  -0.000011
     6  H    0.000000   0.000072
     7  H    0.000000   0.000003
     8  H    0.000000  -0.000019
     9  H    0.000017   0.000226
    10  O   -0.000002  -0.000052
    11  O    0.000007   0.000102
    12  C    0.000000   0.000003
    13  C    0.000000   0.000000
    14  C    0.000001  -0.000006
    15  O    0.000020  -0.000030
    16  Si   0.000006   0.000008
    17  C   -0.000004  -0.000003
    18  C    0.000000   0.000000
    19  C    0.000001   0.000000
    20  H    0.000000   0.000000
    21  H    0.000000   0.000000
    22  H    0.000000   0.000000
    23  H    0.000000   0.000000
    24  H    0.000000   0.000000
    25  H   -0.000001   0.000000
    26  H    0.000000   0.000000
    27  H    0.000000   0.000004
    28  H   -0.000001   0.000000
    29  H    0.000000   0.000000
    30  H    0.000000   0.000000
    31  H    0.000000   0.000001
    32  H    0.000000   0.000000
    33  H    0.000000   0.000000
    34  H    0.000000   0.000000
    35  H    0.000000   0.000000
    36  H    0.000000   0.000000
    37  C    0.006465   0.007923
    38  C   -0.054486  -0.065204
    39  C    0.427374   0.430630
    40  H    0.000201  -0.001141
    41  H   -0.000340   0.000677
    42  H   -0.005962   0.003859
    43  H    0.503154  -0.023253
    44  H   -0.023253   0.504540
 Mulliken charges:
               1
     1  C    0.000845
     2  C   -0.228140
     3  C    0.284865
     4  C   -0.463521
     5  C    0.343708
     6  H    0.185276
     7  H    0.202800
     8  H    0.200216
     9  H    0.218261
    10  O   -0.240824
    11  O   -0.369095
    12  C   -0.279478
    13  C   -0.466162
    14  C   -0.497473
    15  O   -0.398952
    16  Si   0.455976
    17  C   -0.552638
    18  C   -0.582289
    19  C   -0.570365
    20  H    0.173989
    21  H    0.165712
    22  H    0.165540
    23  H    0.154508
    24  H    0.156105
    25  H    0.158588
    26  H    0.163536
    27  H    0.165163
    28  H    0.163788
    29  H    0.172454
    30  H    0.171762
    31  H    0.169257
    32  H    0.166159
    33  H    0.160288
    34  H    0.145103
    35  H    0.158701
    36  H    0.157686
    37  C   -0.380421
    38  C   -0.144182
    39  C   -0.316834
    40  H    0.192098
    41  H    0.187554
    42  H    0.159737
    43  H    0.146980
    44  H    0.143720
 Sum of Mulliken charges =   0.00000
 Mulliken charges with hydrogens summed into heavy atoms:
               1
     1  C    0.186121
     2  C   -0.025341
     3  C    0.284865
     4  C   -0.045043
     5  C    0.343708
    10  O   -0.240824
    11  O   -0.369095
    12  C    0.046969
    13  C   -0.004672
    14  C    0.016001
    15  O   -0.398952
    16  Si   0.455976
    17  C   -0.060152
    18  C   -0.077049
    19  C   -0.101164
    37  C   -0.000769
    38  C    0.015555
    39  C   -0.026134
 Electronic spatial extent (au):  <R**2>=           5325.2880
 Charge=              0.0000 electrons
 Dipole moment (field-independent basis, Debye):
    X=              2.0874    Y=             -3.7964    Z=             -3.4167  Tot=              5.5176
 Quadrupole moment (field-independent basis, Debye-Ang):
   XX=           -120.7759   YY=           -121.2961   ZZ=           -128.3071
   XY=              7.3881   XZ=             13.9765   YZ=             -6.9803
 Traceless Quadrupole moment (field-independent basis, Debye-Ang):
   XX=              2.6838   YY=              2.1636   ZZ=             -4.8474
   XY=              7.3881   XZ=             13.9765   YZ=             -6.9803
 Octapole moment (field-independent basis, Debye-Ang**2):
  XXX=              7.5454  YYY=              0.4489  ZZZ=            -16.2925  XYY=              7.1199
  XXY=            -26.3501  XXZ=            -20.8489  XZZ=             10.8283  YZZ=            -26.7441
  YYZ=            -12.1133  XYZ=             13.0182
 Hexadecapole moment (field-independent basis, Debye-Ang**3):
 XXXX=          -3722.9416 YYYY=          -2292.0952 ZZZZ=          -1262.1218 XXXY=             51.5004
 XXXZ=             80.3173 YYYX=             24.6098 YYYZ=             20.0953 ZZZX=             38.5044
 ZZZY=            -20.5826 XXYY=           -993.8151 XXZZ=           -879.9834 YYZZ=           -660.9096
 XXYZ=            -57.5030 YYXZ=             39.7385 ZZXY=             27.9772
 N-N= 1.632999381917D+03 E-N=-5.759053766869D+03  KE= 1.059313558562D+03
 1\1\GINC-CPU-E-68\SP\RM062X\def2TZVP\C14H26O3Si1\KE291\26-Jun-2019\0\\
 # m062x/def2tzvp int=ultrafine scrf=(solvent=chloroform)\\IP1_2ginp002
 \\0,1\C,0,2.416908,-0.252938,0.576081\C,0,0.967206,-0.723754,0.765246\
 C,0,-0.03932,0.409068,0.417833\C,0,0.225231,0.813784,-1.040158\C,0,1.6
 75681,1.107726,-1.374685\H,0,2.661909,0.450331,1.381429\H,0,0.763731,-
 1.519938,0.039033\H,0,-0.067101,-0.008122,-1.704923\H,0,-0.358583,1.68
 944,-1.328874\O,0,2.642413,0.492246,-0.662828\O,0,1.999119,1.821387,-2
 .301023\C,0,3.478912,-1.359787,0.5814\C,0,3.308907,-2.436222,-0.49461\
 C,0,0.77429,-1.308123,2.172773\O,0,-1.367913,-0.07418,0.594207\Si,0,-2
 .506861,-0.901311,-0.327368\C,0,-3.244425,0.212924,-1.659873\C,0,-1.80
 1803,-2.465348,-1.118278\C,0,-3.83198,-1.362874,0.924857\H,0,-2.608761
 ,-3.021181,-1.610521\H,0,-1.043312,-2.257788,-1.880337\H,0,-1.354954,-
 3.127886,-0.36943\H,0,-4.662224,-1.887002,0.438506\H,0,-3.43056,-2.019
 68,1.703621\H,0,-4.239812,-0.472754,1.414995\H,0,-4.087575,-0.292054,-
 2.14575\H,0,-3.62134,1.145667,-1.227012\H,0,-2.523583,0.474581,-2.4408
 58\H,0,-0.286933,-1.478987,2.364095\H,0,1.294771,-2.263896,2.275465\H,
 0,1.156133,-0.63836,2.950537\H,0,3.493321,-1.814443,1.577856\H,0,4.449
 88,-0.8681,0.455254\H,0,2.406429,-3.036261,-0.341494\H,0,3.254709,-1.9
 87769,-1.490996\H,0,4.161974,-3.120994,-0.482444\C,0,0.098393,1.636313
 ,1.360066\C,0,-0.897183,2.730785,1.087699\C,0,-0.579614,3.987765,0.773
 125\H,0,1.113133,2.044125,1.292654\H,0,-0.039674,1.277013,2.387016\H,0
 ,-1.944492,2.447579,1.172214\H,0,-1.342022,4.742131,0.601455\H,0,0.454
 812,4.311168,0.679959\\Version=ES64L-G09RevD.01\State=1-A\HF=-1064.341
 1101\RMSD=1.457e-09\Dipole=-0.8212606,-1.493637,1.3442369\Quadrupole=1
 .9953368,1.6086019,-3.6039387,-5.4928981,10.3911513,5.1896553\PG=C01 [
 X(C14H26O3Si1)]\\@


 Sacred cows make the best hamburger.
                               -- Mark Twain
 Job cpu time:       0 days  2 hours 21 minutes 26.1 seconds.
 File lengths (MBytes):  RWF=    415 Int=      0 D2E=      0 Chk=     21 Scr=      1
 Normal termination of Gaussian 09 at Wed Jun 26 13:54:32 2019.
