 Entering Gaussian System, Link 0=/usr/local/Cluster-Apps/gaussian/g09/g09
 Initial command:
 /usr/local/Cluster-Apps/gaussian/g09/l1.exe "/home/ke291/rds/hpc-work/26Jun1304IP1NMR/Gau-144708.inp" -scrdir="/home/ke291/rds/hpc-work/26Jun1304IP1NMR/"
 Entering Link 1 = /usr/local/Cluster-Apps/gaussian/g09/l1.exe PID=    144717.
  
 Copyright (c) 1988,1990,1992,1993,1995,1998,2003,2009,2013,
            Gaussian, Inc.  All Rights Reserved.
  
 This is part of the Gaussian(R) 09 program.  It is based on
 the Gaussian(R) 03 system (copyright 2003, Gaussian, Inc.),
 the Gaussian(R) 98 system (copyright 1998, Gaussian, Inc.),
 the Gaussian(R) 94 system (copyright 1995, Gaussian, Inc.),
 the Gaussian 92(TM) system (copyright 1992, Gaussian, Inc.),
 the Gaussian 90(TM) system (copyright 1990, Gaussian, Inc.),
 the Gaussian 88(TM) system (copyright 1988, Gaussian, Inc.),
 the Gaussian 86(TM) system (copyright 1986, Carnegie Mellon
 University), and the Gaussian 82(TM) system (copyright 1983,
 Carnegie Mellon University). Gaussian is a federally registered
 trademark of Gaussian, Inc.
  
 This software contains proprietary and confidential information,
 including trade secrets, belonging to Gaussian, Inc.
  
 This software is provided under written license and may be
 used, copied, transmitted, or stored only in accord with that
 written license.
  
 The following legend is applicable only to US Government
 contracts under FAR:
  
                    RESTRICTED RIGHTS LEGEND
  
 Use, reproduction and disclosure by the US Government is
 subject to restrictions as set forth in subparagraphs (a)
 and (c) of the Commercial Computer Software - Restricted
 Rights clause in FAR 52.227-19.
  
 Gaussian, Inc.
 340 Quinnipiac St., Bldg. 40, Wallingford CT 06492
  
  
 ---------------------------------------------------------------
 Warning -- This program may not be used in any manner that
 competes with the business of Gaussian, Inc. or will provide
 assistance to any competitor of Gaussian, Inc.  The licensee
 of this program is prohibited from giving any competitor of
 Gaussian, Inc. access to this program.  By using this program,
 the user acknowledges that Gaussian, Inc. is engaged in the
 business of creating and licensing software in the field of
 computational chemistry and represents and warrants to the
 licensee that it is not a competitor of Gaussian, Inc. and that
 it will not use this program in any manner prohibited above.
 ---------------------------------------------------------------
  

 Cite this work as:
 Gaussian 09, Revision D.01,
 M. J. Frisch, G. W. Trucks, H. B. Schlegel, G. E. Scuseria, 
 M. A. Robb, J. R. Cheeseman, G. Scalmani, V. Barone, B. Mennucci, 
 G. A. Petersson, H. Nakatsuji, M. Caricato, X. Li, H. P. Hratchian, 
 A. F. Izmaylov, J. Bloino, G. Zheng, J. L. Sonnenberg, M. Hada, 
 M. Ehara, K. Toyota, R. Fukuda, J. Hasegawa, M. Ishida, T. Nakajima, 
 Y. Honda, O. Kitao, H. Nakai, T. Vreven, J. A. Montgomery, Jr., 
 J. E. Peralta, F. Ogliaro, M. Bearpark, J. J. Heyd, E. Brothers, 
 K. N. Kudin, V. N. Staroverov, T. Keith, R. Kobayashi, J. Normand, 
 K. Raghavachari, A. Rendell, J. C. Burant, S. S. Iyengar, J. Tomasi, 
 M. Cossi, N. Rega, J. M. Millam, M. Klene, J. E. Knox, J. B. Cross, 
 V. Bakken, C. Adamo, J. Jaramillo, R. Gomperts, R. E. Stratmann, 
 O. Yazyev, A. J. Austin, R. Cammi, C. Pomelli, J. W. Ochterski, 
 R. L. Martin, K. Morokuma, V. G. Zakrzewski, G. A. Voth, 
 P. Salvador, J. J. Dannenberg, S. Dapprich, A. D. Daniels, 
 O. Farkas, J. B. Foresman, J. V. Ortiz, J. Cioslowski, 
 and D. J. Fox, Gaussian, Inc., Wallingford CT, 2013.
 
 ******************************************
 Gaussian 09:  ES64L-G09RevD.01 24-Apr-2013
                26-Jun-2019 
 ******************************************
 %nprocshared=4
 Will use up to    4 processors via shared memory.
 %mem=6000MB
 %chk=IP1_1ginp013.chk
 --------------------------------------------------------
 # m062x/def2tzvp int=ultrafine scrf=(solvent=chloroform)
 --------------------------------------------------------
 1/38=1/1;
 2/12=2,17=6,18=5,40=1/2;
 3/5=44,7=101,11=2,16=1,25=1,30=1,70=2201,72=7,74=-55,75=-5/1,2,3;
 4//1;
 5/5=2,38=5,53=7/2;
 6/7=2,8=2,9=2,10=2,28=1/1;
 99/5=1,9=1/99;
 ------------
 IP1_1ginp013
 ------------
 Symbolic Z-matrix:
 Charge =  0 Multiplicity = 1
 C                     2.43805  -0.42369   0.25202 
 C                     0.98208  -0.79864   0.64018 
 C                    -0.02585   0.36345   0.41058 
 C                     0.1911    0.86657  -1.02473 
 C                     1.5973    1.37778  -1.25111 
 H                     2.9974   -0.18655   1.16349 
 H                     0.65188  -1.58741  -0.04818 
 H                     0.01518   0.04787  -1.73335 
 H                    -0.49073   1.67932  -1.27723 
 O                     2.58859   0.79935  -0.54224 
 O                     1.86887   2.28429  -2.00968 
 C                     3.18843  -1.50891  -0.53361 
 C                     3.4022   -2.8321    0.20755 
 C                     0.92414  -1.36703   2.06668 
 O                    -1.3492   -0.12803   0.60301 
 Si                   -2.53068  -0.87626  -0.33282 
 C                    -3.82272  -1.39987   0.9295 
 C                    -3.28941   0.331    -1.56852 
 C                    -1.87928  -2.3978   -1.24369 
 H                    -3.62205   1.24737  -1.06951 
 H                    -2.59282   0.61542  -2.36331 
 H                    -4.16545  -0.12338  -2.0461 
 H                    -2.70755  -2.89388  -1.76366 
 H                    -1.12404  -2.15646  -1.99901 
 H                    -1.44348  -3.1256   -0.55098 
 H                    -4.67245  -1.88633   0.43763 
 H                    -3.4037   -2.10733   1.65256 
 H                    -4.20669  -0.53884   1.48627 
 H                     1.50197  -2.29011   2.14993 
 H                     1.32775  -0.66124   2.79919 
 H                    -0.11009  -1.58894   2.34034 
 H                     4.16002  -1.08685  -0.81224 
 H                     2.64617  -1.69013  -1.47068 
 H                     4.02785  -3.49888  -0.39306 
 H                     3.90832  -2.67829   1.16674 
 H                     2.46106  -3.35492   0.40125 
 C                     0.15408   1.51454   1.43695 
 C                    -0.76115   2.68674   1.21048 
 C                    -0.35679   3.94175   1.00797 
 H                     1.19668   1.85063   1.43648 
 H                    -0.05059   1.09129   2.42688 
 H                    -1.82677   2.4643    1.22995 
 H                    -1.06534   4.75241   0.86436 
 H                     0.69778   4.2066    0.98152 
 
                          Input orientation:                          
 ---------------------------------------------------------------------
 Center     Atomic      Atomic             Coordinates (Angstroms)
 Number     Number       Type             X           Y           Z
 ---------------------------------------------------------------------
      1          6           0        2.438045   -0.423690    0.252018
      2          6           0        0.982075   -0.798640    0.640176
      3          6           0       -0.025845    0.363446    0.410580
      4          6           0        0.191098    0.866569   -1.024728
      5          6           0        1.597303    1.377775   -1.251111
      6          1           0        2.997404   -0.186554    1.163494
      7          1           0        0.651881   -1.587406   -0.048179
      8          1           0        0.015180    0.047868   -1.733352
      9          1           0       -0.490730    1.679323   -1.277232
     10          8           0        2.588587    0.799352   -0.542242
     11          8           0        1.868871    2.284291   -2.009676
     12          6           0        3.188429   -1.508913   -0.533613
     13          6           0        3.402197   -2.832097    0.207552
     14          6           0        0.924140   -1.367033    2.066675
     15          8           0       -1.349196   -0.128029    0.603007
     16         14           0       -2.530678   -0.876263   -0.332816
     17          6           0       -3.822723   -1.399865    0.929503
     18          6           0       -3.289405    0.330995   -1.568516
     19          6           0       -1.879276   -2.397799   -1.243691
     20          1           0       -3.622051    1.247367   -1.069506
     21          1           0       -2.592822    0.615424   -2.363311
     22          1           0       -4.165445   -0.123378   -2.046105
     23          1           0       -2.707551   -2.893881   -1.763655
     24          1           0       -1.124043   -2.156462   -1.999014
     25          1           0       -1.443482   -3.125604   -0.550983
     26          1           0       -4.672452   -1.886333    0.437631
     27          1           0       -3.403704   -2.107334    1.652564
     28          1           0       -4.206685   -0.538838    1.486272
     29          1           0        1.501972   -2.290107    2.149926
     30          1           0        1.327754   -0.661235    2.799193
     31          1           0       -0.110090   -1.588942    2.340341
     32          1           0        4.160019   -1.086852   -0.812240
     33          1           0        2.646170   -1.690130   -1.470677
     34          1           0        4.027855   -3.498880   -0.393063
     35          1           0        3.908318   -2.678289    1.166744
     36          1           0        2.461063   -3.354920    0.401250
     37          6           0        0.154077    1.514541    1.436945
     38          6           0       -0.761151    2.686743    1.210479
     39          6           0       -0.356786    3.941750    1.007967
     40          1           0        1.196685    1.850634    1.436481
     41          1           0       -0.050592    1.091293    2.426880
     42          1           0       -1.826769    2.464296    1.229951
     43          1           0       -1.065340    4.752408    0.864364
     44          1           0        0.697782    4.206604    0.981518
 ---------------------------------------------------------------------
                    Distance matrix (angstroms):
                    1          2          3          4          5
     1  C    0.000000
     2  C    1.552773   0.000000
     3  C    2.591424   1.555333   0.000000
     4  C    2.888532   2.484043   1.536329   0.000000
     5  C    2.492292   2.948263   2.534697   1.513272   0.000000
     6  H    1.095402   2.170268   3.163766   3.711164   3.199645
     7  H    2.152843   1.097731   2.115560   2.681038   3.336640
     8  H    3.167702   2.699092   2.167422   1.096981   2.122339
     9  H    3.916503   3.462067   2.190059   1.090512   2.109857
    10  O    1.466064   2.555890   2.816583   2.446480   1.348967
    11  O    3.573847   4.160840   3.624532   2.407277   1.212824
    12  C    1.535578   2.598127   3.837810   3.855918   3.373344
    13  C    2.594608   3.190470   4.690862   5.050723   4.807116
    14  C    2.544560   1.536661   2.576758   3.883697   4.358305
    15  O    3.814945   2.426093   1.424722   2.451785   3.793027
    16  Si   5.023451   3.645843   2.892007   3.305188   4.792096
    17  C    6.372529   4.850904   4.218392   5.006646   6.468929
    18  C    6.057027   4.939629   3.816896   3.563207   5.007635
    19  C    4.977300   3.780687   3.714336   3.871756   5.132408
    20  H    6.423677   5.320445   3.988066   3.832378   5.224140
    21  H    5.764488   4.878565   3.787788   3.099208   4.401740
    22  H    6.998402   5.845430   4.838242   4.582867   6.007890
    23  H    6.053259   4.876656   4.746475   4.805118   6.086174
    24  H    4.556107   3.639332   3.655423   3.437666   4.522821
    25  H    4.797020   3.566083   3.886871   4.339785   5.478775
    26  H    7.261745   5.761751   5.162673   5.776771   7.267467
    27  H    6.238767   4.687501   4.365456   5.379088   6.751843
    28  H    6.759370   5.263706   4.410289   5.255548   6.697234
    29  H    2.821666   2.184974   3.521490   4.664914   5.002949
    30  H    2.788776   2.190828   2.930473   4.271831   4.542596
    31  H    3.494552   2.169784   2.746433   4.176594   4.961364
    32  H    2.130170   3.505982   4.595662   4.428695   3.582528
    33  H    2.148224   2.831902   3.859529   3.572528   3.249673
    34  H    3.521423   4.199483   5.656491   5.846097   5.515940
    35  H    2.842823   3.517563   5.030067   5.584469   5.257230
    36  H    2.935117   2.962948   4.473371   5.000712   5.086726
    37  C    3.221382   2.582872   1.552681   2.545795   3.054055
    38  C    4.563803   3.938525   2.564805   3.035780   3.651729
    39  C    5.238283   4.939546   3.642891   3.726763   3.936479
    40  H    2.848943   2.774673   2.181463   2.834985   2.758123
    41  H    3.635727   2.798314   2.143791   3.467350   4.040451
    42  H    5.242657   4.345594   2.885874   3.421710   4.365829
    43  H    6.280180   5.920836   4.533151   4.499672   4.790934
    44  H    5.000031   5.024918   3.952147   3.929069   3.714303
                    6          7          8          9         10
     6  H    0.000000
     7  H    2.988648   0.000000
     8  H    4.164172   2.432965   0.000000
     9  H    4.648195   3.672554   1.767947   0.000000
    10  O    2.012133   3.113124   2.933581   3.285841   0.000000
    11  O    4.177041   4.507613   2.917895   2.543654   2.208257
    12  C    2.159930   2.583773   3.732620   4.924838   2.384947
    13  C    2.841932   3.029669   4.851102   6.141040   3.796258
    14  C    2.551017   2.143664   4.155521   4.739605   3.777573
    15  O    4.382979   2.560885   2.711279   2.745685   4.204494
    16  Si   5.768391   3.273442   3.049084   3.403576   5.390586
    17  C    6.931162   4.584006   4.890422   5.045122   6.935956
    18  C    6.874278   4.639550   3.320785   3.120163   5.985264
    19  C    5.870788   2.914231   3.132095   4.307216   5.538556
    20  H    7.131592   5.229296   3.887022   3.167792   6.249060
    21  H    6.658239   4.554162   2.742379   2.594271   5.495191
    22  H    7.849326   5.416799   4.195803   4.164664   6.980686
    23  H    6.960196   3.991932   4.008500   5.105399   6.571217
    24  H    5.555927   2.698794   2.495491   3.954150   4.964136
    25  H    5.594543   2.647529   3.687359   4.952020   5.626983
    26  H    7.889412   5.354801   5.516176   5.756862   7.803572
    27  H    6.700953   4.428388   5.272389   5.604275   7.012385
    28  H    7.219916   5.201894   5.341755   5.134736   7.216740
    29  H    2.763024   2.459290   4.770380   5.610049   4.239488
    30  H    2.385071   3.069548   4.771755   5.040073   3.858523
    31  H    3.606685   2.507116   4.392017   4.890120   4.614769
    32  H    2.462871   3.625104   4.394966   5.431152   2.469831
    33  H    3.053353   2.451783   3.164134   4.607687   2.657598
    34  H    3.802131   3.894853   5.520630   6.929152   4.535256
    35  H    2.653021   3.642862   5.567676   6.656833   4.093447
    36  H    3.302608   2.568897   4.702960   6.072395   4.261973
    37  C    3.324606   3.474979   3.495884   2.794582   3.217999
    38  C    4.731256   4.674316   4.028957   2.697541   4.225520
    39  C    5.321435   5.718778   4.776558   3.218486   4.577449
    40  H    2.732626   3.784329   3.833244   3.200149   2.637789
    41  H    3.538265   3.714137   4.289591   3.776234   3.983237
    42  H    5.504913   4.918700   4.244180   2.947397   5.040642
    43  H    6.402243   6.631352   5.481637   3.789520   5.563845
    44  H    4.961977   5.884975   5.013138   3.591888   4.184060
                   11         12         13         14         15
    11  O    0.000000
    12  C    4.278831   0.000000
    13  C    5.783132   1.531613   0.000000
    14  C    5.553496   3.450889   3.426882   0.000000
    15  O    4.795973   4.877375   5.481250   2.974140   0.000000
    16  Si   5.670714   5.757495   6.270270   4.234877   1.682712
    17  C    7.389589   7.163020   7.400809   4.881285   2.800447
    18  C    5.533335   6.813121   7.611643   5.818236   2.947987
    19  C    6.046264   5.193839   5.494422   4.458715   2.973741
    20  H    5.666512   7.366607   8.222710   6.110530   3.139249
    21  H    4.776702   6.425221   7.378007   5.993658   3.301268
    22  H    6.497012   7.634579   8.347774   6.660744   3.866403
    23  H    6.915029   6.180107   6.420163   5.494713   3.885377
    24  H    5.355178   4.600449   5.080577   4.620398   3.306924
    25  H    6.508950   4.905975   4.913464   3.943392   3.213415
    26  H    8.134637   7.929641   8.133103   5.851948   3.763378
    27  H    7.778073   6.970918   6.995258   4.410189   3.039773
    28  H    7.556725   7.727140   8.049177   5.229545   3.018967
    29  H    6.193708   3.264320   2.770817   1.092193   3.898294
    30  H    5.665170   3.910021   3.966429   1.094366   3.503370
    31  H    6.151493   4.375642   4.293062   1.092597   2.586113
    32  H    4.248272   1.095334   2.158738   4.340226   5.768337
    33  H    4.085430   1.097713   2.166130   3.947485   4.764795
    34  H    6.381200   2.164338   1.093977   4.497569   6.423976
    35  H    6.235077   2.185611   1.095383   3.381507   5.870526
    36  H    6.161490   2.193347   1.093890   3.014543   4.997160
    37  C    3.925841   4.715047   5.563718   3.048446   2.377671
    38  C    4.177126   6.020346   6.985480   4.472849   2.939007
    39  C    4.099621   6.682421   7.788172   5.562806   4.208559
    40  H    3.537780   4.374342   5.320011   3.290107   3.330360
    41  H    4.979017   5.100671   5.678042   2.668936   2.549437
    42  H    4.917859   6.636924   7.512600   4.790270   2.709480
    43  H    4.791795   7.697599   8.826948   6.546078   4.895666
    44  H    3.743525   6.416080   7.579987   5.682802   4.808579
                   16         17         18         19         20
    16  Si   0.000000
    17  C    1.880688   0.000000
    18  C    1.886821   3.085515   0.000000
    19  C    1.889203   3.081498   3.088736   0.000000
    20  H    2.498722   3.323273   1.095172   4.044112   0.000000
    21  H    2.520298   4.051749   1.094453   3.292751   1.769914
    22  H    2.484886   3.255936   1.096354   3.323165   1.768605
    23  H    2.479792   3.275484   3.282752   1.096585   4.297451
    24  H    2.528586   4.053582   3.325893   1.095049   4.323203
    25  H    2.507813   3.291018   4.048565   1.095199   4.913034
    26  H    2.490186   1.095732   3.294539   3.300041   3.632476
    27  H    2.493881   1.094946   4.041518   3.285809   4.325663
    28  H    2.496385   1.094891   3.306016   4.040454   3.172432
    29  H    4.942189   5.534830   6.607139   4.791771   7.009570
    30  H    4.974255   5.528899   6.432695   5.444778   6.565833
    31  H    3.675993   3.976161   5.391972   4.077935   5.657347
    32  H    6.711156   8.176541   7.620772   6.194983   8.128676
    33  H    5.362543   6.905917   6.271010   4.586064   6.934005
    34  H    7.063717   8.233263   8.342178   6.068784   9.028040
    35  H    6.852492   7.839620   8.267083   6.275756   8.781688
    36  H    5.621394   6.602065   7.108715   4.739246   7.768426
    37  C    4.006982   4.956430   4.721350   5.160110   4.540134
    38  C    4.267083   5.113955   4.434459   5.755495   3.931270
    39  C    5.453142   6.368024   5.317525   6.897668   4.715671
    40  H    4.945666   6.001435   5.609306   5.890165   5.464807
    41  H    4.199765   4.762035   5.199149   5.384324   5.000439
    42  H    3.754606   4.359569   3.810734   5.455422   3.160926
    43  H    5.938215   6.742245   5.514913   7.498790   4.749941
    44  H    6.163275   7.202095   6.117244   7.430405   5.623588
                   21         22         23         24         25
    21  H    0.000000
    22  H    1.766236   0.000000
    23  H    3.562018   3.143393   0.000000
    24  H    3.158065   3.658657   1.762577   0.000000
    25  H    4.312865   4.319471   1.766958   1.771460   0.000000
    26  H    4.292892   3.087719   3.117956   4.312936   3.597137
    27  H    4.919166   4.265734   3.574051   4.305031   3.120090
    28  H    4.330839   3.556964   4.284350   4.926115   4.298495
    29  H    6.751204   7.377059   5.779338   4.911977   4.082728
    30  H    6.606983   7.344484   6.487525   5.591941   4.997654
    31  H    5.757389   6.150991   5.029160   4.492236   3.535395
    32  H    7.134734   8.471367   7.164779   5.520309   5.968583
    33  H    5.793049   7.013125   5.495196   3.835507   4.430765
    34  H    8.040071   9.014251   6.900017   5.560865   5.486329
    35  H    8.097818   9.057352   7.239022   5.968164   5.638479
    36  H    6.996298   7.768077   5.622628   4.477784   4.025519
    37  C    4.774496   5.785558   6.153612   5.188031   5.294809
    38  C    4.518557   5.485557   6.616442   5.821441   6.111604
    39  C    5.237348   6.352834   7.741695   6.842427   7.318383
    40  H    5.506771   6.691604   6.927796   5.765867   5.973562
    41  H    5.443833   6.197986   6.364089   5.593635   5.346965
    42  H    4.112991   4.785186   6.200606   5.680796   5.879253
    43  H    5.464954   6.469526   8.250399   7.478961   8.013069
    44  H    5.908683   7.180962   8.339614   7.258872   7.790690
                   26         27         28         29         30
    26  H    0.000000
    27  H    1.770487   0.000000
    28  H    1.769839   1.769918   0.000000
    29  H    6.420163   4.934210   6.008007   0.000000
    30  H    6.563559   5.078647   5.689355   1.762136   0.000000
    31  H    4.952161   3.404359   4.314423   1.768229   1.771604
    32  H    8.956221   8.020383   8.693976   4.157820   4.609265
    33  H    7.565868   6.821266   7.551863   3.844207   4.585699
    34  H    8.887390   7.832564   8.949938   3.782593   5.053046
    35  H    8.648029   7.350352   8.398370   2.628276   3.659605
    36  H    7.283207   6.125173   7.318911   2.260874   3.780272
    37  C    5.988318   5.081562   4.820274   4.098842   2.822630
    38  C    6.067009   5.491967   4.727805   5.547371   4.253997
    39  C    7.274394   6.803722   5.926733   6.602658   5.218586
    40  H    7.029182   6.072543   5.908338   4.212830   2.860708
    41  H    5.846790   4.698312   4.562366   3.731089   2.260489
    42  H    5.258674   4.854393   3.840379   5.876327   4.709828
    43  H    7.567446   7.290080   6.184828   7.605312   6.227198
    44  H    8.139970   7.558988   6.843084   6.649748   5.234182
                   31         32         33         34         35
    31  H    0.000000
    32  H    5.331481   0.000000
    33  H    4.704367   1.757618   0.000000
    34  H    5.314316   2.451745   2.518309   0.000000
    35  H    4.325692   2.551941   3.086335   1.766538   0.000000
    36  H    3.672816   3.082717   2.511952   1.762525   1.771541
    37  C    3.243072   5.279550   4.993467   6.594655   5.634462
    38  C    4.470118   6.522984   6.160800   7.985478   7.112624
    39  C    5.694263   7.000108   6.846860   8.749339   7.876626
    40  H    3.788840   4.739928   4.805162   6.322978   5.285533
    41  H    2.682292   5.741555   5.495434   6.756885   5.609872
    42  H    4.539680   7.254159   6.675315   8.512947   7.703337
    43  H    6.580557   8.013260   7.793203   9.777807   8.946729
    44  H    6.007280   6.574597   6.676897   8.506077   7.598921
                   36         37         38         39         40
    36  H    0.000000
    37  C    5.486939   0.000000
    38  C    6.894868   1.504323   0.000000
    39  C    7.845366   2.517210   1.334003   0.000000
    40  H    5.456019   1.095441   2.140859   2.640012   0.000000
    41  H    5.493669   1.095901   2.128376   3.198777   1.764423
    42  H    7.275680   2.206498   1.088762   2.095948   3.092007
    43  H    8.853178   3.506937   2.116435   1.086203   3.723489
    44  H    7.786046   2.783924   2.119171   1.087640   2.450814
                   41         42         43         44
    41  H    0.000000
    42  H    2.544127   0.000000
    43  H    4.107911   2.439034   0.000000
    44  H    3.514868   3.077452   1.849385   0.000000
 Stoichiometry    C14H26O3Si
 Framework group  C1[X(C14H26O3Si)]
 Deg. of freedom   126
 Full point group                 C1      NOp   1
 Largest Abelian subgroup         C1      NOp   1
 Largest concise Abelian subgroup C1      NOp   1
                         Standard orientation:                         
 ---------------------------------------------------------------------
 Center     Atomic      Atomic             Coordinates (Angstroms)
 Number     Number       Type             X           Y           Z
 ---------------------------------------------------------------------
      1          6           0        2.438045   -0.423690    0.252018
      2          6           0        0.982075   -0.798640    0.640176
      3          6           0       -0.025845    0.363446    0.410580
      4          6           0        0.191098    0.866569   -1.024728
      5          6           0        1.597303    1.377775   -1.251111
      6          1           0        2.997404   -0.186554    1.163494
      7          1           0        0.651881   -1.587406   -0.048179
      8          1           0        0.015180    0.047868   -1.733352
      9          1           0       -0.490730    1.679323   -1.277232
     10          8           0        2.588587    0.799352   -0.542242
     11          8           0        1.868871    2.284291   -2.009676
     12          6           0        3.188429   -1.508913   -0.533613
     13          6           0        3.402197   -2.832097    0.207552
     14          6           0        0.924140   -1.367033    2.066675
     15          8           0       -1.349196   -0.128029    0.603007
     16         14           0       -2.530678   -0.876263   -0.332816
     17          6           0       -3.822723   -1.399865    0.929503
     18          6           0       -3.289405    0.330995   -1.568516
     19          6           0       -1.879276   -2.397799   -1.243691
     20          1           0       -3.622051    1.247367   -1.069506
     21          1           0       -2.592822    0.615424   -2.363311
     22          1           0       -4.165445   -0.123378   -2.046105
     23          1           0       -2.707551   -2.893881   -1.763655
     24          1           0       -1.124043   -2.156462   -1.999014
     25          1           0       -1.443482   -3.125604   -0.550983
     26          1           0       -4.672452   -1.886333    0.437631
     27          1           0       -3.403704   -2.107334    1.652564
     28          1           0       -4.206685   -0.538838    1.486272
     29          1           0        1.501972   -2.290107    2.149926
     30          1           0        1.327754   -0.661235    2.799193
     31          1           0       -0.110090   -1.588942    2.340341
     32          1           0        4.160019   -1.086852   -0.812240
     33          1           0        2.646170   -1.690130   -1.470677
     34          1           0        4.027855   -3.498880   -0.393063
     35          1           0        3.908318   -2.678289    1.166744
     36          1           0        2.461063   -3.354920    0.401250
     37          6           0        0.154077    1.514541    1.436945
     38          6           0       -0.761151    2.686743    1.210479
     39          6           0       -0.356786    3.941750    1.007967
     40          1           0        1.196685    1.850634    1.436481
     41          1           0       -0.050592    1.091293    2.426880
     42          1           0       -1.826769    2.464296    1.229951
     43          1           0       -1.065340    4.752408    0.864364
     44          1           0        0.697782    4.206604    0.981518
 ---------------------------------------------------------------------
 Rotational constants (GHZ):      0.4286720      0.3071832      0.2375852
 Standard basis: def2TZVP (5D, 7F)
 There are   810 symmetry adapted cartesian basis functions of A   symmetry.
 There are   720 symmetry adapted basis functions of A   symmetry.
   720 basis functions,  1144 primitive gaussians,   810 cartesian basis functions
    74 alpha electrons       74 beta electrons
       nuclear repulsion energy      1631.1343423562 Hartrees.
 NAtoms=   44 NActive=   44 NUniq=   44 SFac= 1.00D+00 NAtFMM=   60 NAOKFM=F Big=F
 Integral buffers will be    131072 words long.
 Raffenetti 2 integral format.
 Two-electron integral symmetry is turned on.
 ------------------------------------------------------------------------------
 Polarizable Continuum Model (PCM)
 =================================
 Model                : PCM (using non-symmetric T matrix).
 Atomic radii         : UFF (Universal Force Field).
 Polarization charges : Total charges.
 Charge compensation  : None.
 Solution method      : On-the-fly selection.
 Cavity type          : Scaled VdW (van der Waals Surface) (Alpha=1.100).
 Cavity algorithm     : GePol (No added spheres)
                        Default sphere list used, NSphG=   44.
                        Lebedev-Laikov grids with approx.  5.0 points / Ang**2.
                        Smoothing algorithm: Karplus/York (Gamma=1.0000).
                        Polarization charges: spherical gaussians, with
                                              point-specific exponents (IZeta= 3).
                        Self-potential: point-specific (ISelfS= 7).
                        Self-field    : sphere-specific E.n sum rule (ISelfD= 2).
 Solvent              : Chloroform, Eps=   4.711300 Eps(inf)=   2.090627
 ------------------------------------------------------------------------------
 One-electron integrals computed using PRISM.
   1 Symmetry operations used in ECPInt.
 ECPInt:  NShTT=   46360 NPrTT=  137514 LenC2=   42300 LenP2D=   90737.
 LDataN:  DoStor=T MaxTD1= 6 Len=  172
 NBasis=   720 RedAO= T EigKep=  3.15D-05  NBF=   720
 NBsUse=   720 1.00D-06 EigRej= -1.00D+00 NBFU=   720
 ExpMin= 7.01D-02 ExpMax= 4.48D+04 ExpMxC= 1.53D+03 IAcc=3 IRadAn=         5 AccDes= 0.00D+00
 Harris functional with IExCor= 1009 and IRadAn=       5 diagonalized for initial guess.
 HarFok:  IExCor= 1009 AccDes= 0.00D+00 IRadAn=         5 IDoV= 1 UseB2=F ITyADJ=14
 ICtDFT=  3500011 ScaDFX=  1.000000  1.000000  1.000000  1.000000
 FoFCou: FMM=F IPFlag=           0 FMFlag=      100000 FMFlg1=           0
         NFxFlg=           0 DoJE=T BraDBF=F KetDBF=T FulRan=T
         wScrn=  0.000000 ICntrl=     500 IOpCl=  0 I1Cent=   200000004 NGrid=           0
         NMat0=    1 NMatS0=      1 NMatT0=    0 NMatD0=    1 NMtDS0=    0 NMtDT0=    0
 Petite list used in FoFCou.
 Requested convergence on RMS density matrix=1.00D-08 within 128 cycles.
 Requested convergence on MAX density matrix=1.00D-06.
 Requested convergence on             energy=1.00D-06.
 No special actions if energy rises.
 Inv3:  Mode=1 IEnd=    25684428.
 Iteration    1 A*A^-1 deviation from unit magnitude is 5.11D-15 for   2901.
 Iteration    1 A*A^-1 deviation from orthogonality  is 2.40D-15 for   2452   2358.
 Iteration    1 A^-1*A deviation from unit magnitude is 4.44D-15 for   2901.
 Iteration    1 A^-1*A deviation from orthogonality  is 2.94D-12 for   2190   2161.
 Error on total polarization charges =  0.01459
 SCF Done:  E(RM062X) =  -1064.33789043     A.U. after   14 cycles
            NFock= 14  Conv=0.12D-08     -V/T= 2.0047

 **********************************************************************

            Population analysis using the SCF density.

 **********************************************************************

 Orbital symmetries:
       Occupied  (A) (A) (A) (A) (A) (A) (A) (A) (A) (A) (A) (A)
                 (A) (A) (A) (A) (A) (A) (A) (A) (A) (A) (A) (A)
                 (A) (A) (A) (A) (A) (A) (A) (A) (A) (A) (A) (A)
                 (A) (A) (A) (A) (A) (A) (A) (A) (A) (A) (A) (A)
                 (A) (A) (A) (A) (A) (A) (A) (A) (A) (A) (A) (A)
                 (A) (A) (A) (A) (A) (A) (A) (A) (A) (A) (A) (A)
                 (A) (A)
       Virtual   (A) (A) (A) (A) (A) (A) (A) (A) (A) (A) (A) (A)
                 (A) (A) (A) (A) (A) (A) (A) (A) (A) (A) (A) (A)
                 (A) (A) (A) (A) (A) (A) (A) (A) (A) (A) (A) (A)
                 (A) (A) (A) (A) (A) (A) (A) (A) (A) (A) (A) (A)
                 (A) (A) (A) (A) (A) (A) (A) (A) (A) (A) (A) (A)
                 (A) (A) (A) (A) (A) (A) (A) (A) (A) (A) (A) (A)
                 (A) (A) (A) (A) (A) (A) (A) (A) (A) (A) (A) (A)
                 (A) (A) (A) (A) (A) (A) (A) (A) (A) (A) (A) (A)
                 (A) (A) (A) (A) (A) (A) (A) (A) (A) (A) (A) (A)
                 (A) (A) (A) (A) (A) (A) (A) (A) (A) (A) (A) (A)
                 (A) (A) (A) (A) (A) (A) (A) (A) (A) (A) (A) (A)
                 (A) (A) (A) (A) (A) (A) (A) (A) (A) (A) (A) (A)
                 (A) (A) (A) (A) (A) (A) (A) (A) (A) (A) (A) (A)
                 (A) (A) (A) (A) (A) (A) (A) (A) (A) (A) (A) (A)
                 (A) (A) (A) (A) (A) (A) (A) (A) (A) (A) (A) (A)
                 (A) (A) (A) (A) (A) (A) (A) (A) (A) (A) (A) (A)
                 (A) (A) (A) (A) (A) (A) (A) (A) (A) (A) (A) (A)
                 (A) (A) (A) (A) (A) (A) (A) (A) (A) (A) (A) (A)
                 (A) (A) (A) (A) (A) (A) (A) (A) (A) (A) (A) (A)
                 (A) (A) (A) (A) (A) (A) (A) (A) (A) (A) (A) (A)
                 (A) (A) (A) (A) (A) (A) (A) (A) (A) (A) (A) (A)
                 (A) (A) (A) (A) (A) (A) (A) (A) (A) (A) (A) (A)
                 (A) (A) (A) (A) (A) (A) (A) (A) (A) (A) (A) (A)
                 (A) (A) (A) (A) (A) (A) (A) (A) (A) (A) (A) (A)
                 (A) (A) (A) (A) (A) (A) (A) (A) (A) (A) (A) (A)
                 (A) (A) (A) (A) (A) (A) (A) (A) (A) (A) (A) (A)
                 (A) (A) (A) (A) (A) (A) (A) (A) (A) (A) (A) (A)
                 (A) (A) (A) (A) (A) (A) (A) (A) (A) (A) (A) (A)
                 (A) (A) (A) (A) (A) (A) (A) (A) (A) (A) (A) (A)
                 (A) (A) (A) (A) (A) (A) (A) (A) (A) (A) (A) (A)
                 (A) (A) (A) (A) (A) (A) (A) (A) (A) (A) (A) (A)
                 (A) (A) (A) (A) (A) (A) (A) (A) (A) (A) (A) (A)
                 (A) (A) (A) (A) (A) (A) (A) (A) (A) (A) (A) (A)
                 (A) (A) (A) (A) (A) (A) (A) (A) (A) (A) (A) (A)
                 (A) (A) (A) (A) (A) (A) (A) (A) (A) (A) (A) (A)
                 (A) (A) (A) (A) (A) (A) (A) (A) (A) (A) (A) (A)
                 (A) (A) (A) (A) (A) (A) (A) (A) (A) (A) (A) (A)
                 (A) (A) (A) (A) (A) (A) (A) (A) (A) (A) (A) (A)
                 (A) (A) (A) (A) (A) (A) (A) (A) (A) (A) (A) (A)
                 (A) (A) (A) (A) (A) (A) (A) (A) (A) (A) (A) (A)
                 (A) (A) (A) (A) (A) (A) (A) (A) (A) (A) (A) (A)
                 (A) (A) (A) (A) (A) (A) (A) (A) (A) (A) (A) (A)
                 (A) (A) (A) (A) (A) (A) (A) (A) (A) (A) (A) (A)
                 (A) (A) (A) (A) (A) (A) (A) (A) (A) (A) (A) (A)
                 (A) (A) (A) (A) (A) (A) (A) (A) (A) (A) (A) (A)
                 (A) (A) (A) (A) (A) (A) (A) (A) (A) (A) (A) (A)
                 (A) (A) (A) (A) (A) (A) (A) (A) (A) (A) (A) (A)
                 (A) (A) (A) (A) (A) (A) (A) (A) (A) (A) (A) (A)
                 (A) (A) (A) (A) (A) (A) (A) (A) (A) (A) (A) (A)
                 (A) (A) (A) (A) (A) (A) (A) (A) (A) (A) (A) (A)
                 (A) (A) (A) (A) (A) (A) (A) (A) (A) (A) (A) (A)
                 (A) (A) (A) (A) (A) (A) (A) (A) (A) (A) (A) (A)
                 (A) (A) (A) (A) (A) (A) (A) (A) (A) (A) (A) (A)
                 (A) (A) (A) (A) (A) (A) (A) (A) (A) (A)
 The electronic state is 1-A.
 Alpha  occ. eigenvalues --  -67.01761 -19.67252 -19.62042 -19.61717 -10.68214
 Alpha  occ. eigenvalues --  -10.62158 -10.61285 -10.55785 -10.55674 -10.54411
 Alpha  occ. eigenvalues --  -10.54340 -10.54282 -10.53305 -10.53227 -10.53206
 Alpha  occ. eigenvalues --  -10.51376 -10.51039 -10.50870  -5.55209  -3.86396
 Alpha  occ. eigenvalues --   -3.86253  -3.86239  -1.22938  -1.14244  -1.13431
 Alpha  occ. eigenvalues --   -0.93453  -0.90811  -0.87736  -0.85141  -0.80995
 Alpha  occ. eigenvalues --   -0.79682  -0.79225  -0.77130  -0.76849  -0.73251
 Alpha  occ. eigenvalues --   -0.69789  -0.68920  -0.64439  -0.62043  -0.59779
 Alpha  occ. eigenvalues --   -0.58482  -0.56688  -0.55574  -0.54393  -0.53708
 Alpha  occ. eigenvalues --   -0.51860  -0.51087  -0.49946  -0.49793  -0.48289
 Alpha  occ. eigenvalues --   -0.48032  -0.47655  -0.47386  -0.46783  -0.46627
 Alpha  occ. eigenvalues --   -0.45824  -0.45466  -0.45080  -0.44625  -0.44417
 Alpha  occ. eigenvalues --   -0.43718  -0.43208  -0.42928  -0.41296  -0.41123
 Alpha  occ. eigenvalues --   -0.40888  -0.39217  -0.38670  -0.37284  -0.36197
 Alpha  occ. eigenvalues --   -0.35999  -0.34320  -0.33535  -0.31796
 Alpha virt. eigenvalues --    0.03482   0.03975   0.04711   0.06539   0.06856
 Alpha virt. eigenvalues --    0.07745   0.08401   0.09405   0.09757   0.09856
 Alpha virt. eigenvalues --    0.10736   0.11427   0.11693   0.12265   0.12382
 Alpha virt. eigenvalues --    0.12958   0.13919   0.14030   0.14563   0.14994
 Alpha virt. eigenvalues --    0.15027   0.15334   0.15768   0.16233   0.16746
 Alpha virt. eigenvalues --    0.16885   0.16942   0.17534   0.18053   0.18486
 Alpha virt. eigenvalues --    0.18826   0.19242   0.19946   0.20299   0.20964
 Alpha virt. eigenvalues --    0.21319   0.21584   0.22107   0.22793   0.23170
 Alpha virt. eigenvalues --    0.23462   0.23661   0.24282   0.25069   0.25180
 Alpha virt. eigenvalues --    0.26525   0.26692   0.27266   0.27626   0.28035
 Alpha virt. eigenvalues --    0.28150   0.28836   0.29859   0.30390   0.30414
 Alpha virt. eigenvalues --    0.31070   0.31780   0.32389   0.33116   0.33867
 Alpha virt. eigenvalues --    0.34036   0.35248   0.35549   0.36273   0.37041
 Alpha virt. eigenvalues --    0.37811   0.38490   0.38597   0.38776   0.39088
 Alpha virt. eigenvalues --    0.39846   0.40156   0.40892   0.41148   0.41310
 Alpha virt. eigenvalues --    0.41505   0.42484   0.43035   0.43240   0.43544
 Alpha virt. eigenvalues --    0.44052   0.44680   0.45376   0.45566   0.46202
 Alpha virt. eigenvalues --    0.46385   0.46924   0.47199   0.47523   0.47756
 Alpha virt. eigenvalues --    0.48505   0.48846   0.49104   0.49176   0.49496
 Alpha virt. eigenvalues --    0.49566   0.50650   0.50857   0.51111   0.51667
 Alpha virt. eigenvalues --    0.52244   0.52501   0.53087   0.53239   0.53459
 Alpha virt. eigenvalues --    0.53952   0.54230   0.54684   0.55361   0.55719
 Alpha virt. eigenvalues --    0.56069   0.56592   0.57693   0.58139   0.58965
 Alpha virt. eigenvalues --    0.59588   0.60318   0.61277   0.61714   0.61948
 Alpha virt. eigenvalues --    0.63168   0.63678   0.64701   0.64978   0.65702
 Alpha virt. eigenvalues --    0.66364   0.66863   0.67947   0.68435   0.69284
 Alpha virt. eigenvalues --    0.69723   0.70135   0.71816   0.72386   0.73028
 Alpha virt. eigenvalues --    0.73710   0.74346   0.75380   0.76695   0.77179
 Alpha virt. eigenvalues --    0.78315   0.78968   0.79619   0.80007   0.80924
 Alpha virt. eigenvalues --    0.82032   0.82410   0.83375   0.85479   0.86324
 Alpha virt. eigenvalues --    0.87174   0.88030   0.88448   0.89376   0.90338
 Alpha virt. eigenvalues --    0.90631   0.91952   0.92822   0.93440   0.94213
 Alpha virt. eigenvalues --    0.94968   0.95438   0.95830   0.96038   0.97701
 Alpha virt. eigenvalues --    0.98909   0.99477   1.00077   1.00936   1.01146
 Alpha virt. eigenvalues --    1.02733   1.03433   1.04168   1.04449   1.05321
 Alpha virt. eigenvalues --    1.05530   1.06441   1.06591   1.07064   1.07334
 Alpha virt. eigenvalues --    1.08225   1.09473   1.09932   1.10022   1.11038
 Alpha virt. eigenvalues --    1.12150   1.12697   1.12879   1.14137   1.15994
 Alpha virt. eigenvalues --    1.16143   1.16675   1.17422   1.17859   1.18520
 Alpha virt. eigenvalues --    1.21141   1.21567   1.22480   1.23501   1.24048
 Alpha virt. eigenvalues --    1.25074   1.25556   1.27986   1.28180   1.28921
 Alpha virt. eigenvalues --    1.29461   1.31237   1.31945   1.33015   1.33206
 Alpha virt. eigenvalues --    1.35072   1.36087   1.36744   1.37426   1.38402
 Alpha virt. eigenvalues --    1.39159   1.40482   1.40730   1.41553   1.41831
 Alpha virt. eigenvalues --    1.42833   1.43921   1.44966   1.45467   1.46114
 Alpha virt. eigenvalues --    1.48146   1.48689   1.49149   1.50483   1.52528
 Alpha virt. eigenvalues --    1.54291   1.54477   1.55155   1.55872   1.56316
 Alpha virt. eigenvalues --    1.56645   1.57718   1.58600   1.58872   1.59143
 Alpha virt. eigenvalues --    1.59927   1.60182   1.60902   1.61334   1.61800
 Alpha virt. eigenvalues --    1.62106   1.63188   1.63465   1.63953   1.64588
 Alpha virt. eigenvalues --    1.64832   1.65565   1.66139   1.66532   1.67186
 Alpha virt. eigenvalues --    1.67720   1.68162   1.68350   1.69131   1.69361
 Alpha virt. eigenvalues --    1.69708   1.70662   1.70951   1.72232   1.72924
 Alpha virt. eigenvalues --    1.74411   1.76070   1.76660   1.77791   1.78185
 Alpha virt. eigenvalues --    1.78354   1.78837   1.80914   1.81846   1.82231
 Alpha virt. eigenvalues --    1.82842   1.84885   1.85622   1.86756   1.87074
 Alpha virt. eigenvalues --    1.87870   1.88272   1.89839   1.91205   1.91748
 Alpha virt. eigenvalues --    1.92732   1.93929   1.94813   1.96553   1.96916
 Alpha virt. eigenvalues --    1.98358   1.99480   2.00258   2.01421   2.02133
 Alpha virt. eigenvalues --    2.02801   2.04037   2.05088   2.05333   2.06129
 Alpha virt. eigenvalues --    2.06807   2.07289   2.07984   2.08882   2.09479
 Alpha virt. eigenvalues --    2.10426   2.11409   2.12610   2.12943   2.14308
 Alpha virt. eigenvalues --    2.16163   2.17268   2.18637   2.19166   2.19955
 Alpha virt. eigenvalues --    2.20335   2.21626   2.21706   2.23636   2.23761
 Alpha virt. eigenvalues --    2.24617   2.25445   2.25541   2.27165   2.27532
 Alpha virt. eigenvalues --    2.29237   2.30284   2.31291   2.31364   2.32951
 Alpha virt. eigenvalues --    2.34146   2.35246   2.36020   2.36368   2.36999
 Alpha virt. eigenvalues --    2.37216   2.38145   2.39107   2.39568   2.39962
 Alpha virt. eigenvalues --    2.40199   2.41170   2.41357   2.41784   2.42774
 Alpha virt. eigenvalues --    2.43048   2.44296   2.44451   2.45477   2.45848
 Alpha virt. eigenvalues --    2.46330   2.46838   2.48096   2.48396   2.49766
 Alpha virt. eigenvalues --    2.51246   2.51930   2.52397   2.54080   2.55120
 Alpha virt. eigenvalues --    2.56510   2.56919   2.56933   2.58013   2.58091
 Alpha virt. eigenvalues --    2.58539   2.59694   2.60625   2.60829   2.61247
 Alpha virt. eigenvalues --    2.61996   2.62385   2.63242   2.63735   2.64325
 Alpha virt. eigenvalues --    2.64819   2.65276   2.65652   2.66390   2.67412
 Alpha virt. eigenvalues --    2.68312   2.69038   2.69342   2.69580   2.70773
 Alpha virt. eigenvalues --    2.70917   2.71583   2.72646   2.73165   2.73746
 Alpha virt. eigenvalues --    2.73944   2.74925   2.76174   2.77007   2.77296
 Alpha virt. eigenvalues --    2.78502   2.79794   2.81419   2.82650   2.83501
 Alpha virt. eigenvalues --    2.84774   2.86437   2.86568   2.87622   2.88814
 Alpha virt. eigenvalues --    2.89232   2.90328   2.90732   2.92323   2.94033
 Alpha virt. eigenvalues --    2.95610   2.96323   2.97255   2.97411   2.97919
 Alpha virt. eigenvalues --    3.00401   3.01774   3.02441   3.03707   3.06367
 Alpha virt. eigenvalues --    3.06489   3.07831   3.08734   3.09479   3.10398
 Alpha virt. eigenvalues --    3.11148   3.12398   3.12640   3.13273   3.13530
 Alpha virt. eigenvalues --    3.14683   3.14914   3.15221   3.16485   3.16955
 Alpha virt. eigenvalues --    3.17602   3.17985   3.19009   3.19716   3.20231
 Alpha virt. eigenvalues --    3.20734   3.21683   3.22792   3.23359   3.23880
 Alpha virt. eigenvalues --    3.24509   3.24766   3.25176   3.25847   3.26153
 Alpha virt. eigenvalues --    3.26610   3.27467   3.27840   3.28897   3.29095
 Alpha virt. eigenvalues --    3.30039   3.31205   3.31501   3.32417   3.32608
 Alpha virt. eigenvalues --    3.33004   3.33120   3.33817   3.34605   3.35413
 Alpha virt. eigenvalues --    3.35909   3.36378   3.36783   3.38008   3.38780
 Alpha virt. eigenvalues --    3.39979   3.40260   3.40852   3.41492   3.42756
 Alpha virt. eigenvalues --    3.43131   3.43486   3.44867   3.45033   3.45419
 Alpha virt. eigenvalues --    3.46379   3.47034   3.48781   3.49218   3.50198
 Alpha virt. eigenvalues --    3.52011   3.52493   3.52727   3.54238   3.55606
 Alpha virt. eigenvalues --    3.55817   3.56504   3.57374   3.57690   3.58590
 Alpha virt. eigenvalues --    3.58926   3.59405   3.61282   3.62201   3.62413
 Alpha virt. eigenvalues --    3.63349   3.63768   3.64076   3.65319   3.65964
 Alpha virt. eigenvalues --    3.66808   3.67102   3.67889   3.69282   3.70335
 Alpha virt. eigenvalues --    3.72465   3.73144   3.75189   3.75815   3.77589
 Alpha virt. eigenvalues --    3.79235   3.79432   3.81135   3.81205   3.84686
 Alpha virt. eigenvalues --    3.85212   3.86564   3.87659   3.89557   3.91191
 Alpha virt. eigenvalues --    3.92397   3.95459   3.96615   3.99198   4.01292
 Alpha virt. eigenvalues --    4.04974   4.05778   4.07059   4.08358   4.09936
 Alpha virt. eigenvalues --    4.12054   4.12692   4.15391   4.16519   4.17355
 Alpha virt. eigenvalues --    4.17843   4.20093   4.24046   4.24964   4.26119
 Alpha virt. eigenvalues --    4.26994   4.27295   4.28528   4.29081   4.29463
 Alpha virt. eigenvalues --    4.30258   4.30781   4.32677   4.34884   4.36036
 Alpha virt. eigenvalues --    4.37092   4.38249   4.38510   4.38873   4.39394
 Alpha virt. eigenvalues --    4.40670   4.41716   4.44759   4.46921   4.49287
 Alpha virt. eigenvalues --    4.52009   4.53459   4.54939   4.57268   4.57800
 Alpha virt. eigenvalues --    4.58962   4.63383   4.64496   4.65876   4.69382
 Alpha virt. eigenvalues --    4.69992   4.72493   4.79253   4.81115   4.84067
 Alpha virt. eigenvalues --    4.84959   4.92096   4.93989   4.97438   5.01149
 Alpha virt. eigenvalues --    5.02450   5.05571   5.16415   5.18946   5.21615
 Alpha virt. eigenvalues --    5.23976   5.25642   5.27003   5.27274   5.35996
 Alpha virt. eigenvalues --    5.48480   5.49664   5.52581   5.60071   5.82309
 Alpha virt. eigenvalues --    5.85476   5.86640   5.87393   5.92333   6.01030
 Alpha virt. eigenvalues --    6.13532   6.18088   6.23695   6.36747   6.38822
 Alpha virt. eigenvalues --    6.51356   6.61120   6.62131   6.63313   6.65928
 Alpha virt. eigenvalues --    6.69504   6.76013   6.82014   6.85655   6.89327
 Alpha virt. eigenvalues --    6.95421   6.98398   7.03839   7.06359   7.15522
 Alpha virt. eigenvalues --    7.18777   7.34403   7.41889  12.17739  22.30035
 Alpha virt. eigenvalues --   22.37875  22.41872  22.44551  22.45281  22.51974
 Alpha virt. eigenvalues --   22.61192  22.65552  22.70095  22.77911  22.81181
 Alpha virt. eigenvalues --   22.88782  22.92279  23.45832  44.08508  44.47481
 Alpha virt. eigenvalues --   44.53724
          Condensed to atoms (all electrons):
               1          2          3          4          5          6
     1  C    5.470356  -0.064928   0.020317   0.000604  -0.037240   0.463001
     2  C   -0.064928   5.949646   0.068998  -0.032378  -0.004930  -0.068526
     3  C    0.020317   0.068998   5.717240  -0.143726   0.023073  -0.015803
     4  C    0.000604  -0.032378  -0.143726   6.199465   0.105315   0.001623
     5  C   -0.037240  -0.004930   0.023073   0.105315   4.455257   0.000907
     6  H    0.463001  -0.068526  -0.015803   0.001623   0.000907   0.509362
     7  H   -0.051957   0.443081  -0.062114  -0.015132   0.004956   0.007518
     8  H    0.001927  -0.022232  -0.029364   0.382854  -0.011766  -0.000040
     9  H    0.000912   0.008707  -0.025593   0.375301  -0.003846   0.000122
    10  O    0.148712  -0.022589   0.043990  -0.171143   0.376064  -0.036784
    11  O   -0.000797   0.000703   0.011239  -0.150996   0.740600  -0.000109
    12  C    0.203851   0.008156   0.000180  -0.010157   0.002548  -0.039027
    13  C   -0.048040   0.033525   0.000572   0.001975  -0.000403  -0.005728
    14  C   -0.030564   0.187105  -0.035014  -0.006372   0.002942  -0.008082
    15  O    0.005330  -0.034631   0.171026  -0.027606  -0.002445  -0.000223
    16  Si   0.000838  -0.007292  -0.067026   0.009283  -0.001299  -0.000026
    17  C   -0.000057   0.001029   0.000525  -0.001488  -0.000037   0.000001
    18  C    0.000076  -0.000173  -0.006542   0.012047  -0.000247  -0.000002
    19  C   -0.001494   0.000238   0.018152  -0.010244   0.000080  -0.000011
    20  H    0.000000  -0.000131   0.003907  -0.003568  -0.000009   0.000000
    21  H    0.000000   0.000489  -0.003870   0.003854   0.000511   0.000000
    22  H   -0.000005   0.000040   0.000123  -0.000407  -0.000016   0.000000
    23  H   -0.000005   0.000300  -0.000768   0.000286  -0.000008   0.000000
    24  H   -0.000494  -0.000264   0.001618  -0.003884  -0.000106  -0.000002
    25  H    0.000440   0.000630  -0.001134   0.000843  -0.000004  -0.000003
    26  H    0.000000   0.000000  -0.000065   0.000038   0.000000   0.000000
    27  H    0.000015  -0.000494   0.000764   0.000096  -0.000001   0.000000
    28  H    0.000002  -0.000040   0.000012   0.000143   0.000002   0.000000
    29  H    0.001857  -0.052814   0.015475  -0.000719   0.000028  -0.000903
    30  H   -0.016827  -0.015477  -0.032520  -0.000959   0.000419   0.003163
    31  H    0.013106  -0.064300   0.011905   0.002543  -0.000336   0.000204
    32  H   -0.070944   0.014704  -0.000176   0.001884  -0.001365  -0.004068
    33  H   -0.002176  -0.024993  -0.004028   0.000470  -0.000351   0.005843
    34  H    0.012054  -0.001617   0.000073  -0.000058  -0.000013  -0.000396
    35  H    0.017531  -0.013124  -0.000630   0.000014  -0.000027   0.001040
    36  H   -0.029669   0.027008   0.000908   0.000012  -0.000038   0.001722
    37  C    0.004538  -0.066594   0.156328  -0.039977   0.003918   0.006682
    38  C   -0.003721   0.013233  -0.027954  -0.007955   0.008474  -0.000305
    39  C    0.000635  -0.000648  -0.008678  -0.001254   0.002014   0.000090
    40  H   -0.003400  -0.002342  -0.025048  -0.011594  -0.002847  -0.003841
    41  H   -0.002258  -0.004508  -0.063279   0.006629  -0.000068  -0.000053
    42  H   -0.000090   0.000279   0.006979  -0.003520   0.000351   0.000002
    43  H    0.000002   0.000032  -0.000187   0.000101  -0.000004   0.000000
    44  H   -0.000072   0.000153  -0.002155   0.000490  -0.000066   0.000011
               7          8          9         10         11         12
     1  C   -0.051957   0.001927   0.000912   0.148712  -0.000797   0.203851
     2  C    0.443081  -0.022232   0.008707  -0.022589   0.000703   0.008156
     3  C   -0.062114  -0.029364  -0.025593   0.043990   0.011239   0.000180
     4  C   -0.015132   0.382854   0.375301  -0.171143  -0.150996  -0.010157
     5  C    0.004956  -0.011766  -0.003846   0.376064   0.740600   0.002548
     6  H    0.007518  -0.000040   0.000122  -0.036784  -0.000109  -0.039027
     7  H    0.517412   0.001329   0.000349   0.002727  -0.000035   0.003146
     8  H    0.001329   0.464822  -0.011339   0.004101   0.004954   0.000280
     9  H    0.000349  -0.011339   0.445219   0.005505   0.009228  -0.000061
    10  O    0.002727   0.004101   0.005505   8.032007  -0.100726  -0.044317
    11  O   -0.000035   0.004954   0.009228  -0.100726   7.849246   0.000114
    12  C    0.003146   0.000280  -0.000061  -0.044317   0.000114   5.198949
    13  C   -0.010760  -0.000089   0.000001   0.008145  -0.000034   0.215460
    14  C   -0.035820   0.000769  -0.000109   0.004229   0.000045  -0.003169
    15  O   -0.007725  -0.005010  -0.000814  -0.000388  -0.000179  -0.000141
    16  Si   0.003933   0.009080  -0.003329  -0.000101  -0.000093   0.000254
    17  C    0.000176   0.000154   0.000053  -0.000001   0.000000  -0.000003
    18  C   -0.000131  -0.005553  -0.005128  -0.000030  -0.000115  -0.000010
    19  C   -0.006659  -0.001718   0.000717  -0.000007  -0.000005   0.000232
    20  H    0.000010   0.000248   0.000615   0.000001   0.000006   0.000000
    21  H   -0.000080   0.000351  -0.003494  -0.000002   0.000012  -0.000001
    22  H   -0.000008   0.000008   0.000297   0.000000  -0.000001   0.000000
    23  H    0.000465   0.000087  -0.000030   0.000000   0.000000  -0.000003
    24  H   -0.001440   0.003960   0.000056   0.000005  -0.000003   0.000065
    25  H   -0.001499  -0.000403  -0.000027  -0.000002   0.000000  -0.000034
    26  H   -0.000009   0.000000  -0.000001   0.000000   0.000000   0.000000
    27  H    0.000080   0.000001  -0.000007   0.000000   0.000000   0.000000
    28  H   -0.000001  -0.000013   0.000003   0.000000   0.000000   0.000000
    29  H   -0.008087   0.000006   0.000008  -0.000069   0.000000  -0.005960
    30  H    0.006919   0.000012  -0.000007   0.000283   0.000002   0.002562
    31  H   -0.002760  -0.000017  -0.000031  -0.000200   0.000000  -0.000227
    32  H    0.000075  -0.000062  -0.000021   0.003170  -0.000026   0.445371
    33  H    0.002915  -0.000074   0.000069  -0.001319  -0.000158   0.397355
    34  H   -0.000115   0.000001   0.000000  -0.000248   0.000000  -0.041636
    35  H    0.001234  -0.000003   0.000000  -0.000068   0.000000  -0.061309
    36  H   -0.001269   0.000024   0.000000   0.000006   0.000000  -0.026873
    37  C    0.012612   0.006300  -0.008421  -0.014134   0.003900   0.000179
    38  C   -0.000889   0.000601  -0.001980   0.001325  -0.003128   0.000065
    39  C    0.000002   0.000191  -0.000034  -0.000676   0.001582  -0.000013
    40  H   -0.000238  -0.000247   0.000836   0.008268  -0.001401   0.000791
    41  H   -0.000850  -0.000176  -0.000097   0.000261  -0.000037  -0.000186
    42  H    0.000022  -0.000113   0.001231  -0.000004   0.000043   0.000002
    43  H    0.000000  -0.000002   0.000027  -0.000004  -0.000008   0.000000
    44  H    0.000001  -0.000018   0.000100  -0.000083   0.000074   0.000001
              13         14         15         16         17         18
     1  C   -0.048040  -0.030564   0.005330   0.000838  -0.000057   0.000076
     2  C    0.033525   0.187105  -0.034631  -0.007292   0.001029  -0.000173
     3  C    0.000572  -0.035014   0.171026  -0.067026   0.000525  -0.006542
     4  C    0.001975  -0.006372  -0.027606   0.009283  -0.001488   0.012047
     5  C   -0.000403   0.002942  -0.002445  -0.001299  -0.000037  -0.000247
     6  H   -0.005728  -0.008082  -0.000223  -0.000026   0.000001  -0.000002
     7  H   -0.010760  -0.035820  -0.007725   0.003933   0.000176  -0.000131
     8  H   -0.000089   0.000769  -0.005010   0.009080   0.000154  -0.005553
     9  H    0.000001  -0.000109  -0.000814  -0.003329   0.000053  -0.005128
    10  O    0.008145   0.004229  -0.000388  -0.000101  -0.000001  -0.000030
    11  O   -0.000034   0.000045  -0.000179  -0.000093   0.000000  -0.000115
    12  C    0.215460  -0.003169  -0.000141   0.000254  -0.000003  -0.000010
    13  C    5.118355  -0.003722  -0.000012  -0.000076   0.000002   0.000001
    14  C   -0.003722   5.167902  -0.014636  -0.000105   0.000081  -0.000183
    15  O   -0.000012  -0.014636   8.052326   0.381309  -0.018863  -0.019965
    16  Si  -0.000076  -0.000105   0.381309  12.427431   0.394679   0.350119
    17  C    0.000002   0.000081  -0.018863   0.394679   5.104841  -0.046133
    18  C    0.000001  -0.000183  -0.019965   0.350119  -0.046133   5.148456
    19  C    0.000093  -0.000921  -0.026931   0.332529  -0.046193  -0.046589
    20  H    0.000000   0.000010  -0.001171  -0.040663   0.001747   0.395737
    21  H    0.000000   0.000003   0.001403  -0.032691   0.002738   0.390120
    22  H    0.000000   0.000003   0.001248  -0.030418   0.001721   0.385671
    23  H    0.000003  -0.000010   0.001257  -0.021814   0.000292   0.000982
    24  H    0.000028   0.000525   0.000616  -0.034085   0.003080   0.001351
    25  H   -0.000024  -0.000796   0.000262  -0.042042   0.000868   0.003546
    26  H    0.000000  -0.000021   0.001298  -0.042613   0.392081   0.002943
    27  H   -0.000001  -0.000152   0.000065  -0.032267   0.390140   0.003023
    28  H    0.000000  -0.000010   0.000812  -0.033730   0.390957   0.000836
    29  H    0.001235   0.426734   0.000153  -0.000415   0.000010   0.000001
    30  H   -0.001399   0.419782   0.000910   0.000094   0.000005   0.000006
    31  H    0.000108   0.417451   0.009073  -0.000427  -0.000792   0.000158
    32  H   -0.033845  -0.001191   0.000013   0.000011   0.000000   0.000000
    33  H   -0.038538   0.002424  -0.000026  -0.000066   0.000000  -0.000001
    34  H    0.416460   0.000632   0.000000  -0.000002   0.000000   0.000000
    35  H    0.422963   0.001468   0.000001   0.000001   0.000000   0.000000
    36  H    0.406731  -0.012035  -0.000003  -0.000005  -0.000001   0.000001
    37  C   -0.000112   0.006639  -0.096122   0.009542  -0.000319   0.000560
    38  C    0.000000   0.000013   0.011864   0.000972  -0.000102  -0.002214
    39  C    0.000001  -0.000237   0.002886  -0.000097  -0.000011   0.000108
    40  H   -0.000073   0.000141   0.004293  -0.000165   0.000002   0.000022
    41  H    0.000031  -0.002268   0.001962  -0.000991  -0.000042   0.000066
    42  H    0.000000   0.000059   0.002753  -0.001191  -0.000053  -0.000135
    43  H    0.000000   0.000002   0.000011   0.000003   0.000001  -0.000001
    44  H    0.000000  -0.000012  -0.000022   0.000003   0.000000  -0.000002
              19         20         21         22         23         24
     1  C   -0.001494   0.000000   0.000000  -0.000005  -0.000005  -0.000494
     2  C    0.000238  -0.000131   0.000489   0.000040   0.000300  -0.000264
     3  C    0.018152   0.003907  -0.003870   0.000123  -0.000768   0.001618
     4  C   -0.010244  -0.003568   0.003854  -0.000407   0.000286  -0.003884
     5  C    0.000080  -0.000009   0.000511  -0.000016  -0.000008  -0.000106
     6  H   -0.000011   0.000000   0.000000   0.000000   0.000000  -0.000002
     7  H   -0.006659   0.000010  -0.000080  -0.000008   0.000465  -0.001440
     8  H   -0.001718   0.000248   0.000351   0.000008   0.000087   0.003960
     9  H    0.000717   0.000615  -0.003494   0.000297  -0.000030   0.000056
    10  O   -0.000007   0.000001  -0.000002   0.000000   0.000000   0.000005
    11  O   -0.000005   0.000006   0.000012  -0.000001   0.000000  -0.000003
    12  C    0.000232   0.000000  -0.000001   0.000000  -0.000003   0.000065
    13  C    0.000093   0.000000   0.000000   0.000000   0.000003   0.000028
    14  C   -0.000921   0.000010   0.000003   0.000003  -0.000010   0.000525
    15  O   -0.026931  -0.001171   0.001403   0.001248   0.001257   0.000616
    16  Si   0.332529  -0.040663  -0.032691  -0.030418  -0.021814  -0.034085
    17  C   -0.046193   0.001747   0.002738   0.001721   0.000292   0.003080
    18  C   -0.046589   0.395737   0.390120   0.385671   0.000982   0.001351
    19  C    5.198300   0.003090   0.001305   0.001865   0.381611   0.390277
    20  H    0.003090   0.506741  -0.018513  -0.015799  -0.000125  -0.000193
    21  H    0.001305  -0.018513   0.510200  -0.017725   0.000238   0.000676
    22  H    0.001865  -0.015799  -0.017725   0.508653   0.000192   0.000175
    23  H    0.381611  -0.000125   0.000238   0.000192   0.492064  -0.014119
    24  H    0.390277  -0.000193   0.000676   0.000175  -0.014119   0.511063
    25  H    0.395002  -0.000095  -0.000172  -0.000193  -0.014858  -0.021275
    26  H    0.003069   0.000245  -0.000149  -0.000111   0.000179  -0.000164
    27  H    0.000358  -0.000177  -0.000095  -0.000126   0.000264  -0.000119
    28  H    0.003208   0.000771  -0.000138   0.000235  -0.000142  -0.000091
    29  H    0.000204   0.000000   0.000000   0.000000  -0.000001  -0.000008
    30  H   -0.000022   0.000000   0.000000   0.000000   0.000001  -0.000004
    31  H   -0.000173  -0.000005  -0.000003  -0.000005  -0.000005  -0.000020
    32  H    0.000001   0.000000   0.000000   0.000000   0.000000   0.000000
    33  H   -0.000119   0.000000   0.000000   0.000000   0.000001   0.000098
    34  H   -0.000002   0.000000   0.000000   0.000000   0.000000   0.000001
    35  H   -0.000005   0.000000   0.000000   0.000000   0.000000   0.000000
    36  H    0.000137   0.000000   0.000000   0.000000   0.000003  -0.000016
    37  C   -0.001195  -0.000101   0.000065  -0.000053   0.000023  -0.000037
    38  C    0.000276  -0.000322   0.000078   0.000067  -0.000003   0.000002
    39  C    0.000018   0.000117   0.000056  -0.000002   0.000000   0.000000
    40  H    0.000030   0.000003  -0.000007   0.000000   0.000000  -0.000002
    41  H    0.000081   0.000001  -0.000001  -0.000001  -0.000001  -0.000003
    42  H    0.000173   0.001117  -0.000092   0.000005  -0.000003  -0.000006
    43  H    0.000000  -0.000003  -0.000001   0.000000   0.000000   0.000000
    44  H    0.000000   0.000003   0.000000   0.000000   0.000000   0.000000
              25         26         27         28         29         30
     1  C    0.000440   0.000000   0.000015   0.000002   0.001857  -0.016827
     2  C    0.000630   0.000000  -0.000494  -0.000040  -0.052814  -0.015477
     3  C   -0.001134  -0.000065   0.000764   0.000012   0.015475  -0.032520
     4  C    0.000843   0.000038   0.000096   0.000143  -0.000719  -0.000959
     5  C   -0.000004   0.000000  -0.000001   0.000002   0.000028   0.000419
     6  H   -0.000003   0.000000   0.000000   0.000000  -0.000903   0.003163
     7  H   -0.001499  -0.000009   0.000080  -0.000001  -0.008087   0.006919
     8  H   -0.000403   0.000000   0.000001  -0.000013   0.000006   0.000012
     9  H   -0.000027  -0.000001  -0.000007   0.000003   0.000008  -0.000007
    10  O   -0.000002   0.000000   0.000000   0.000000  -0.000069   0.000283
    11  O    0.000000   0.000000   0.000000   0.000000   0.000000   0.000002
    12  C   -0.000034   0.000000   0.000000   0.000000  -0.005960   0.002562
    13  C   -0.000024   0.000000  -0.000001   0.000000   0.001235  -0.001399
    14  C   -0.000796  -0.000021  -0.000152  -0.000010   0.426734   0.419782
    15  O    0.000262   0.001298   0.000065   0.000812   0.000153   0.000910
    16  Si  -0.042042  -0.042613  -0.032267  -0.033730  -0.000415   0.000094
    17  C    0.000868   0.392081   0.390140   0.390957   0.000010   0.000005
    18  C    0.003546   0.002943   0.003023   0.000836   0.000001   0.000006
    19  C    0.395002   0.003069   0.000358   0.003208   0.000204  -0.000022
    20  H   -0.000095   0.000245  -0.000177   0.000771   0.000000   0.000000
    21  H   -0.000172  -0.000149  -0.000095  -0.000138   0.000000   0.000000
    22  H   -0.000193  -0.000111  -0.000126   0.000235   0.000000   0.000000
    23  H   -0.014858   0.000179   0.000264  -0.000142  -0.000001   0.000001
    24  H   -0.021275  -0.000164  -0.000119  -0.000091  -0.000008  -0.000004
    25  H    0.512268   0.000280   0.000807  -0.000192  -0.000006   0.000010
    26  H    0.000280   0.526954  -0.019706  -0.018439   0.000000   0.000000
    27  H    0.000807  -0.019706   0.518341  -0.017946  -0.000003   0.000008
    28  H   -0.000192  -0.018439  -0.017946   0.514387   0.000000   0.000000
    29  H   -0.000006   0.000000  -0.000003   0.000000   0.500373  -0.021671
    30  H    0.000010   0.000000   0.000008   0.000000  -0.021671   0.502257
    31  H    0.000419   0.000039   0.000724   0.000024  -0.019249  -0.022760
    32  H    0.000001   0.000000   0.000000   0.000000  -0.000133   0.000020
    33  H    0.000016   0.000000   0.000000   0.000000   0.000132  -0.000071
    34  H   -0.000001   0.000000   0.000000   0.000000   0.000631  -0.000025
    35  H    0.000001   0.000000   0.000000   0.000000  -0.003111   0.000192
    36  H    0.000094   0.000000   0.000000   0.000000  -0.003614   0.000437
    37  C   -0.000026   0.000005   0.000072   0.000026  -0.000163   0.010428
    38  C   -0.000008  -0.000002   0.000016  -0.000112   0.000060  -0.000130
    39  C    0.000000   0.000001   0.000000   0.000011  -0.000001  -0.000022
    40  H    0.000000   0.000000  -0.000001   0.000002  -0.000039   0.000327
    41  H    0.000003   0.000003   0.000003  -0.000011   0.000585  -0.008236
    42  H   -0.000004   0.000007  -0.000006   0.000467   0.000000   0.000024
    43  H    0.000000   0.000000   0.000000  -0.000001   0.000000   0.000001
    44  H    0.000000   0.000000   0.000000   0.000000   0.000000   0.000001
              31         32         33         34         35         36
     1  C    0.013106  -0.070944  -0.002176   0.012054   0.017531  -0.029669
     2  C   -0.064300   0.014704  -0.024993  -0.001617  -0.013124   0.027008
     3  C    0.011905  -0.000176  -0.004028   0.000073  -0.000630   0.000908
     4  C    0.002543   0.001884   0.000470  -0.000058   0.000014   0.000012
     5  C   -0.000336  -0.001365  -0.000351  -0.000013  -0.000027  -0.000038
     6  H    0.000204  -0.004068   0.005843  -0.000396   0.001040   0.001722
     7  H   -0.002760   0.000075   0.002915  -0.000115   0.001234  -0.001269
     8  H   -0.000017  -0.000062  -0.000074   0.000001  -0.000003   0.000024
     9  H   -0.000031  -0.000021   0.000069   0.000000   0.000000   0.000000
    10  O   -0.000200   0.003170  -0.001319  -0.000248  -0.000068   0.000006
    11  O    0.000000  -0.000026  -0.000158   0.000000   0.000000   0.000000
    12  C   -0.000227   0.445371   0.397355  -0.041636  -0.061309  -0.026873
    13  C    0.000108  -0.033845  -0.038538   0.416460   0.422963   0.406731
    14  C    0.417451  -0.001191   0.002424   0.000632   0.001468  -0.012035
    15  O    0.009073   0.000013  -0.000026   0.000000   0.000001  -0.000003
    16  Si  -0.000427   0.000011  -0.000066  -0.000002   0.000001  -0.000005
    17  C   -0.000792   0.000000   0.000000   0.000000   0.000000  -0.000001
    18  C    0.000158   0.000000  -0.000001   0.000000   0.000000   0.000001
    19  C   -0.000173   0.000001  -0.000119  -0.000002  -0.000005   0.000137
    20  H   -0.000005   0.000000   0.000000   0.000000   0.000000   0.000000
    21  H   -0.000003   0.000000   0.000000   0.000000   0.000000   0.000000
    22  H   -0.000005   0.000000   0.000000   0.000000   0.000000   0.000000
    23  H   -0.000005   0.000000   0.000001   0.000000   0.000000   0.000003
    24  H   -0.000020   0.000000   0.000098   0.000001   0.000000  -0.000016
    25  H    0.000419   0.000001   0.000016  -0.000001   0.000001   0.000094
    26  H    0.000039   0.000000   0.000000   0.000000   0.000000   0.000000
    27  H    0.000724   0.000000   0.000000   0.000000   0.000000   0.000000
    28  H    0.000024   0.000000   0.000000   0.000000   0.000000   0.000000
    29  H   -0.019249  -0.000133   0.000132   0.000631  -0.003111  -0.003614
    30  H   -0.022760   0.000020  -0.000071  -0.000025   0.000192   0.000437
    31  H    0.494913   0.000036  -0.000014  -0.000019   0.000076   0.000283
    32  H    0.000036   0.514402  -0.022135  -0.006473  -0.001936   0.005225
    33  H   -0.000014  -0.022135   0.535152  -0.003336   0.006287  -0.003380
    34  H   -0.000019  -0.006473  -0.003336   0.503619  -0.019054  -0.021989
    35  H    0.000076  -0.001936   0.006287  -0.019054   0.514806  -0.030791
    36  H    0.000283   0.005225  -0.003380  -0.021989  -0.030791   0.535863
    37  C   -0.008972  -0.000046   0.000054  -0.000001  -0.000006   0.000022
    38  C   -0.000242  -0.000006  -0.000010   0.000000  -0.000001   0.000000
    39  C    0.000045   0.000000   0.000001   0.000000   0.000000   0.000000
    40  H    0.000062  -0.000012  -0.000039   0.000002   0.000011  -0.000014
    41  H   -0.000139   0.000005   0.000000   0.000000  -0.000003   0.000000
    42  H   -0.000010   0.000000   0.000000   0.000000   0.000000   0.000000
    43  H    0.000000   0.000000   0.000000   0.000000   0.000000   0.000000
    44  H    0.000000   0.000000   0.000000   0.000000   0.000000   0.000000
              37         38         39         40         41         42
     1  C    0.004538  -0.003721   0.000635  -0.003400  -0.002258  -0.000090
     2  C   -0.066594   0.013233  -0.000648  -0.002342  -0.004508   0.000279
     3  C    0.156328  -0.027954  -0.008678  -0.025048  -0.063279   0.006979
     4  C   -0.039977  -0.007955  -0.001254  -0.011594   0.006629  -0.003520
     5  C    0.003918   0.008474   0.002014  -0.002847  -0.000068   0.000351
     6  H    0.006682  -0.000305   0.000090  -0.003841  -0.000053   0.000002
     7  H    0.012612  -0.000889   0.000002  -0.000238  -0.000850   0.000022
     8  H    0.006300   0.000601   0.000191  -0.000247  -0.000176  -0.000113
     9  H   -0.008421  -0.001980  -0.000034   0.000836  -0.000097   0.001231
    10  O   -0.014134   0.001325  -0.000676   0.008268   0.000261  -0.000004
    11  O    0.003900  -0.003128   0.001582  -0.001401  -0.000037   0.000043
    12  C    0.000179   0.000065  -0.000013   0.000791  -0.000186   0.000002
    13  C   -0.000112   0.000000   0.000001  -0.000073   0.000031   0.000000
    14  C    0.006639   0.000013  -0.000237   0.000141  -0.002268   0.000059
    15  O   -0.096122   0.011864   0.002886   0.004293   0.001962   0.002753
    16  Si   0.009542   0.000972  -0.000097  -0.000165  -0.000991  -0.001191
    17  C   -0.000319  -0.000102  -0.000011   0.000002  -0.000042  -0.000053
    18  C    0.000560  -0.002214   0.000108   0.000022   0.000066  -0.000135
    19  C   -0.001195   0.000276   0.000018   0.000030   0.000081   0.000173
    20  H   -0.000101  -0.000322   0.000117   0.000003   0.000001   0.001117
    21  H    0.000065   0.000078   0.000056  -0.000007  -0.000001  -0.000092
    22  H   -0.000053   0.000067  -0.000002   0.000000  -0.000001   0.000005
    23  H    0.000023  -0.000003   0.000000   0.000000  -0.000001  -0.000003
    24  H   -0.000037   0.000002   0.000000  -0.000002  -0.000003  -0.000006
    25  H   -0.000026  -0.000008   0.000000   0.000000   0.000003  -0.000004
    26  H    0.000005  -0.000002   0.000001   0.000000   0.000003   0.000007
    27  H    0.000072   0.000016   0.000000  -0.000001   0.000003  -0.000006
    28  H    0.000026  -0.000112   0.000011   0.000002  -0.000011   0.000467
    29  H   -0.000163   0.000060  -0.000001  -0.000039   0.000585   0.000000
    30  H    0.010428  -0.000130  -0.000022   0.000327  -0.008236   0.000024
    31  H   -0.008972  -0.000242   0.000045   0.000062  -0.000139  -0.000010
    32  H   -0.000046  -0.000006   0.000000  -0.000012   0.000005   0.000000
    33  H    0.000054  -0.000010   0.000001  -0.000039   0.000000   0.000000
    34  H   -0.000001   0.000000   0.000000   0.000002   0.000000   0.000000
    35  H   -0.000006  -0.000001   0.000000   0.000011  -0.000003   0.000000
    36  H    0.000022   0.000000   0.000000  -0.000014   0.000000   0.000000
    37  C    5.402277   0.205057  -0.038830   0.420437   0.438714  -0.043779
    38  C    0.205057   5.209556   0.523478  -0.044571  -0.030238   0.410974
    39  C   -0.038830   0.523478   5.003954   0.003124  -0.004586  -0.026663
    40  H    0.420437  -0.044571   0.003124   0.467953  -0.010927   0.002734
    41  H    0.438714  -0.030238  -0.004586  -0.010927   0.494734   0.000714
    42  H   -0.043779   0.410974  -0.026663   0.002734   0.000714   0.490224
    43  H    0.006657  -0.054723   0.427225   0.000187  -0.000330  -0.006080
    44  H    0.006141  -0.062289   0.429191  -0.001006   0.000709   0.003917
              43         44
     1  C    0.000002  -0.000072
     2  C    0.000032   0.000153
     3  C   -0.000187  -0.002155
     4  C    0.000101   0.000490
     5  C   -0.000004  -0.000066
     6  H    0.000000   0.000011
     7  H    0.000000   0.000001
     8  H   -0.000002  -0.000018
     9  H    0.000027   0.000100
    10  O   -0.000004  -0.000083
    11  O   -0.000008   0.000074
    12  C    0.000000   0.000001
    13  C    0.000000   0.000000
    14  C    0.000002  -0.000012
    15  O    0.000011  -0.000022
    16  Si   0.000003   0.000003
    17  C    0.000001   0.000000
    18  C   -0.000001  -0.000002
    19  C    0.000000   0.000000
    20  H   -0.000003   0.000003
    21  H   -0.000001   0.000000
    22  H    0.000000   0.000000
    23  H    0.000000   0.000000
    24  H    0.000000   0.000000
    25  H    0.000000   0.000000
    26  H    0.000000   0.000000
    27  H    0.000000   0.000000
    28  H   -0.000001   0.000000
    29  H    0.000000   0.000000
    30  H    0.000001   0.000001
    31  H    0.000000   0.000000
    32  H    0.000000   0.000000
    33  H    0.000000   0.000000
    34  H    0.000000   0.000000
    35  H    0.000000   0.000000
    36  H    0.000000   0.000000
    37  C    0.006657   0.006141
    38  C   -0.054723  -0.062289
    39  C    0.427225   0.429191
    40  H    0.000187  -0.001006
    41  H   -0.000330   0.000709
    42  H   -0.006080   0.003917
    43  H    0.504158  -0.023308
    44  H   -0.023308   0.503685
 Mulliken charges:
               1
     1  C   -0.001368
     2  C   -0.253029
     3  C    0.282272
     4  C   -0.462731
     5  C    0.340012
     6  H    0.182644
     7  H    0.198618
     8  H    0.206180
     9  H    0.215011
    10  O   -0.245901
    11  O   -0.363897
    12  C   -0.246431
    13  C   -0.482831
    14  C   -0.483528
    15  O   -0.393956
    16  Si   0.472946
    17  C   -0.571089
    18  C   -0.562676
    19  C   -0.588757
    20  H    0.166509
    21  H    0.164938
    22  H    0.164564
    23  H    0.173649
    24  H    0.162741
    25  H    0.167309
    26  H    0.154136
    27  H    0.156322
    28  H    0.158968
    29  H    0.169477
    30  H    0.172271
    31  H    0.169538
    32  H    0.157522
    33  H    0.150019
    34  H    0.161511
    35  H    0.164441
    36  H    0.151221
    37  C   -0.382287
    38  C   -0.145209
    39  C   -0.312976
    40  H    0.198590
    41  H    0.184786
    42  H    0.159672
    43  H    0.146247
    44  H    0.144553
 Sum of Mulliken charges =   0.00000
 Mulliken charges with hydrogens summed into heavy atoms:
               1
     1  C    0.181276
     2  C   -0.054411
     3  C    0.282272
     4  C   -0.041541
     5  C    0.340012
    10  O   -0.245901
    11  O   -0.363897
    12  C    0.061110
    13  C   -0.005659
    14  C    0.027759
    15  O   -0.393956
    16  Si   0.472946
    17  C   -0.101663
    18  C   -0.066664
    19  C   -0.085058
    37  C    0.001089
    38  C    0.014463
    39  C   -0.022176
 Electronic spatial extent (au):  <R**2>=           5364.2826
 Charge=              0.0000 electrons
 Dipole moment (field-independent basis, Debye):
    X=             -1.8431    Y=             -5.0816    Z=              2.1709  Tot=              5.8251
 Quadrupole moment (field-independent basis, Debye-Ang):
   XX=           -119.1835   YY=           -125.1226   ZZ=           -125.9190
   XY=            -10.6490   XZ=             10.5492   YZ=              8.5602
 Traceless Quadrupole moment (field-independent basis, Debye-Ang):
   XX=              4.2249   YY=             -1.7142   ZZ=             -2.5107
   XY=            -10.6490   XZ=             10.5492   YZ=              8.5602
 Octapole moment (field-independent basis, Debye-Ang**2):
  XXX=             -4.3065  YYY=            -10.8832  ZZZ=              5.1885  XYY=            -13.6271
  XXY=            -32.1197  XXZ=             10.5975  XZZ=             -4.0622  YZZ=            -24.9506
  YYZ=             17.6425  XYZ=             15.8481
 Hexadecapole moment (field-independent basis, Debye-Ang**3):
 XXXX=          -3655.4989 YYYY=          -2496.5074 ZZZZ=          -1171.0337 XXXY=            -59.4744
 XXXZ=             53.1150 YYYX=            -47.5837 YYYZ=             21.2131 ZZZX=             19.3499
 ZZZY=              6.4743 XXYY=          -1033.7366 XXZZ=           -835.0571 YYZZ=           -686.7927
 XXYZ=             65.8165 YYXZ=             38.0538 ZZXY=            -24.8460
 N-N= 1.631134342356D+03 E-N=-5.755349780111D+03  KE= 1.059306874226D+03
 1\1\GINC-CPU-E-31\SP\RM062X\def2TZVP\C14H26O3Si1\KE291\26-Jun-2019\0\\
 # m062x/def2tzvp int=ultrafine scrf=(solvent=chloroform)\\IP1_1ginp013
 \\0,1\C,0,2.438045,-0.42369,0.252018\C,0,0.982075,-0.79864,0.640176\C,
 0,-0.025845,0.363446,0.41058\C,0,0.191098,0.866569,-1.024728\C,0,1.597
 303,1.377775,-1.251111\H,0,2.997404,-0.186554,1.163494\H,0,0.651881,-1
 .587406,-0.048179\H,0,0.01518,0.047868,-1.733352\H,0,-0.49073,1.679323
 ,-1.277232\O,0,2.588587,0.799352,-0.542242\O,0,1.868871,2.284291,-2.00
 9676\C,0,3.188429,-1.508913,-0.533613\C,0,3.402197,-2.832097,0.207552\
 C,0,0.92414,-1.367033,2.066675\O,0,-1.349196,-0.128029,0.603007\Si,0,-
 2.530678,-0.876263,-0.332816\C,0,-3.822723,-1.399865,0.929503\C,0,-3.2
 89405,0.330995,-1.568516\C,0,-1.879276,-2.397799,-1.243691\H,0,-3.6220
 51,1.247367,-1.069506\H,0,-2.592822,0.615424,-2.363311\H,0,-4.165445,-
 0.123378,-2.046105\H,0,-2.707551,-2.893881,-1.763655\H,0,-1.124043,-2.
 156462,-1.999014\H,0,-1.443482,-3.125604,-0.550983\H,0,-4.672452,-1.88
 6333,0.437631\H,0,-3.403704,-2.107334,1.652564\H,0,-4.206685,-0.538838
 ,1.486272\H,0,1.501972,-2.290107,2.149926\H,0,1.327754,-0.661235,2.799
 193\H,0,-0.11009,-1.588942,2.340341\H,0,4.160019,-1.086852,-0.81224\H,
 0,2.64617,-1.69013,-1.470677\H,0,4.027855,-3.49888,-0.393063\H,0,3.908
 318,-2.678289,1.166744\H,0,2.461063,-3.35492,0.40125\C,0,0.154077,1.51
 4541,1.436945\C,0,-0.761151,2.686743,1.210479\C,0,-0.356786,3.94175,1.
 007967\H,0,1.196685,1.850634,1.436481\H,0,-0.050592,1.091293,2.42688\H
 ,0,-1.826769,2.464296,1.229951\H,0,-1.06534,4.752408,0.864364\H,0,0.69
 7782,4.206604,0.981518\\Version=ES64L-G09RevD.01\State=1-A\HF=-1064.33
 78904\RMSD=1.248e-09\Dipole=-0.7251235,-1.9992467,0.8541148\Quadrupole
 =3.1411025,-1.2744655,-1.8666369,-7.9172964,7.8430515,6.3643318\PG=C01
  [X(C14H26O3Si1)]\\@


 When I told the people of Northern Ireland that I was
 an atheist, a woman in the audience stood up and said,
 "Yes, but is it the God of the Catholics or the God
 of the Protestants in whom you don't believe?"
                               -- Quentin Crisp
 Job cpu time:       0 days  2 hours 25 minutes 36.9 seconds.
 File lengths (MBytes):  RWF=    413 Int=      0 D2E=      0 Chk=     21 Scr=      1
 Normal termination of Gaussian 09 at Wed Jun 26 13:55:34 2019.
