 Entering Gaussian System, Link 0=/usr/local/Cluster-Apps/gaussian/g09/g09
 Initial command:
 /usr/local/Cluster-Apps/gaussian/g09/l1.exe "/home/ke291/rds/hpc-work/26Jun1304IP1NMR/Gau-42297.inp" -scrdir="/home/ke291/rds/hpc-work/26Jun1304IP1NMR/"
 Entering Link 1 = /usr/local/Cluster-Apps/gaussian/g09/l1.exe PID=     42308.
  
 Copyright (c) 1988,1990,1992,1993,1995,1998,2003,2009,2013,
            Gaussian, Inc.  All Rights Reserved.
  
 This is part of the Gaussian(R) 09 program.  It is based on
 the Gaussian(R) 03 system (copyright 2003, Gaussian, Inc.),
 the Gaussian(R) 98 system (copyright 1998, Gaussian, Inc.),
 the Gaussian(R) 94 system (copyright 1995, Gaussian, Inc.),
 the Gaussian 92(TM) system (copyright 1992, Gaussian, Inc.),
 the Gaussian 90(TM) system (copyright 1990, Gaussian, Inc.),
 the Gaussian 88(TM) system (copyright 1988, Gaussian, Inc.),
 the Gaussian 86(TM) system (copyright 1986, Carnegie Mellon
 University), and the Gaussian 82(TM) system (copyright 1983,
 Carnegie Mellon University). Gaussian is a federally registered
 trademark of Gaussian, Inc.
  
 This software contains proprietary and confidential information,
 including trade secrets, belonging to Gaussian, Inc.
  
 This software is provided under written license and may be
 used, copied, transmitted, or stored only in accord with that
 written license.
  
 The following legend is applicable only to US Government
 contracts under FAR:
  
                    RESTRICTED RIGHTS LEGEND
  
 Use, reproduction and disclosure by the US Government is
 subject to restrictions as set forth in subparagraphs (a)
 and (c) of the Commercial Computer Software - Restricted
 Rights clause in FAR 52.227-19.
  
 Gaussian, Inc.
 340 Quinnipiac St., Bldg. 40, Wallingford CT 06492
  
  
 ---------------------------------------------------------------
 Warning -- This program may not be used in any manner that
 competes with the business of Gaussian, Inc. or will provide
 assistance to any competitor of Gaussian, Inc.  The licensee
 of this program is prohibited from giving any competitor of
 Gaussian, Inc. access to this program.  By using this program,
 the user acknowledges that Gaussian, Inc. is engaged in the
 business of creating and licensing software in the field of
 computational chemistry and represents and warrants to the
 licensee that it is not a competitor of Gaussian, Inc. and that
 it will not use this program in any manner prohibited above.
 ---------------------------------------------------------------
  

 Cite this work as:
 Gaussian 09, Revision D.01,
 M. J. Frisch, G. W. Trucks, H. B. Schlegel, G. E. Scuseria, 
 M. A. Robb, J. R. Cheeseman, G. Scalmani, V. Barone, B. Mennucci, 
 G. A. Petersson, H. Nakatsuji, M. Caricato, X. Li, H. P. Hratchian, 
 A. F. Izmaylov, J. Bloino, G. Zheng, J. L. Sonnenberg, M. Hada, 
 M. Ehara, K. Toyota, R. Fukuda, J. Hasegawa, M. Ishida, T. Nakajima, 
 Y. Honda, O. Kitao, H. Nakai, T. Vreven, J. A. Montgomery, Jr., 
 J. E. Peralta, F. Ogliaro, M. Bearpark, J. J. Heyd, E. Brothers, 
 K. N. Kudin, V. N. Staroverov, T. Keith, R. Kobayashi, J. Normand, 
 K. Raghavachari, A. Rendell, J. C. Burant, S. S. Iyengar, J. Tomasi, 
 M. Cossi, N. Rega, J. M. Millam, M. Klene, J. E. Knox, J. B. Cross, 
 V. Bakken, C. Adamo, J. Jaramillo, R. Gomperts, R. E. Stratmann, 
 O. Yazyev, A. J. Austin, R. Cammi, C. Pomelli, J. W. Ochterski, 
 R. L. Martin, K. Morokuma, V. G. Zakrzewski, G. A. Voth, 
 P. Salvador, J. J. Dannenberg, S. Dapprich, A. D. Daniels, 
 O. Farkas, J. B. Foresman, J. V. Ortiz, J. Cioslowski, 
 and D. J. Fox, Gaussian, Inc., Wallingford CT, 2013.
 
 ******************************************
 Gaussian 09:  ES64L-G09RevD.01 24-Apr-2013
                26-Jun-2019 
 ******************************************
 %nprocshared=4
 Will use up to    4 processors via shared memory.
 %mem=6000MB
 %chk=IP1_2ginp014.chk
 --------------------------------------------------------
 # m062x/def2tzvp int=ultrafine scrf=(solvent=chloroform)
 --------------------------------------------------------
 1/38=1/1;
 2/12=2,17=6,18=5,40=1/2;
 3/5=44,7=101,11=2,16=1,25=1,30=1,70=2201,72=7,74=-55,75=-5/1,2,3;
 4//1;
 5/5=2,38=5,53=7/2;
 6/7=2,8=2,9=2,10=2,28=1/1;
 99/5=1,9=1/99;
 ------------
 IP1_2ginp014
 ------------
 Symbolic Z-matrix:
 Charge =  0 Multiplicity = 1
 C                    -2.30728   0.31797  -0.17033 
 C                    -0.97282  -0.05122  -0.84183 
 C                     0.18026   0.82313  -0.25166 
 C                    -0.1245    1.1573    1.24185 
 C                    -1.12696   0.27377   1.94627 
 H                    -2.46815   1.40339  -0.2292 
 H                    -0.76484  -1.0797   -0.5221 
 H                     0.79837   1.1651    1.82079 
 H                    -0.53586   2.17315   1.30064 
 O                    -2.23552  -0.04724   1.24109 
 O                    -1.02513  -0.10171   3.09548 
 C                    -3.56114  -0.37859  -0.70548 
 C                    -3.54169  -1.90889  -0.62869 
 C                    -1.03798  -0.04078  -2.37462 
 O                     1.4331    0.15329  -0.36232 
 Si                    2.0563   -1.37737  -0.04085 
 C                     1.30597  -2.17408   1.49562 
 C                     1.80752  -2.51161  -1.5289 
 C                     3.89488  -1.06996   0.21273 
 H                     2.21175  -2.05936  -2.44088 
 H                     2.33119  -3.46166  -1.36996 
 H                     0.75292  -2.74498  -1.70872 
 H                     4.33378  -0.57124  -0.6578 
 H                     4.07469  -0.43686   1.08787 
 H                     4.43203  -2.01288   0.36416 
 H                     1.86831  -3.08461   1.73514 
 H                     1.34749  -1.51728   2.36955 
 H                     0.26101  -2.46793   1.35356 
 H                    -0.0455   -0.21371  -2.79874 
 H                    -1.69481  -0.83291  -2.7417 
 H                    -1.41308   0.90912  -2.76737 
 H                    -3.72043  -0.04716  -1.73721 
 H                    -4.41052   0.00241  -0.12724 
 H                    -3.38451  -2.24527   0.3995 
 H                    -4.49612  -2.31632  -0.97493 
 H                    -2.75397  -2.34537  -1.25101 
 C                     0.3613    2.15238  -1.03403 
 C                     1.38797   3.07654  -0.43934 
 C                     1.15768   4.34197  -0.0853 
 H                    -0.6027    2.6701   -1.10578 
 H                     0.66949   1.88964  -2.05184 
 H                     2.38321   2.65482  -0.31096 
 H                     1.94171   4.97113   0.32599 
 H                     0.17732   4.79923  -0.20141 
 
                          Input orientation:                          
 ---------------------------------------------------------------------
 Center     Atomic      Atomic             Coordinates (Angstroms)
 Number     Number       Type             X           Y           Z
 ---------------------------------------------------------------------
      1          6           0       -2.307280    0.317971   -0.170330
      2          6           0       -0.972818   -0.051215   -0.841834
      3          6           0        0.180261    0.823128   -0.251662
      4          6           0       -0.124499    1.157304    1.241845
      5          6           0       -1.126960    0.273770    1.946268
      6          1           0       -2.468149    1.403391   -0.229202
      7          1           0       -0.764842   -1.079699   -0.522100
      8          1           0        0.798370    1.165096    1.820792
      9          1           0       -0.535861    2.173155    1.300635
     10          8           0       -2.235519   -0.047242    1.241086
     11          8           0       -1.025131   -0.101711    3.095476
     12          6           0       -3.561139   -0.378594   -0.705480
     13          6           0       -3.541690   -1.908893   -0.628687
     14          6           0       -1.037977   -0.040781   -2.374620
     15          8           0        1.433099    0.153285   -0.362321
     16         14           0        2.056303   -1.377371   -0.040854
     17          6           0        1.305974   -2.174083    1.495617
     18          6           0        1.807524   -2.511607   -1.528900
     19          6           0        3.894877   -1.069957    0.212727
     20          1           0        2.211747   -2.059358   -2.440884
     21          1           0        2.331185   -3.461658   -1.369956
     22          1           0        0.752920   -2.744976   -1.708722
     23          1           0        4.333782   -0.571236   -0.657799
     24          1           0        4.074690   -0.436861    1.087868
     25          1           0        4.432034   -2.012879    0.364159
     26          1           0        1.868306   -3.084608    1.735136
     27          1           0        1.347488   -1.517278    2.369548
     28          1           0        0.261012   -2.467934    1.353560
     29          1           0       -0.045495   -0.213708   -2.798738
     30          1           0       -1.694806   -0.832912   -2.741702
     31          1           0       -1.413077    0.909115   -2.767372
     32          1           0       -3.720425   -0.047159   -1.737210
     33          1           0       -4.410519    0.002413   -0.127235
     34          1           0       -3.384506   -2.245266    0.399498
     35          1           0       -4.496121   -2.316321   -0.974925
     36          1           0       -2.753967   -2.345370   -1.251006
     37          6           0        0.361301    2.152383   -1.034030
     38          6           0        1.387974    3.076544   -0.439337
     39          6           0        1.157682    4.341974   -0.085297
     40          1           0       -0.602701    2.670104   -1.105778
     41          1           0        0.669487    1.889643   -2.051843
     42          1           0        2.383212    2.654823   -0.310958
     43          1           0        1.941714    4.971133    0.325993
     44          1           0        0.177317    4.799232   -0.201413
 ---------------------------------------------------------------------
                    Distance matrix (angstroms):
                    1          2          3          4          5
     1  C    0.000000
     2  C    1.538832   0.000000
     3  C    2.539618   1.562808   0.000000
     4  C    2.731895   2.553797   1.560486   0.000000
     5  C    2.423860   2.811208   2.615629   1.510554   0.000000
     6  H    1.098855   2.174215   2.711325   2.777991   2.794191
     7  H    2.111004   1.096934   2.141753   2.919884   2.838283
     8  H    3.785135   3.421417   2.189536   1.089462   2.125347
     9  H    2.956919   3.119123   2.178309   1.097556   2.091388
    10  O    1.459666   2.435772   2.970157   2.430501   1.352492
    11  O    3.533487   3.937981   3.675817   2.414996   1.213274
    12  C    1.530931   2.612504   3.955776   4.238107   3.658220
    13  C    2.587041   3.177342   4.632387   4.957585   4.150341
    14  C    2.568799   1.534206   2.595649   3.917738   4.333236
    15  O    3.748922   2.461745   1.424970   2.451023   3.449348
    16  Si   4.683141   3.402328   2.899339   3.581311   4.099766
    17  C    4.694818   3.893988   3.647395   3.634390   3.480551
    18  C    5.175310   3.775697   3.924255   4.987048   5.333509
    19  C    6.367089   5.083738   4.194973   4.709051   5.479928
    20  H    5.588266   4.090361   4.150705   5.419175   5.986447
    21  H    6.102463   4.777706   4.923053   5.846939   6.075321
    22  H    4.594901   3.314516   3.896451   4.970261   5.099581
    23  H    6.718037   5.335194   4.400106   5.145169   6.108593
    24  H    6.548464   5.417546   4.306796   4.494247   5.319681
    25  H    7.151006   5.874944   5.147790   5.619821   6.215645
    26  H    5.713481   4.890218   4.697581   4.712582   4.504986
    27  H    4.814192   4.224469   3.702791   3.254512   3.083814
    28  H    4.084070   3.490361   3.662560   3.647389   3.129650
    29  H    3.508117   2.171590   2.759274   4.267579   4.891041
    30  H    2.882986   2.177571   3.529680   4.721808   4.850181
    31  H    2.809569   2.196306   2.979080   4.218513   4.764864
    32  H    2.141357   2.889820   4.263755   4.822467   4.516311
    33  H    2.127216   3.511597   4.665224   4.645226   3.892918
    34  H    2.838187   3.488697   4.748328   4.786928   3.719483
    35  H    3.518223   4.190714   5.678714   6.007597   5.156858
    36  H    2.908741   2.933097   4.432580   5.039557   4.441802
    37  C    3.351473   2.583149   1.552995   2.530966   3.824432
    38  C    4.619198   3.939317   2.563528   2.966046   4.457751
    39  C    5.310913   4.940798   3.655859   3.680682   5.088922
    40  H    3.051751   2.759027   2.180336   2.833474   3.915642
    41  H    3.856344   2.815709   2.148825   3.466283   4.671526
    42  H    5.242268   4.343663   2.865592   3.307926   4.804767
    43  H    6.320776   5.923031   4.543385   4.433206   5.840143
    44  H    5.124050   5.025911   3.976423   3.929087   5.176242
                    6          7          8          9         10
     6  H    0.000000
     7  H    3.025356   0.000000
     8  H    3.863859   3.601650   0.000000
     9  H    2.581990   3.735754   1.751262   0.000000
    10  O    2.078509   2.517476   3.318178   2.796882   0.000000
    11  O    3.924426   3.756470   2.560230   2.938682   2.215123
    12  C    2.144047   2.888677   5.269758   4.437142   2.378273
    13  C    3.504754   2.899967   5.855380   5.424058   2.944126
    14  C    2.955308   2.141444   4.735799   4.319853   3.808868
    15  O    4.098807   2.525218   2.488498   3.274462   4.008726
    16  Si   5.314017   2.877337   3.392972   4.596210   4.672510
    17  C    5.478807   3.091462   3.393157   4.725342   4.138890
    18  C    5.941195   3.111442   5.075133   5.953547   5.485628
    19  C    6.841115   4.717314   4.143633   5.597567   6.299621
    20  H    6.227648   3.674445   5.527804   6.281917   6.114220
    21  H    6.928465   3.997246   5.825568   6.863172   6.271408
    22  H    5.456484   2.546531   5.267656   5.908062   4.990982
    23  H    7.095711   5.125711   4.653751   5.922885   6.858283
    24  H    6.923145   5.140652   3.719908   5.302323   6.324082
    25  H    7.722403   5.353858   5.042303   6.563524   7.006354
    26  H    6.542599   4.006026   4.383159   5.797662   5.129430
    27  H    5.462865   3.607637   2.792453   4.278887   4.033903
    28  H    4.994058   2.549053   3.702157   4.709301   3.479234
    29  H    3.884170   2.539780   4.894207   4.768903   4.598271
    30  H    3.451343   2.419167   5.569947   5.169147   4.095394
    31  H    2.792811   3.068686   5.099733   4.349251   4.202233
    32  H    2.438520   3.358289   5.877793   4.929477   3.327941
    33  H    2.397069   3.823329   5.681476   4.665180   2.570096
    34  H    3.814141   3.011732   5.580958   5.333786   2.619113
    35  H    4.301747   3.956858   6.925889   6.404469   3.894836
    36  H    3.896022   2.467761   5.863311   5.643397   3.429388
    37  C    3.035544   3.460726   3.052175   2.501198   4.093651
    38  C    4.208715   4.681434   3.018186   2.746772   5.070657
    39  C    4.669329   5.769006   3.722208   3.081018   5.704237
    40  H    2.419265   3.798420   3.576711   2.458099   3.944342
    41  H    3.661041   3.635162   3.941939   3.573843   4.799371
    42  H    5.010835   4.888914   3.045549   3.369009   5.571595
    43  H    5.699466   6.682610   4.245889   3.862251   6.593236
    44  H    4.304765   5.962578   4.204993   3.108223   5.602757
                   11         12         13         14         15
    11  O    0.000000
    12  C    4.577692   0.000000
    13  C    4.844416   1.532348   0.000000
    14  C    5.470450   3.044091   3.578645   0.000000
    15  O    4.250209   5.034190   5.391851   3.192683   0.000000
    16  Si   4.578112   5.744122   5.653812   4.099696   1.683637
    17  C    3.505471   5.635370   5.299324   5.002381   2.980727
    18  C    5.934340   5.835264   5.457814   3.862266   2.933044
    19  C    5.783962   7.544088   7.530891   5.664505   2.808443
    20  H    6.705300   6.258019   6.033965   3.826193   3.134088
    21  H    6.518756   6.683285   6.119740   4.905405   3.858717
    22  H    5.764428   5.021689   4.506571   3.311103   3.267316
    23  H    6.559381   7.897415   7.988319   5.664332   3.004363
    24  H    5.490992   7.843811   7.944979   6.187493   3.070720
    25  H    6.394787   8.228355   8.035971   6.427371   3.770100
    26  H    4.372662   6.538959   6.019802   5.882300   3.882355
    27  H    2.856593   5.903136   5.748638   5.511589   3.203314
    28  H    3.207405   4.818073   4.324624   4.634412   3.344970
    29  H    5.976118   4.094957   4.450410   1.093069   2.873509
    30  H    5.920791   2.799251   3.005586   1.092541   4.051892
    31  H    5.961984   3.244035   4.128697   1.094192   3.802140
    32  H    5.533755   1.095303   2.174126   2.757147   5.337538
    33  H    4.675207   1.095892   2.158566   4.052980   5.850291
    34  H    4.174898   2.176382   1.093169   4.249904   5.435323
    35  H    5.789683   2.168312   1.093991   4.369896   6.452123
    36  H    5.187946   2.194842   1.094669   3.085168   4.956265
    37  C    4.904687   4.679671   5.647265   2.926624   2.365658
    38  C    5.330974   6.041732   7.013702   4.398667   2.924621
    39  C    5.884584   6.703407   7.839178   5.410218   4.206865
    40  H    5.050935   4.266984   5.461912   3.024619   3.321383
    41  H    5.773397   4.985558   5.847073   2.597336   2.540182
    42  H    5.551493   6.685251   7.485514   4.819701   2.676387
    43  H    6.496611   7.743701   8.849514   6.425819   4.893273
    44  H    6.027819   6.406248   7.681961   5.442931   4.815361
                   16         17         18         19         20
    16  Si   0.000000
    17  C    1.886395   0.000000
    18  C    1.887502   3.084344   0.000000
    19  C    1.881266   3.093108   3.077119   0.000000
    20  H    2.499883   4.040993   1.095281   3.294464   0.000000
    21  H    2.487232   3.304605   1.096395   3.266535   1.768501
    22  H    2.520106   3.301451   1.094982   4.045930   1.770398
    23  H    2.493469   4.046473   3.302399   1.095069   3.145939
    24  H    2.496489   3.293932   4.036346   1.094995   4.307568
    25  H    2.492389   3.328428   3.274211   1.095706   3.577723
    26  H    2.470656   1.096651   3.314507   3.237829   4.313726
    27  H    2.516353   1.094016   4.049472   3.367664   4.917423
    28  H    2.521267   1.094748   3.271419   4.057193   4.286036
    29  H    3.657539   4.910298   3.213488   5.032754   2.937622
    30  H    4.654228   5.362676   4.068811   6.326879   4.105584
    31  H    4.969760   5.922198   4.858747   6.400945   4.696571
    32  H    6.165847   6.343474   6.055998   7.927244   6.303552
    33  H    6.612946   6.328434   6.851935   8.381238   7.311517
    34  H    5.527165   4.817380   5.544983   7.376019   6.278565
    35  H    6.684937   6.307782   6.330953   8.565792   6.870994
    36  H    5.053730   4.904732   4.572971   6.926494   5.114287
    37  C    4.039628   5.099983   4.908081   4.942068   4.810629
    38  C    4.521373   5.596414   5.708818   4.889092   5.573355
    39  C    5.789681   6.706734   7.034050   6.072071   6.901949
    40  H    4.958469   5.820347   5.730475   5.996225   5.663165
    41  H    4.079303   5.431708   4.575981   4.928555   4.257291
    42  H    4.054431   5.267114   5.339176   4.053808   5.175856
    43  H    6.360127   7.268170   7.710385   6.349996   7.560181
    44  H    6.458080   7.265046   7.607113   6.959824   7.496292
                   21         22         23         24         25
    21  H    0.000000
    22  H    1.766159   0.000000
    23  H    3.587771   4.318814   0.000000
    24  H    4.269673   4.917567   1.769898   0.000000
    25  H    3.085398   4.285870   1.769855   1.770673   0.000000
    26  H    3.161965   3.635876   4.256965   3.506801   3.098529
    27  H    4.328067   4.300353   4.356349   3.201193   3.712362
    28  H    3.562393   3.113888   4.922447   4.328971   4.310848
    29  H    4.270738   2.869306   4.887690   5.668459   5.769679
    30  H    5.000060   3.273286   6.383964   6.936105   6.969710
    31  H    5.922493   4.377746   6.298264   6.840330   7.246369
    32  H    6.958136   5.223968   8.143097   8.300407   8.645368
    33  H    7.680802   6.058907   8.779144   8.583019   9.082599
    34  H    6.105710   4.670396   7.968201   7.706088   7.820074
    35  H    6.933971   5.317390   9.006280   9.013672   9.033115
    36  H    5.207592   3.559135   7.330459   7.466143   7.372782
    37  C    5.959089   4.959103   4.831175   4.999589   5.989592
    38  C    6.671116   5.992055   4.693805   4.679189   5.984491
    39  C    7.995257   7.281772   5.878350   5.720360   7.162929
    40  H    6.802645   5.614654   5.922486   6.028541   7.031330
    41  H    5.644700   4.648052   4.628860   5.183224   5.934939
    42  H    6.207699   5.811147   3.785826   3.791612   5.142071
    43  H    8.610453   8.067939   6.116183   5.863142   7.414821
    44  H    8.616667   7.714815   6.806351   6.653453   8.051543
                   26         27         28         29         30
    26  H    0.000000
    27  H    1.769252   0.000000
    28  H    1.763315   1.765335   0.000000
    29  H    5.697431   5.509163   4.734666   0.000000
    30  H    6.148819   5.987386   4.823867   1.762638   0.000000
    31  H    6.854916   6.316332   5.584722   1.769745   1.764848
    32  H    7.246875   6.686588   5.591498   3.828798   2.393647
    33  H    7.240288   6.457401   5.488039   5.122213   3.861127
    34  H    5.484565   5.177145   3.774866   5.050241   3.836270
    35  H    6.959930   6.780246   5.298598   5.249319   3.628963
    36  H    5.552380   5.533180   3.986086   3.778264   2.373084
    37  C    6.112726   5.101306   5.201728   2.979608   4.006957
    38  C    6.551248   5.384670   5.935129   4.295040   5.485277
    39  C    7.679393   6.355559   7.017776   5.437337   6.478628
    40  H    6.877018   5.780597   5.761404   3.390127   4.017470
    41  H    6.365654   5.622766   5.545457   2.343744   3.671252
    42  H    6.114957   5.065991   5.789386   4.507343   5.890929
    43  H    8.178388   6.828521   7.695477   6.371461   7.504796
    44  H    8.292442   6.919353   7.432136   5.650249   6.455924
                   31         32         33         34         35
    31  H    0.000000
    32  H    2.701768   0.000000
    33  H    4.095985   1.752343   0.000000
    34  H    4.885255   3.083835   2.526304   0.000000
    35  H    4.808478   2.516322   2.470310   1.769117   0.000000
    36  H    3.832626   2.540120   3.085306   1.769679   1.764133
    37  C    2.774636   4.689662   5.311771   5.951923   6.600557
    38  C    4.238323   6.126805   6.570404   7.197352   7.999526
    39  C    5.058344   6.766774   7.059632   8.016123   8.780081
    40  H    2.553172   4.183590   4.751168   5.845097   6.327739
    41  H    2.410496   4.808485   5.750845   6.288196   6.747843
    42  H    4.846986   6.825634   7.295465   7.601460   8.513422
    43  H    6.109298   7.842186   8.077404   8.969417   9.810458
    44  H    4.924074   6.406135   6.638013   7.916605   8.548125
                   36         37         38         39         40
    36  H    0.000000
    37  C    5.475560   0.000000
    38  C    6.871072   1.503925   0.000000
    39  C    7.834567   2.515676   1.334051   0.000000
    40  H    5.459305   1.096578   2.138253   2.633530   0.000000
    41  H    5.504245   1.095424   2.127236   3.181126   1.767094
    42  H    7.230230   2.205312   1.088498   2.097457   3.089927
    43  H    8.835585   3.506097   2.117032   1.086143   3.717358
    44  H    7.793549   2.780811   2.118951   1.087972   2.441207
                   41         42         43         44
    41  H    0.000000
    42  H    2.559890   0.000000
    43  H    4.094905   2.442523   0.000000
    44  H    3.483106   3.078386   1.849542   0.000000
 Stoichiometry    C14H26O3Si
 Framework group  C1[X(C14H26O3Si)]
 Deg. of freedom   126
 Full point group                 C1      NOp   1
 Largest Abelian subgroup         C1      NOp   1
 Largest concise Abelian subgroup C1      NOp   1
                         Standard orientation:                         
 ---------------------------------------------------------------------
 Center     Atomic      Atomic             Coordinates (Angstroms)
 Number     Number       Type             X           Y           Z
 ---------------------------------------------------------------------
      1          6           0       -2.307280    0.317971   -0.170330
      2          6           0       -0.972818   -0.051215   -0.841834
      3          6           0        0.180261    0.823128   -0.251662
      4          6           0       -0.124499    1.157304    1.241845
      5          6           0       -1.126960    0.273770    1.946268
      6          1           0       -2.468149    1.403391   -0.229202
      7          1           0       -0.764842   -1.079699   -0.522100
      8          1           0        0.798370    1.165096    1.820792
      9          1           0       -0.535861    2.173155    1.300635
     10          8           0       -2.235519   -0.047242    1.241086
     11          8           0       -1.025131   -0.101711    3.095476
     12          6           0       -3.561139   -0.378595   -0.705480
     13          6           0       -3.541690   -1.908894   -0.628687
     14          6           0       -1.037977   -0.040781   -2.374620
     15          8           0        1.433099    0.153285   -0.362321
     16         14           0        2.056303   -1.377371   -0.040854
     17          6           0        1.305974   -2.174083    1.495617
     18          6           0        1.807524   -2.511607   -1.528900
     19          6           0        3.894877   -1.069956    0.212727
     20          1           0        2.211747   -2.059358   -2.440884
     21          1           0        2.331185   -3.461658   -1.369956
     22          1           0        0.752920   -2.744976   -1.708722
     23          1           0        4.333782   -0.571235   -0.657799
     24          1           0        4.074690   -0.436860    1.087868
     25          1           0        4.432034   -2.012878    0.364159
     26          1           0        1.868306   -3.084608    1.735136
     27          1           0        1.347488   -1.517278    2.369548
     28          1           0        0.261012   -2.467934    1.353560
     29          1           0       -0.045495   -0.213708   -2.798738
     30          1           0       -1.694806   -0.832912   -2.741702
     31          1           0       -1.413077    0.909115   -2.767372
     32          1           0       -3.720425   -0.047160   -1.737210
     33          1           0       -4.410519    0.002412   -0.127235
     34          1           0       -3.384506   -2.245267    0.399498
     35          1           0       -4.496121   -2.316322   -0.974925
     36          1           0       -2.753967   -2.345370   -1.251006
     37          6           0        0.361301    2.152383   -1.034030
     38          6           0        1.387973    3.076544   -0.439337
     39          6           0        1.157681    4.341974   -0.085297
     40          1           0       -0.602701    2.670104   -1.105778
     41          1           0        0.669487    1.889643   -2.051843
     42          1           0        2.383212    2.654823   -0.310958
     43          1           0        1.941713    4.971133    0.325993
     44          1           0        0.177316    4.799232   -0.201413
 ---------------------------------------------------------------------
 Rotational constants (GHZ):      0.3976474      0.3218521      0.2642795
 Standard basis: def2TZVP (5D, 7F)
 There are   810 symmetry adapted cartesian basis functions of A   symmetry.
 There are   720 symmetry adapted basis functions of A   symmetry.
   720 basis functions,  1144 primitive gaussians,   810 cartesian basis functions
    74 alpha electrons       74 beta electrons
       nuclear repulsion energy      1643.3246485768 Hartrees.
 NAtoms=   44 NActive=   44 NUniq=   44 SFac= 1.00D+00 NAtFMM=   60 NAOKFM=F Big=F
 Integral buffers will be    131072 words long.
 Raffenetti 2 integral format.
 Two-electron integral symmetry is turned on.
 ------------------------------------------------------------------------------
 Polarizable Continuum Model (PCM)
 =================================
 Model                : PCM (using non-symmetric T matrix).
 Atomic radii         : UFF (Universal Force Field).
 Polarization charges : Total charges.
 Charge compensation  : None.
 Solution method      : On-the-fly selection.
 Cavity type          : Scaled VdW (van der Waals Surface) (Alpha=1.100).
 Cavity algorithm     : GePol (No added spheres)
                        Default sphere list used, NSphG=   44.
                        Lebedev-Laikov grids with approx.  5.0 points / Ang**2.
                        Smoothing algorithm: Karplus/York (Gamma=1.0000).
                        Polarization charges: spherical gaussians, with
                                              point-specific exponents (IZeta= 3).
                        Self-potential: point-specific (ISelfS= 7).
                        Self-field    : sphere-specific E.n sum rule (ISelfD= 2).
 Solvent              : Chloroform, Eps=   4.711300 Eps(inf)=   2.090627
 ------------------------------------------------------------------------------
 One-electron integrals computed using PRISM.
   1 Symmetry operations used in ECPInt.
 ECPInt:  NShTT=   46360 NPrTT=  137514 LenC2=   42498 LenP2D=   91260.
 LDataN:  DoStor=T MaxTD1= 6 Len=  172
 NBasis=   720 RedAO= T EigKep=  2.42D-05  NBF=   720
 NBsUse=   720 1.00D-06 EigRej= -1.00D+00 NBFU=   720
 ExpMin= 7.01D-02 ExpMax= 4.48D+04 ExpMxC= 1.53D+03 IAcc=3 IRadAn=         5 AccDes= 0.00D+00
 Harris functional with IExCor= 1009 and IRadAn=       5 diagonalized for initial guess.
 HarFok:  IExCor= 1009 AccDes= 0.00D+00 IRadAn=         5 IDoV= 1 UseB2=F ITyADJ=14
 ICtDFT=  3500011 ScaDFX=  1.000000  1.000000  1.000000  1.000000
 FoFCou: FMM=F IPFlag=           0 FMFlag=      100000 FMFlg1=           0
         NFxFlg=           0 DoJE=T BraDBF=F KetDBF=T FulRan=T
         wScrn=  0.000000 ICntrl=     500 IOpCl=  0 I1Cent=   200000004 NGrid=           0
         NMat0=    1 NMatS0=      1 NMatT0=    0 NMatD0=    1 NMtDS0=    0 NMtDT0=    0
 Petite list used in FoFCou.
 Requested convergence on RMS density matrix=1.00D-08 within 128 cycles.
 Requested convergence on MAX density matrix=1.00D-06.
 Requested convergence on             energy=1.00D-06.
 No special actions if energy rises.
 Inv3:  Mode=1 IEnd=    24043683.
 Iteration    1 A*A^-1 deviation from unit magnitude is 5.77D-15 for   2818.
 Iteration    1 A*A^-1 deviation from orthogonality  is 4.84D-15 for   2818   1725.
 Iteration    1 A^-1*A deviation from unit magnitude is 6.00D-15 for   2818.
 Iteration    1 A^-1*A deviation from orthogonality  is 6.06D-13 for   2183   2179.
 Error on total polarization charges =  0.01453
 SCF Done:  E(RM062X) =  -1064.34063823     A.U. after   14 cycles
            NFock= 14  Conv=0.12D-08     -V/T= 2.0048

 **********************************************************************

            Population analysis using the SCF density.

 **********************************************************************

 Orbital symmetries:
       Occupied  (A) (A) (A) (A) (A) (A) (A) (A) (A) (A) (A) (A)
                 (A) (A) (A) (A) (A) (A) (A) (A) (A) (A) (A) (A)
                 (A) (A) (A) (A) (A) (A) (A) (A) (A) (A) (A) (A)
                 (A) (A) (A) (A) (A) (A) (A) (A) (A) (A) (A) (A)
                 (A) (A) (A) (A) (A) (A) (A) (A) (A) (A) (A) (A)
                 (A) (A) (A) (A) (A) (A) (A) (A) (A) (A) (A) (A)
                 (A) (A)
       Virtual   (A) (A) (A) (A) (A) (A) (A) (A) (A) (A) (A) (A)
                 (A) (A) (A) (A) (A) (A) (A) (A) (A) (A) (A) (A)
                 (A) (A) (A) (A) (A) (A) (A) (A) (A) (A) (A) (A)
                 (A) (A) (A) (A) (A) (A) (A) (A) (A) (A) (A) (A)
                 (A) (A) (A) (A) (A) (A) (A) (A) (A) (A) (A) (A)
                 (A) (A) (A) (A) (A) (A) (A) (A) (A) (A) (A) (A)
                 (A) (A) (A) (A) (A) (A) (A) (A) (A) (A) (A) (A)
                 (A) (A) (A) (A) (A) (A) (A) (A) (A) (A) (A) (A)
                 (A) (A) (A) (A) (A) (A) (A) (A) (A) (A) (A) (A)
                 (A) (A) (A) (A) (A) (A) (A) (A) (A) (A) (A) (A)
                 (A) (A) (A) (A) (A) (A) (A) (A) (A) (A) (A) (A)
                 (A) (A) (A) (A) (A) (A) (A) (A) (A) (A) (A) (A)
                 (A) (A) (A) (A) (A) (A) (A) (A) (A) (A) (A) (A)
                 (A) (A) (A) (A) (A) (A) (A) (A) (A) (A) (A) (A)
                 (A) (A) (A) (A) (A) (A) (A) (A) (A) (A) (A) (A)
                 (A) (A) (A) (A) (A) (A) (A) (A) (A) (A) (A) (A)
                 (A) (A) (A) (A) (A) (A) (A) (A) (A) (A) (A) (A)
                 (A) (A) (A) (A) (A) (A) (A) (A) (A) (A) (A) (A)
                 (A) (A) (A) (A) (A) (A) (A) (A) (A) (A) (A) (A)
                 (A) (A) (A) (A) (A) (A) (A) (A) (A) (A) (A) (A)
                 (A) (A) (A) (A) (A) (A) (A) (A) (A) (A) (A) (A)
                 (A) (A) (A) (A) (A) (A) (A) (A) (A) (A) (A) (A)
                 (A) (A) (A) (A) (A) (A) (A) (A) (A) (A) (A) (A)
                 (A) (A) (A) (A) (A) (A) (A) (A) (A) (A) (A) (A)
                 (A) (A) (A) (A) (A) (A) (A) (A) (A) (A) (A) (A)
                 (A) (A) (A) (A) (A) (A) (A) (A) (A) (A) (A) (A)
                 (A) (A) (A) (A) (A) (A) (A) (A) (A) (A) (A) (A)
                 (A) (A) (A) (A) (A) (A) (A) (A) (A) (A) (A) (A)
                 (A) (A) (A) (A) (A) (A) (A) (A) (A) (A) (A) (A)
                 (A) (A) (A) (A) (A) (A) (A) (A) (A) (A) (A) (A)
                 (A) (A) (A) (A) (A) (A) (A) (A) (A) (A) (A) (A)
                 (A) (A) (A) (A) (A) (A) (A) (A) (A) (A) (A) (A)
                 (A) (A) (A) (A) (A) (A) (A) (A) (A) (A) (A) (A)
                 (A) (A) (A) (A) (A) (A) (A) (A) (A) (A) (A) (A)
                 (A) (A) (A) (A) (A) (A) (A) (A) (A) (A) (A) (A)
                 (A) (A) (A) (A) (A) (A) (A) (A) (A) (A) (A) (A)
                 (A) (A) (A) (A) (A) (A) (A) (A) (A) (A) (A) (A)
                 (A) (A) (A) (A) (A) (A) (A) (A) (A) (A) (A) (A)
                 (A) (A) (A) (A) (A) (A) (A) (A) (A) (A) (A) (A)
                 (A) (A) (A) (A) (A) (A) (A) (A) (A) (A) (A) (A)
                 (A) (A) (A) (A) (A) (A) (A) (A) (A) (A) (A) (A)
                 (A) (A) (A) (A) (A) (A) (A) (A) (A) (A) (A) (A)
                 (A) (A) (A) (A) (A) (A) (A) (A) (A) (A) (A) (A)
                 (A) (A) (A) (A) (A) (A) (A) (A) (A) (A) (A) (A)
                 (A) (A) (A) (A) (A) (A) (A) (A) (A) (A) (A) (A)
                 (A) (A) (A) (A) (A) (A) (A) (A) (A) (A) (A) (A)
                 (A) (A) (A) (A) (A) (A) (A) (A) (A) (A) (A) (A)
                 (A) (A) (A) (A) (A) (A) (A) (A) (A) (A) (A) (A)
                 (A) (A) (A) (A) (A) (A) (A) (A) (A) (A) (A) (A)
                 (A) (A) (A) (A) (A) (A) (A) (A) (A) (A) (A) (A)
                 (A) (A) (A) (A) (A) (A) (A) (A) (A) (A) (A) (A)
                 (A) (A) (A) (A) (A) (A) (A) (A) (A) (A) (A) (A)
                 (A) (A) (A) (A) (A) (A) (A) (A) (A) (A) (A) (A)
                 (A) (A) (A) (A) (A) (A) (A) (A) (A) (A)
 The electronic state is 1-A.
 Alpha  occ. eigenvalues --  -67.01539 -19.67236 -19.61798 -19.61684 -10.67933
 Alpha  occ. eigenvalues --  -10.62438 -10.61185 -10.55953 -10.55536 -10.54579
 Alpha  occ. eigenvalues --  -10.54448 -10.54394 -10.53696 -10.53430 -10.52808
 Alpha  occ. eigenvalues --  -10.50941 -10.50884 -10.50688  -5.54991  -3.86180
 Alpha  occ. eigenvalues --   -3.86032  -3.86020  -1.23013  -1.14323  -1.13219
 Alpha  occ. eigenvalues --   -0.93568  -0.90726  -0.87714  -0.84847  -0.80857
 Alpha  occ. eigenvalues --   -0.79476  -0.79305  -0.76788  -0.76691  -0.73961
 Alpha  occ. eigenvalues --   -0.69169  -0.68888  -0.64675  -0.62347  -0.60335
 Alpha  occ. eigenvalues --   -0.58600  -0.56858  -0.55120  -0.54635  -0.52202
 Alpha  occ. eigenvalues --   -0.51432  -0.50976  -0.50344  -0.49694  -0.48988
 Alpha  occ. eigenvalues --   -0.48143  -0.47783  -0.47234  -0.47133  -0.45996
 Alpha  occ. eigenvalues --   -0.45856  -0.45418  -0.45028  -0.44340  -0.43981
 Alpha  occ. eigenvalues --   -0.43414  -0.43170  -0.42727  -0.41444  -0.41290
 Alpha  occ. eigenvalues --   -0.40999  -0.40074  -0.38632  -0.37148  -0.36380
 Alpha  occ. eigenvalues --   -0.35498  -0.34143  -0.33326  -0.31991
 Alpha virt. eigenvalues --    0.03609   0.03755   0.04677   0.06093   0.06738
 Alpha virt. eigenvalues --    0.07459   0.09196   0.09888   0.10052   0.10483
 Alpha virt. eigenvalues --    0.10540   0.11156   0.11723   0.12034   0.12992
 Alpha virt. eigenvalues --    0.13299   0.13598   0.14207   0.14529   0.14851
 Alpha virt. eigenvalues --    0.15203   0.15379   0.15880   0.16023   0.16681
 Alpha virt. eigenvalues --    0.16829   0.17151   0.17573   0.17721   0.18475
 Alpha virt. eigenvalues --    0.18806   0.19430   0.19813   0.20596   0.20652
 Alpha virt. eigenvalues --    0.21362   0.21546   0.21953   0.22786   0.23080
 Alpha virt. eigenvalues --    0.23419   0.23974   0.24202   0.24951   0.25465
 Alpha virt. eigenvalues --    0.26218   0.26681   0.26892   0.27599   0.28571
 Alpha virt. eigenvalues --    0.28889   0.29157   0.29807   0.30560   0.30873
 Alpha virt. eigenvalues --    0.31589   0.32059   0.32828   0.33295   0.33752
 Alpha virt. eigenvalues --    0.34623   0.35064   0.35793   0.36221   0.36646
 Alpha virt. eigenvalues --    0.37241   0.37532   0.38571   0.38736   0.39141
 Alpha virt. eigenvalues --    0.39675   0.40554   0.40657   0.40729   0.41897
 Alpha virt. eigenvalues --    0.42196   0.42761   0.43263   0.43814   0.44328
 Alpha virt. eigenvalues --    0.44397   0.45224   0.45685   0.46111   0.46431
 Alpha virt. eigenvalues --    0.46831   0.46958   0.47241   0.47655   0.48033
 Alpha virt. eigenvalues --    0.48226   0.48610   0.48931   0.49661   0.49796
 Alpha virt. eigenvalues --    0.50050   0.50267   0.50687   0.50794   0.51257
 Alpha virt. eigenvalues --    0.51493   0.51990   0.52487   0.53038   0.53620
 Alpha virt. eigenvalues --    0.54246   0.54523   0.55270   0.55520   0.55998
 Alpha virt. eigenvalues --    0.56534   0.56628   0.57078   0.58512   0.59304
 Alpha virt. eigenvalues --    0.59799   0.60673   0.60929   0.62092   0.62465
 Alpha virt. eigenvalues --    0.63163   0.63525   0.64856   0.65356   0.65685
 Alpha virt. eigenvalues --    0.66624   0.67309   0.67488   0.67916   0.69281
 Alpha virt. eigenvalues --    0.70080   0.71044   0.71256   0.72067   0.73668
 Alpha virt. eigenvalues --    0.74193   0.75419   0.75873   0.76881   0.77088
 Alpha virt. eigenvalues --    0.77376   0.78838   0.80231   0.80849   0.81588
 Alpha virt. eigenvalues --    0.82939   0.84177   0.84738   0.85475   0.87136
 Alpha virt. eigenvalues --    0.88048   0.88693   0.89468   0.89765   0.90240
 Alpha virt. eigenvalues --    0.91002   0.91726   0.92330   0.92971   0.94475
 Alpha virt. eigenvalues --    0.94693   0.95352   0.96192   0.96641   0.97245
 Alpha virt. eigenvalues --    0.97647   0.98161   0.98875   0.99686   1.00602
 Alpha virt. eigenvalues --    1.01765   1.01982   1.02643   1.04609   1.05412
 Alpha virt. eigenvalues --    1.05800   1.06116   1.06894   1.07448   1.08108
 Alpha virt. eigenvalues --    1.08313   1.09579   1.09880   1.10663   1.11772
 Alpha virt. eigenvalues --    1.12120   1.13063   1.13741   1.14157   1.15998
 Alpha virt. eigenvalues --    1.16823   1.17115   1.18570   1.19681   1.20387
 Alpha virt. eigenvalues --    1.21590   1.21689   1.22886   1.23769   1.23858
 Alpha virt. eigenvalues --    1.26122   1.27097   1.28024   1.28423   1.29610
 Alpha virt. eigenvalues --    1.30238   1.30959   1.31339   1.32999   1.33471
 Alpha virt. eigenvalues --    1.35099   1.35856   1.36598   1.36979   1.38038
 Alpha virt. eigenvalues --    1.39484   1.41016   1.41369   1.41791   1.42868
 Alpha virt. eigenvalues --    1.43804   1.44866   1.45697   1.46741   1.47341
 Alpha virt. eigenvalues --    1.48368   1.49141   1.50036   1.51243   1.52576
 Alpha virt. eigenvalues --    1.54453   1.55087   1.55844   1.56584   1.56921
 Alpha virt. eigenvalues --    1.58079   1.58785   1.58869   1.59469   1.59546
 Alpha virt. eigenvalues --    1.60246   1.60875   1.61256   1.62080   1.62158
 Alpha virt. eigenvalues --    1.62635   1.63109   1.63861   1.64582   1.65061
 Alpha virt. eigenvalues --    1.65302   1.65815   1.66109   1.66530   1.67236
 Alpha virt. eigenvalues --    1.67365   1.68313   1.68449   1.69029   1.69665
 Alpha virt. eigenvalues --    1.70030   1.71356   1.71859   1.72098   1.72301
 Alpha virt. eigenvalues --    1.73865   1.74853   1.76259   1.76763   1.77194
 Alpha virt. eigenvalues --    1.78291   1.80026   1.80807   1.82400   1.82806
 Alpha virt. eigenvalues --    1.83435   1.84158   1.84842   1.85788   1.86778
 Alpha virt. eigenvalues --    1.87800   1.90166   1.90880   1.91571   1.93251
 Alpha virt. eigenvalues --    1.94493   1.95473   1.96047   1.97079   1.97619
 Alpha virt. eigenvalues --    1.98661   2.00005   2.00342   2.01214   2.01868
 Alpha virt. eigenvalues --    2.02931   2.03458   2.04655   2.05511   2.05951
 Alpha virt. eigenvalues --    2.06288   2.07949   2.08317   2.08944   2.09186
 Alpha virt. eigenvalues --    2.10216   2.11481   2.12293   2.12716   2.13980
 Alpha virt. eigenvalues --    2.15513   2.16050   2.16988   2.17484   2.18368
 Alpha virt. eigenvalues --    2.19377   2.20618   2.22283   2.22791   2.23128
 Alpha virt. eigenvalues --    2.23561   2.24736   2.25541   2.26319   2.27660
 Alpha virt. eigenvalues --    2.28305   2.30267   2.31873   2.32006   2.32749
 Alpha virt. eigenvalues --    2.33433   2.34123   2.35926   2.36444   2.37252
 Alpha virt. eigenvalues --    2.37831   2.39412   2.39552   2.39863   2.40111
 Alpha virt. eigenvalues --    2.40737   2.41899   2.42261   2.42328   2.42864
 Alpha virt. eigenvalues --    2.43810   2.44123   2.44601   2.44913   2.46146
 Alpha virt. eigenvalues --    2.47959   2.48275   2.48644   2.49105   2.49598
 Alpha virt. eigenvalues --    2.50901   2.51606   2.51975   2.53562   2.54141
 Alpha virt. eigenvalues --    2.55787   2.56692   2.57269   2.58460   2.58754
 Alpha virt. eigenvalues --    2.58966   2.60089   2.60624   2.61299   2.62191
 Alpha virt. eigenvalues --    2.62603   2.63333   2.64086   2.64685   2.65026
 Alpha virt. eigenvalues --    2.65575   2.66665   2.66928   2.67053   2.67782
 Alpha virt. eigenvalues --    2.68786   2.68910   2.69337   2.69677   2.70642
 Alpha virt. eigenvalues --    2.71182   2.71540   2.72729   2.73202   2.73335
 Alpha virt. eigenvalues --    2.74486   2.75043   2.77430   2.78074   2.79340
 Alpha virt. eigenvalues --    2.80106   2.80490   2.82420   2.82859   2.84218
 Alpha virt. eigenvalues --    2.85703   2.86671   2.87155   2.87783   2.89467
 Alpha virt. eigenvalues --    2.90691   2.91260   2.92405   2.94570   2.95035
 Alpha virt. eigenvalues --    2.95583   2.96531   2.96856   2.98789   3.00021
 Alpha virt. eigenvalues --    3.00736   3.00908   3.02695   3.03237   3.05566
 Alpha virt. eigenvalues --    3.06235   3.06969   3.07814   3.08664   3.09755
 Alpha virt. eigenvalues --    3.11258   3.11876   3.12688   3.13283   3.14013
 Alpha virt. eigenvalues --    3.14611   3.15232   3.15597   3.15769   3.16431
 Alpha virt. eigenvalues --    3.16887   3.17840   3.18755   3.19330   3.19521
 Alpha virt. eigenvalues --    3.20896   3.22124   3.22335   3.23877   3.24427
 Alpha virt. eigenvalues --    3.24986   3.25541   3.25818   3.26094   3.26785
 Alpha virt. eigenvalues --    3.27596   3.28264   3.29165   3.30061   3.30405
 Alpha virt. eigenvalues --    3.30772   3.31407   3.31859   3.32154   3.32786
 Alpha virt. eigenvalues --    3.33325   3.34025   3.34229   3.34789   3.36070
 Alpha virt. eigenvalues --    3.36170   3.37112   3.37748   3.38020   3.38938
 Alpha virt. eigenvalues --    3.39785   3.40388   3.40770   3.41720   3.42647
 Alpha virt. eigenvalues --    3.43142   3.43783   3.43877   3.44692   3.45622
 Alpha virt. eigenvalues --    3.47034   3.47153   3.48519   3.49158   3.50769
 Alpha virt. eigenvalues --    3.51615   3.51863   3.53329   3.54158   3.55250
 Alpha virt. eigenvalues --    3.56433   3.56534   3.57448   3.58490   3.58848
 Alpha virt. eigenvalues --    3.59197   3.60716   3.61089   3.62449   3.62534
 Alpha virt. eigenvalues --    3.63933   3.64443   3.65285   3.65969   3.66549
 Alpha virt. eigenvalues --    3.67366   3.68289   3.69201   3.70776   3.72318
 Alpha virt. eigenvalues --    3.72740   3.73260   3.73818   3.75507   3.76373
 Alpha virt. eigenvalues --    3.78280   3.81899   3.82720   3.82959   3.85187
 Alpha virt. eigenvalues --    3.85564   3.88782   3.90566   3.91269   3.93112
 Alpha virt. eigenvalues --    3.94298   3.95003   3.97489   3.99258   4.02099
 Alpha virt. eigenvalues --    4.03079   4.04570   4.06164   4.07165   4.08645
 Alpha virt. eigenvalues --    4.12002   4.12935   4.14111   4.15929   4.16912
 Alpha virt. eigenvalues --    4.18005   4.20912   4.23345   4.24242   4.25402
 Alpha virt. eigenvalues --    4.26392   4.27054   4.27477   4.28882   4.29964
 Alpha virt. eigenvalues --    4.30901   4.31235   4.33073   4.35077   4.36427
 Alpha virt. eigenvalues --    4.37660   4.38722   4.39067   4.39386   4.40606
 Alpha virt. eigenvalues --    4.41672   4.43048   4.44026   4.46632   4.50324
 Alpha virt. eigenvalues --    4.51305   4.52603   4.54225   4.56444   4.60081
 Alpha virt. eigenvalues --    4.62379   4.65443   4.66875   4.67957   4.70768
 Alpha virt. eigenvalues --    4.71813   4.74546   4.78034   4.82338   4.84358
 Alpha virt. eigenvalues --    4.85176   4.87215   4.92648   4.97098   5.00541
 Alpha virt. eigenvalues --    5.02286   5.05918   5.09924   5.20325   5.22695
 Alpha virt. eigenvalues --    5.24363   5.26012   5.26550   5.30265   5.44919
 Alpha virt. eigenvalues --    5.48391   5.49328   5.52202   5.61317   5.81394
 Alpha virt. eigenvalues --    5.85350   5.86601   5.88805   5.91401   5.99403
 Alpha virt. eigenvalues --    6.12911   6.17422   6.22160   6.36924   6.39343
 Alpha virt. eigenvalues --    6.51507   6.61000   6.61609   6.67407   6.68969
 Alpha virt. eigenvalues --    6.72666   6.77970   6.82702   6.84222   6.89100
 Alpha virt. eigenvalues --    6.90385   6.97461   7.05058   7.06698   7.14670
 Alpha virt. eigenvalues --    7.21892   7.34061   7.41578  12.18186  22.30073
 Alpha virt. eigenvalues --   22.38635  22.41996  22.44436  22.47091  22.54962
 Alpha virt. eigenvalues --   22.61939  22.65665  22.70010  22.73104  22.80781
 Alpha virt. eigenvalues --   22.83349  22.91308  23.43814  44.11942  44.49361
 Alpha virt. eigenvalues --   44.54113
          Condensed to atoms (all electrons):
               1          2          3          4          5          6
     1  C    5.467221  -0.079257   0.049814  -0.077906  -0.045764   0.453880
     2  C   -0.079257   6.140556  -0.047760   0.031257  -0.022428  -0.077543
     3  C    0.049814  -0.047760   5.816556  -0.124358   0.081909   0.000177
     4  C   -0.077906   0.031257  -0.124358   6.145453   0.084959  -0.003175
     5  C   -0.045764  -0.022428   0.081909   0.084959   4.504934  -0.007343
     6  H    0.453880  -0.077543   0.000177  -0.003175  -0.007343   0.512930
     7  H   -0.007389   0.408805  -0.068372  -0.013179  -0.000340   0.006256
     8  H   -0.000154   0.010267  -0.031028   0.386979  -0.018054  -0.000275
     9  H   -0.001338   0.003499  -0.052332   0.390679  -0.017011  -0.000863
    10  O    0.188069  -0.046987   0.011337  -0.150226   0.381181  -0.030779
    11  O    0.001957  -0.003038   0.016198  -0.144436   0.724907   0.000020
    12  C    0.179859  -0.026400   0.012908  -0.003761   0.002576  -0.037210
    13  C   -0.043623   0.033807  -0.000392  -0.000529  -0.001273   0.007493
    14  C   -0.021195   0.083755  -0.017940   0.001673   0.001162   0.004649
    15  O    0.002879  -0.019880   0.162309  -0.048262   0.001030   0.000248
    16  Si  -0.001139   0.021330  -0.082396   0.005161  -0.002978   0.000149
    17  C   -0.000739  -0.013030   0.010815   0.010093   0.002812  -0.000040
    18  C    0.001237   0.005789  -0.003499  -0.001351   0.000070  -0.000007
    19  C    0.000019  -0.001372   0.001004   0.000212   0.000477   0.000000
    20  H   -0.000094  -0.001345   0.001868   0.000071  -0.000011   0.000000
    21  H   -0.000012  -0.000292   0.000093   0.000052  -0.000010   0.000000
    22  H    0.000797   0.002128  -0.002482   0.000122  -0.000035  -0.000004
    23  H    0.000003   0.000139  -0.000277   0.000123  -0.000014   0.000000
    24  H   -0.000004   0.000076   0.000931  -0.000670  -0.000006   0.000000
    25  H   -0.000002   0.000029   0.000022  -0.000018  -0.000014   0.000000
    26  H   -0.000004   0.000378  -0.000529   0.000006   0.000214   0.000000
    27  H    0.000456  -0.000170   0.000336  -0.004243   0.001518  -0.000007
    28  H   -0.001108  -0.002825   0.001623  -0.005181   0.005195   0.000024
    29  H    0.013304  -0.071616   0.020494   0.000969  -0.000133  -0.000450
    30  H   -0.025907  -0.032202   0.011526  -0.000703   0.000031   0.000035
    31  H   -0.000445  -0.019521  -0.033238   0.000147  -0.000088   0.001948
    32  H   -0.021470  -0.026140  -0.001278   0.000390  -0.000077  -0.001386
    33  H   -0.062801   0.018892  -0.000572   0.000776  -0.000216  -0.007727
    34  H    0.011672  -0.011223  -0.000552   0.000742  -0.000490   0.000287
    35  H    0.012501  -0.001731  -0.000003   0.000014   0.000040  -0.000165
    36  H   -0.032089   0.032476   0.000993   0.000275   0.000096  -0.000599
    37  C   -0.013040  -0.017565   0.145100  -0.018626   0.002505   0.000453
    38  C   -0.001728   0.015882  -0.033721  -0.028380  -0.001195  -0.000120
    39  C   -0.000071  -0.000081  -0.005377  -0.001658   0.000133   0.000065
    40  H   -0.000750   0.007269  -0.042644  -0.009508   0.000003   0.001133
    41  H    0.002239  -0.022936  -0.044283   0.005507  -0.000012  -0.000122
    42  H   -0.000042   0.000808   0.004321  -0.004586   0.000054   0.000001
    43  H    0.000000   0.000022  -0.000194  -0.000026  -0.000002  -0.000002
    44  H   -0.000019   0.000074  -0.001453  -0.000145  -0.000024   0.000068
               7          8          9         10         11         12
     1  C   -0.007389  -0.000154  -0.001338   0.188069   0.001957   0.179859
     2  C    0.408805   0.010267   0.003499  -0.046987  -0.003038  -0.026400
     3  C   -0.068372  -0.031028  -0.052332   0.011337   0.016198   0.012908
     4  C   -0.013179   0.386979   0.390679  -0.150226  -0.144436  -0.003761
     5  C   -0.000340  -0.018054  -0.017011   0.381181   0.724907   0.002576
     6  H    0.006256  -0.000275  -0.000863  -0.030779   0.000020  -0.037210
     7  H    0.521834  -0.000076  -0.000176  -0.000169  -0.001108  -0.010798
     8  H   -0.000076   0.445241  -0.004919   0.005477   0.006575   0.000225
     9  H   -0.000176  -0.004919   0.458538   0.003288   0.003932  -0.000002
    10  O   -0.000169   0.005477   0.003288   8.000254  -0.098371  -0.036645
    11  O   -0.001108   0.006575   0.003932  -0.098371   7.859458  -0.000445
    12  C   -0.010798   0.000225  -0.000002  -0.036645  -0.000445   5.232605
    13  C   -0.005684   0.000004  -0.000025  -0.007363  -0.000028   0.229206
    14  C   -0.028109  -0.000402  -0.000103   0.006585  -0.000084   0.023036
    15  O   -0.012674   0.000583   0.004394  -0.000172  -0.000034  -0.000552
    16  Si   0.003325  -0.000861   0.000092   0.000171  -0.000484  -0.000068
    17  C    0.001241  -0.002660  -0.000074  -0.001980  -0.003143   0.000186
    18  C   -0.000263   0.000242   0.000029   0.000010  -0.000014   0.000068
    19  C   -0.000185  -0.000464  -0.000003  -0.000003   0.000014  -0.000003
    20  H   -0.000246  -0.000004  -0.000001   0.000000   0.000000  -0.000001
    21  H   -0.000039  -0.000007  -0.000001   0.000000   0.000000  -0.000003
    22  H    0.003856  -0.000018   0.000002  -0.000016   0.000002  -0.000028
    23  H   -0.000012   0.000002  -0.000002   0.000000   0.000000   0.000000
    24  H    0.000004   0.000548  -0.000001   0.000000  -0.000009   0.000000
    25  H    0.000002   0.000034   0.000000   0.000000   0.000000   0.000000
    26  H   -0.000034   0.000037   0.000001   0.000003   0.000256   0.000000
    27  H   -0.000580   0.000549   0.000324   0.000401   0.004782  -0.000011
    28  H    0.003326   0.000070  -0.000025   0.000632  -0.001760   0.000167
    29  H   -0.004005  -0.000051  -0.000011  -0.000236   0.000002  -0.000702
    30  H   -0.010030   0.000012   0.000022   0.000121   0.000000   0.014202
    31  H    0.006560   0.000008  -0.000081  -0.000022   0.000000  -0.008144
    32  H    0.002494  -0.000011  -0.000008   0.003501   0.000012   0.421791
    33  H   -0.001089  -0.000008   0.000000   0.002415  -0.000002   0.437303
    34  H    0.002742  -0.000014  -0.000006   0.005232   0.000269  -0.050750
    35  H    0.000467   0.000000   0.000000   0.000115   0.000002  -0.044536
    36  H   -0.012303  -0.000002   0.000002   0.000724   0.000009  -0.031653
    37  C    0.012119  -0.005883  -0.004541   0.000472  -0.000052   0.000290
    38  C   -0.000560   0.000431   0.002598  -0.000269  -0.000206   0.000062
    39  C   -0.000011   0.000435   0.000431  -0.000004  -0.000002   0.000015
    40  H    0.000386   0.000237  -0.002413  -0.000151   0.000014   0.000593
    41  H   -0.000774  -0.000023   0.000769  -0.000030   0.000008   0.000090
    42  H    0.000035   0.000699   0.000629   0.000007   0.000016   0.000006
    43  H    0.000000   0.000011   0.000016   0.000000   0.000000   0.000000
    44  H    0.000001   0.000049   0.000025   0.000001   0.000001   0.000004
              13         14         15         16         17         18
     1  C   -0.043623  -0.021195   0.002879  -0.001139  -0.000739   0.001237
     2  C    0.033807   0.083755  -0.019880   0.021330  -0.013030   0.005789
     3  C   -0.000392  -0.017940   0.162309  -0.082396   0.010815  -0.003499
     4  C   -0.000529   0.001673  -0.048262   0.005161   0.010093  -0.001351
     5  C   -0.001273   0.001162   0.001030  -0.002978   0.002812   0.000070
     6  H    0.007493   0.004649   0.000248   0.000149  -0.000040  -0.000007
     7  H   -0.005684  -0.028109  -0.012674   0.003325   0.001241  -0.000263
     8  H    0.000004  -0.000402   0.000583  -0.000861  -0.002660   0.000242
     9  H   -0.000025  -0.000103   0.004394   0.000092  -0.000074   0.000029
    10  O   -0.007363   0.006585  -0.000172   0.000171  -0.001980   0.000010
    11  O   -0.000028  -0.000084  -0.000034  -0.000484  -0.003143  -0.000014
    12  C    0.229206   0.023036  -0.000552  -0.000068   0.000186   0.000068
    13  C    5.107471  -0.013475   0.000044   0.000461  -0.000180  -0.000229
    14  C   -0.013475   5.231504  -0.004321  -0.004398   0.000688  -0.002607
    15  O    0.000044  -0.004321   8.034786   0.400118  -0.032414  -0.024676
    16  Si   0.000461  -0.004398   0.400118  12.421617   0.320323   0.345916
    17  C   -0.000180   0.000688  -0.032414   0.320323   5.222630  -0.055528
    18  C   -0.000229  -0.002607  -0.024676   0.345916  -0.055528   5.174342
    19  C    0.000000   0.000230  -0.021793   0.394759  -0.047051  -0.046777
    20  H    0.000005  -0.000110  -0.000461  -0.038183   0.003486   0.393467
    21  H    0.000004   0.000200   0.001256  -0.029166   0.002251   0.385276
    22  H   -0.000090  -0.003716   0.001371  -0.033762   0.001383   0.389441
    23  H    0.000000  -0.000037   0.000634  -0.030852   0.003470   0.000191
    24  H    0.000000  -0.000003   0.001035  -0.032786   0.001007   0.003415
    25  H    0.000000  -0.000003   0.001199  -0.041994   0.002149   0.003124
    26  H    0.000000  -0.000019   0.001155  -0.018561   0.378091   0.001509
    27  H    0.000008  -0.000083  -0.000240  -0.036213   0.390510   0.002969
    28  H   -0.000279   0.000754   0.001013  -0.036788   0.390279   0.001784
    29  H   -0.000110   0.431534   0.004517  -0.000154   0.000248  -0.001049
    30  H   -0.003764   0.422541  -0.000145   0.000150  -0.000026  -0.000125
    31  H    0.001147   0.415458   0.000778   0.000052   0.000005  -0.000097
    32  H   -0.042458   0.002424   0.000000  -0.000044   0.000000   0.000004
    33  H   -0.038405  -0.001439   0.000008   0.000009   0.000001   0.000001
    34  H    0.415650   0.000986   0.000004  -0.000161   0.000116   0.000027
    35  H    0.416623   0.000708   0.000000  -0.000006  -0.000002  -0.000002
    36  H    0.407565  -0.005757   0.000022   0.000114  -0.000013   0.000065
    37  C    0.000033   0.001975  -0.088552   0.006788  -0.000452  -0.000513
    38  C    0.000004  -0.001620   0.004576  -0.001370   0.000165   0.000173
    39  C    0.000000  -0.000270   0.002128  -0.000097   0.000034   0.000002
    40  H   -0.000002  -0.008155   0.004880  -0.000176   0.000049   0.000012
    41  H   -0.000015   0.002515  -0.000532  -0.000770   0.000109  -0.000115
    42  H    0.000000  -0.000147   0.007788  -0.001001   0.000149   0.000077
    43  H    0.000000   0.000002   0.000003   0.000005   0.000000   0.000000
    44  H    0.000000  -0.000001  -0.000014  -0.000006   0.000000   0.000000
              19         20         21         22         23         24
     1  C    0.000019  -0.000094  -0.000012   0.000797   0.000003  -0.000004
     2  C   -0.001372  -0.001345  -0.000292   0.002128   0.000139   0.000076
     3  C    0.001004   0.001868   0.000093  -0.002482  -0.000277   0.000931
     4  C    0.000212   0.000071   0.000052   0.000122   0.000123  -0.000670
     5  C    0.000477  -0.000011  -0.000010  -0.000035  -0.000014  -0.000006
     6  H    0.000000   0.000000   0.000000  -0.000004   0.000000   0.000000
     7  H   -0.000185  -0.000246  -0.000039   0.003856  -0.000012   0.000004
     8  H   -0.000464  -0.000004  -0.000007  -0.000018   0.000002   0.000548
     9  H   -0.000003  -0.000001  -0.000001   0.000002  -0.000002  -0.000001
    10  O   -0.000003   0.000000   0.000000  -0.000016   0.000000   0.000000
    11  O    0.000014   0.000000   0.000000   0.000002   0.000000  -0.000009
    12  C   -0.000003  -0.000001  -0.000003  -0.000028   0.000000   0.000000
    13  C    0.000000   0.000005   0.000004  -0.000090   0.000000   0.000000
    14  C    0.000230  -0.000110   0.000200  -0.003716  -0.000037  -0.000003
    15  O   -0.021793  -0.000461   0.001256   0.001371   0.000634   0.001035
    16  Si   0.394759  -0.038183  -0.029166  -0.033762  -0.030852  -0.032786
    17  C   -0.047051   0.003486   0.002251   0.001383   0.003470   0.001007
    18  C   -0.046777   0.393467   0.385276   0.389441   0.000191   0.003415
    19  C    5.119892   0.001355   0.001760   0.002680   0.388120   0.389508
    20  H    0.001355   0.510421  -0.015978  -0.019807   0.000894  -0.000182
    21  H    0.001760  -0.015978   0.505795  -0.017727   0.000275  -0.000160
    22  H    0.002680  -0.019807  -0.017727   0.515942  -0.000152  -0.000104
    23  H    0.388120   0.000894   0.000275  -0.000152   0.517233  -0.018682
    24  H    0.389508  -0.000182  -0.000160  -0.000104  -0.018682   0.515828
    25  H    0.393249   0.000320   0.000008  -0.000148  -0.018586  -0.018335
    26  H   -0.000241  -0.000124   0.000282   0.000171  -0.000121   0.000215
    27  H    0.001441  -0.000083  -0.000148  -0.000138  -0.000189   0.000688
    28  H    0.003173  -0.000183   0.000290   0.000321  -0.000093  -0.000131
    29  H    0.000077   0.000121   0.000170  -0.001152   0.000029  -0.000001
    30  H    0.000000   0.000024  -0.000020   0.000082   0.000000   0.000000
    31  H   -0.000001   0.000021   0.000002   0.000079   0.000000   0.000000
    32  H    0.000000   0.000000   0.000000  -0.000006   0.000000   0.000000
    33  H    0.000000   0.000000   0.000000   0.000001   0.000000   0.000000
    34  H    0.000000   0.000000  -0.000001  -0.000001   0.000000   0.000000
    35  H    0.000000   0.000000   0.000000  -0.000005   0.000000   0.000000
    36  H    0.000002  -0.000003   0.000002   0.000406   0.000000   0.000000
    37  C    0.000423  -0.000029  -0.000008   0.000338   0.000175   0.000006
    38  C    0.000010   0.000012  -0.000002  -0.000033  -0.000041   0.000065
    39  C   -0.000041   0.000001   0.000000   0.000000   0.000009  -0.000005
    40  H    0.000001  -0.000003   0.000000   0.000003   0.000002   0.000000
    41  H   -0.000018   0.000095   0.000002  -0.000050   0.000009  -0.000005
    42  H   -0.000846  -0.000003  -0.000003  -0.000002   0.000177   0.000119
    43  H    0.000003   0.000000   0.000000   0.000000   0.000000   0.000000
    44  H   -0.000001   0.000000   0.000000   0.000000   0.000000   0.000000
              25         26         27         28         29         30
     1  C   -0.000002  -0.000004   0.000456  -0.001108   0.013304  -0.025907
     2  C    0.000029   0.000378  -0.000170  -0.002825  -0.071616  -0.032202
     3  C    0.000022  -0.000529   0.000336   0.001623   0.020494   0.011526
     4  C   -0.000018   0.000006  -0.004243  -0.005181   0.000969  -0.000703
     5  C   -0.000014   0.000214   0.001518   0.005195  -0.000133   0.000031
     6  H    0.000000   0.000000  -0.000007   0.000024  -0.000450   0.000035
     7  H    0.000002  -0.000034  -0.000580   0.003326  -0.004005  -0.010030
     8  H    0.000034   0.000037   0.000549   0.000070  -0.000051   0.000012
     9  H    0.000000   0.000001   0.000324  -0.000025  -0.000011   0.000022
    10  O    0.000000   0.000003   0.000401   0.000632  -0.000236   0.000121
    11  O    0.000000   0.000256   0.004782  -0.001760   0.000002   0.000000
    12  C    0.000000   0.000000  -0.000011   0.000167  -0.000702   0.014202
    13  C    0.000000   0.000000   0.000008  -0.000279  -0.000110  -0.003764
    14  C   -0.000003  -0.000019  -0.000083   0.000754   0.431534   0.422541
    15  O    0.001199   0.001155  -0.000240   0.001013   0.004517  -0.000145
    16  Si  -0.041994  -0.018561  -0.036213  -0.036788  -0.000154   0.000150
    17  C    0.002149   0.378091   0.390510   0.390279   0.000248  -0.000026
    18  C    0.003124   0.001509   0.002969   0.001784  -0.001049  -0.000125
    19  C    0.393249  -0.000241   0.001441   0.003173   0.000077   0.000000
    20  H    0.000320  -0.000124  -0.000083  -0.000183   0.000121   0.000024
    21  H    0.000008   0.000282  -0.000148   0.000290   0.000170  -0.000020
    22  H   -0.000148   0.000171  -0.000138   0.000321  -0.001152   0.000082
    23  H   -0.018586  -0.000121  -0.000189  -0.000093   0.000029   0.000000
    24  H   -0.018335   0.000215   0.000688  -0.000131  -0.000001   0.000000
    25  H    0.523716   0.000396   0.000220  -0.000178  -0.000006   0.000000
    26  H    0.000396   0.496559  -0.014853  -0.016633  -0.000004   0.000000
    27  H    0.000220  -0.014853   0.496015  -0.018381  -0.000002   0.000001
    28  H   -0.000178  -0.016633  -0.018381   0.503965  -0.000027   0.000015
    29  H   -0.000006  -0.000004  -0.000002  -0.000027   0.481858  -0.019693
    30  H    0.000000   0.000000   0.000001   0.000015  -0.019693   0.496402
    31  H    0.000000   0.000000   0.000000  -0.000006  -0.021763  -0.021461
    32  H    0.000000   0.000000   0.000000  -0.000005   0.000626  -0.008453
    33  H    0.000000   0.000000   0.000000  -0.000001   0.000022   0.000390
    34  H    0.000000   0.000001  -0.000013   0.000029   0.000017  -0.000016
    35  H    0.000000   0.000000   0.000000   0.000002  -0.000003  -0.000011
    36  H    0.000000  -0.000001   0.000000   0.000078  -0.000009   0.002216
    37  C   -0.000035   0.000011  -0.000082  -0.000143  -0.016635  -0.000173
    38  C    0.000003  -0.000004  -0.000004  -0.000022  -0.000160   0.000054
    39  C    0.000001   0.000000  -0.000002   0.000000   0.000020   0.000001
    40  H    0.000000   0.000000   0.000000  -0.000001   0.000844  -0.000090
    41  H    0.000002  -0.000001   0.000000   0.000000  -0.000550   0.000747
    42  H    0.000047  -0.000002   0.000010  -0.000006  -0.000001   0.000002
    43  H    0.000000   0.000000   0.000000   0.000000   0.000000   0.000000
    44  H    0.000000   0.000000   0.000000   0.000000  -0.000002   0.000001
              31         32         33         34         35         36
     1  C   -0.000445  -0.021470  -0.062801   0.011672   0.012501  -0.032089
     2  C   -0.019521  -0.026140   0.018892  -0.011223  -0.001731   0.032476
     3  C   -0.033238  -0.001278  -0.000572  -0.000552  -0.000003   0.000993
     4  C    0.000147   0.000390   0.000776   0.000742   0.000014   0.000275
     5  C   -0.000088  -0.000077  -0.000216  -0.000490   0.000040   0.000096
     6  H    0.001948  -0.001386  -0.007727   0.000287  -0.000165  -0.000599
     7  H    0.006560   0.002494  -0.001089   0.002742   0.000467  -0.012303
     8  H    0.000008  -0.000011  -0.000008  -0.000014   0.000000  -0.000002
     9  H   -0.000081  -0.000008   0.000000  -0.000006   0.000000   0.000002
    10  O   -0.000022   0.003501   0.002415   0.005232   0.000115   0.000724
    11  O    0.000000   0.000012  -0.000002   0.000269   0.000002   0.000009
    12  C   -0.008144   0.421791   0.437303  -0.050750  -0.044536  -0.031653
    13  C    0.001147  -0.042458  -0.038405   0.415650   0.416623   0.407565
    14  C    0.415458   0.002424  -0.001439   0.000986   0.000708  -0.005757
    15  O    0.000778   0.000000   0.000008   0.000004   0.000000   0.000022
    16  Si   0.000052  -0.000044   0.000009  -0.000161  -0.000006   0.000114
    17  C    0.000005   0.000000   0.000001   0.000116  -0.000002  -0.000013
    18  C   -0.000097   0.000004   0.000001   0.000027  -0.000002   0.000065
    19  C   -0.000001   0.000000   0.000000   0.000000   0.000000   0.000002
    20  H    0.000021   0.000000   0.000000   0.000000   0.000000  -0.000003
    21  H    0.000002   0.000000   0.000000  -0.000001   0.000000   0.000002
    22  H    0.000079  -0.000006   0.000001  -0.000001  -0.000005   0.000406
    23  H    0.000000   0.000000   0.000000   0.000000   0.000000   0.000000
    24  H    0.000000   0.000000   0.000000   0.000000   0.000000   0.000000
    25  H    0.000000   0.000000   0.000000   0.000000   0.000000   0.000000
    26  H    0.000000   0.000000   0.000000   0.000001   0.000000  -0.000001
    27  H    0.000000   0.000000   0.000000  -0.000013   0.000000   0.000000
    28  H   -0.000006  -0.000005  -0.000001   0.000029   0.000002   0.000078
    29  H   -0.021763   0.000626   0.000022   0.000017  -0.000003  -0.000009
    30  H   -0.021461  -0.008453   0.000390  -0.000016  -0.000011   0.002216
    31  H    0.488985  -0.000260  -0.000101  -0.000029  -0.000016  -0.000030
    32  H   -0.000260   0.516446  -0.016489   0.005977  -0.004077  -0.002097
    33  H   -0.000101  -0.016489   0.509968  -0.002154  -0.004789   0.005480
    34  H   -0.000029   0.005977  -0.002154   0.505823  -0.021317  -0.027034
    35  H   -0.000016  -0.004077  -0.004789  -0.021317   0.510611  -0.021621
    36  H   -0.000030  -0.002097   0.005480  -0.027034  -0.021621   0.538957
    37  C    0.011406   0.000032  -0.000065   0.000003   0.000003  -0.000085
    38  C    0.000148  -0.000004  -0.000001   0.000000   0.000000   0.000004
    39  C    0.000013  -0.000001   0.000000   0.000000   0.000000   0.000000
    40  H    0.000007   0.000070  -0.000015   0.000002   0.000000  -0.000007
    41  H   -0.007750  -0.000019   0.000003   0.000000   0.000000   0.000003
    42  H    0.000000   0.000000   0.000000   0.000000   0.000000   0.000000
    43  H    0.000001   0.000000   0.000000   0.000000   0.000000   0.000000
    44  H    0.000005   0.000000   0.000000   0.000000   0.000000   0.000000
              37         38         39         40         41         42
     1  C   -0.013040  -0.001728  -0.000071  -0.000750   0.002239  -0.000042
     2  C   -0.017565   0.015882  -0.000081   0.007269  -0.022936   0.000808
     3  C    0.145100  -0.033721  -0.005377  -0.042644  -0.044283   0.004321
     4  C   -0.018626  -0.028380  -0.001658  -0.009508   0.005507  -0.004586
     5  C    0.002505  -0.001195   0.000133   0.000003  -0.000012   0.000054
     6  H    0.000453  -0.000120   0.000065   0.001133  -0.000122   0.000001
     7  H    0.012119  -0.000560  -0.000011   0.000386  -0.000774   0.000035
     8  H   -0.005883   0.000431   0.000435   0.000237  -0.000023   0.000699
     9  H   -0.004541   0.002598   0.000431  -0.002413   0.000769   0.000629
    10  O    0.000472  -0.000269  -0.000004  -0.000151  -0.000030   0.000007
    11  O   -0.000052  -0.000206  -0.000002   0.000014   0.000008   0.000016
    12  C    0.000290   0.000062   0.000015   0.000593   0.000090   0.000006
    13  C    0.000033   0.000004   0.000000  -0.000002  -0.000015   0.000000
    14  C    0.001975  -0.001620  -0.000270  -0.008155   0.002515  -0.000147
    15  O   -0.088552   0.004576   0.002128   0.004880  -0.000532   0.007788
    16  Si   0.006788  -0.001370  -0.000097  -0.000176  -0.000770  -0.001001
    17  C   -0.000452   0.000165   0.000034   0.000049   0.000109   0.000149
    18  C   -0.000513   0.000173   0.000002   0.000012  -0.000115   0.000077
    19  C    0.000423   0.000010  -0.000041   0.000001  -0.000018  -0.000846
    20  H   -0.000029   0.000012   0.000001  -0.000003   0.000095  -0.000003
    21  H   -0.000008  -0.000002   0.000000   0.000000   0.000002  -0.000003
    22  H    0.000338  -0.000033   0.000000   0.000003  -0.000050  -0.000002
    23  H    0.000175  -0.000041   0.000009   0.000002   0.000009   0.000177
    24  H    0.000006   0.000065  -0.000005   0.000000  -0.000005   0.000119
    25  H   -0.000035   0.000003   0.000001   0.000000   0.000002   0.000047
    26  H    0.000011  -0.000004   0.000000   0.000000  -0.000001  -0.000002
    27  H   -0.000082  -0.000004  -0.000002   0.000000   0.000000   0.000010
    28  H   -0.000143  -0.000022   0.000000  -0.000001   0.000000  -0.000006
    29  H   -0.016635  -0.000160   0.000020   0.000844  -0.000550  -0.000001
    30  H   -0.000173   0.000054   0.000001  -0.000090   0.000747   0.000002
    31  H    0.011406   0.000148   0.000013   0.000007  -0.007750   0.000000
    32  H    0.000032  -0.000004  -0.000001   0.000070  -0.000019   0.000000
    33  H   -0.000065  -0.000001   0.000000  -0.000015   0.000003   0.000000
    34  H    0.000003   0.000000   0.000000   0.000002   0.000000   0.000000
    35  H    0.000003   0.000000   0.000000   0.000000   0.000000   0.000000
    36  H   -0.000085   0.000004   0.000000  -0.000007   0.000003   0.000000
    37  C    5.318334   0.248938  -0.047265   0.428823   0.441525  -0.044026
    38  C    0.248938   5.174657   0.535191  -0.044051  -0.033887   0.410688
    39  C   -0.047265   0.535191   5.008850   0.003218  -0.003943  -0.026366
    40  H    0.428823  -0.044051   0.003218   0.491553  -0.016312   0.003664
    41  H    0.441525  -0.033887  -0.003943  -0.016312   0.496533   0.000516
    42  H   -0.044026   0.410688  -0.026366   0.003664   0.000516   0.487211
    43  H    0.006860  -0.053587   0.427654   0.000248  -0.000313  -0.005849
    44  H    0.005079  -0.064116   0.429598  -0.000287   0.000673   0.004060
              43         44
     1  C    0.000000  -0.000019
     2  C    0.000022   0.000074
     3  C   -0.000194  -0.001453
     4  C   -0.000026  -0.000145
     5  C   -0.000002  -0.000024
     6  H   -0.000002   0.000068
     7  H    0.000000   0.000001
     8  H    0.000011   0.000049
     9  H    0.000016   0.000025
    10  O    0.000000   0.000001
    11  O    0.000000   0.000001
    12  C    0.000000   0.000004
    13  C    0.000000   0.000000
    14  C    0.000002  -0.000001
    15  O    0.000003  -0.000014
    16  Si   0.000005  -0.000006
    17  C    0.000000   0.000000
    18  C    0.000000   0.000000
    19  C    0.000003  -0.000001
    20  H    0.000000   0.000000
    21  H    0.000000   0.000000
    22  H    0.000000   0.000000
    23  H    0.000000   0.000000
    24  H    0.000000   0.000000
    25  H    0.000000   0.000000
    26  H    0.000000   0.000000
    27  H    0.000000   0.000000
    28  H    0.000000   0.000000
    29  H    0.000000  -0.000002
    30  H    0.000000   0.000001
    31  H    0.000001   0.000005
    32  H    0.000000   0.000000
    33  H    0.000000   0.000000
    34  H    0.000000   0.000000
    35  H    0.000000   0.000000
    36  H    0.000000   0.000000
    37  C    0.006860   0.005079
    38  C   -0.053587  -0.064116
    39  C    0.427654   0.429598
    40  H    0.000248  -0.000287
    41  H   -0.000313   0.000673
    42  H   -0.005849   0.004060
    43  H    0.501180  -0.023288
    44  H   -0.023288   0.508713
 Mulliken charges:
               1
     1  C    0.052181
     2  C   -0.271897
     3  C    0.244346
     4  C   -0.424731
     5  C    0.321712
     6  H    0.178001
     7  H    0.204752
     8  H    0.206199
     9  H    0.214665
    10  O   -0.236573
    11  O   -0.365217
    12  C   -0.303481
    13  C   -0.461600
    14  C   -0.518387
    15  O   -0.384036
    16  Si   0.473874
    17  C   -0.584954
    18  C   -0.572390
    19  C   -0.579610
    20  H    0.164689
    21  H    0.165860
    22  H    0.160353
    23  H    0.157573
    24  H    0.157637
    25  H    0.154799
    26  H    0.171847
    27  H    0.175215
    28  H    0.171032
    29  H    0.183672
    30  H    0.174243
    31  H    0.186283
    32  H    0.170517
    33  H    0.160604
    34  H    0.164182
    35  H    0.157198
    36  H    0.143813
    37  C   -0.373921
    38  C   -0.128580
    39  C   -0.322603
    40  H    0.181555
    41  H    0.181116
    42  H    0.161797
    43  H    0.147259
    44  H    0.141004
 Sum of Mulliken charges =   0.00000
 Mulliken charges with hydrogens summed into heavy atoms:
               1
     1  C    0.230182
     2  C   -0.067145
     3  C    0.244346
     4  C   -0.003867
     5  C    0.321712
    10  O   -0.236573
    11  O   -0.365217
    12  C    0.027640
    13  C    0.003594
    14  C    0.025811
    15  O   -0.384036
    16  Si   0.473874
    17  C   -0.066860
    18  C   -0.081487
    19  C   -0.109601
    37  C   -0.011249
    38  C    0.033217
    39  C   -0.034341
 Electronic spatial extent (au):  <R**2>=           5169.0916
 Charge=              0.0000 electrons
 Dipole moment (field-independent basis, Debye):
    X=             -0.2790    Y=              0.8926    Z=             -5.2176  Tot=              5.3008
 Quadrupole moment (field-independent basis, Debye-Ang):
   XX=           -116.0254   YY=           -114.3073   ZZ=           -136.0468
   XY=             -5.0143   XZ=             10.7342   YZ=              3.5175
 Traceless Quadrupole moment (field-independent basis, Debye-Ang):
   XX=              6.1011   YY=              7.8192   ZZ=            -13.9203
   XY=             -5.0143   XZ=             10.7342   YZ=              3.5175
 Octapole moment (field-independent basis, Debye-Ang**2):
  XXX=            -24.6938  YYY=              6.4912  ZZZ=            -50.9215  XYY=             -2.8921
  XXY=             -3.5205  XXZ=            -11.6772  XZZ=             16.1485  YZZ=              4.5370
  YYZ=             13.9447  XYZ=             -1.3611
 Hexadecapole moment (field-independent basis, Debye-Ang**3):
 XXXX=          -3175.8738 YYYY=          -2424.0648 ZZZZ=          -1578.6727 XXXY=              3.6622
 XXXZ=             24.2089 YYYX=            -35.4608 YYYZ=             31.2879 ZZZX=             52.1540
 ZZZY=             14.7609 XXYY=           -907.6303 XXZZ=           -785.6513 YYZZ=           -677.8655
 XXYZ=             16.3548 YYXZ=             22.8784 ZZXY=            -10.8894
 N-N= 1.643324648577D+03 E-N=-5.779923464566D+03  KE= 1.059306510125D+03
 1\1\GINC-CPU-E-98\SP\RM062X\def2TZVP\C14H26O3Si1\KE291\26-Jun-2019\0\\
 # m062x/def2tzvp int=ultrafine scrf=(solvent=chloroform)\\IP1_2ginp014
 \\0,1\C,0,-2.30728,0.317971,-0.17033\C,0,-0.972818,-0.051215,-0.841834
 \C,0,0.180261,0.823128,-0.251662\C,0,-0.124499,1.157304,1.241845\C,0,-
 1.12696,0.27377,1.946268\H,0,-2.468149,1.403391,-0.229202\H,0,-0.76484
 2,-1.079699,-0.5221\H,0,0.79837,1.165096,1.820792\H,0,-0.535861,2.1731
 55,1.300635\O,0,-2.235519,-0.047242,1.241086\O,0,-1.025131,-0.101711,3
 .095476\C,0,-3.561139,-0.378594,-0.70548\C,0,-3.54169,-1.908893,-0.628
 687\C,0,-1.037977,-0.040781,-2.37462\O,0,1.433099,0.153285,-0.362321\S
 i,0,2.056303,-1.377371,-0.040854\C,0,1.305974,-2.174083,1.495617\C,0,1
 .807524,-2.511607,-1.5289\C,0,3.894877,-1.069957,0.212727\H,0,2.211747
 ,-2.059358,-2.440884\H,0,2.331185,-3.461658,-1.369956\H,0,0.75292,-2.7
 44976,-1.708722\H,0,4.333782,-0.571236,-0.657799\H,0,4.07469,-0.436861
 ,1.087868\H,0,4.432034,-2.012879,0.364159\H,0,1.868306,-3.084608,1.735
 136\H,0,1.347488,-1.517278,2.369548\H,0,0.261012,-2.467934,1.35356\H,0
 ,-0.045495,-0.213708,-2.798738\H,0,-1.694806,-0.832912,-2.741702\H,0,-
 1.413077,0.909115,-2.767372\H,0,-3.720425,-0.047159,-1.73721\H,0,-4.41
 0519,0.002413,-0.127235\H,0,-3.384506,-2.245266,0.399498\H,0,-4.496121
 ,-2.316321,-0.974925\H,0,-2.753967,-2.34537,-1.251006\C,0,0.361301,2.1
 52383,-1.03403\C,0,1.387974,3.076544,-0.439337\C,0,1.157682,4.341974,-
 0.085297\H,0,-0.602701,2.670104,-1.105778\H,0,0.669487,1.889643,-2.051
 843\H,0,2.383212,2.654823,-0.310958\H,0,1.941714,4.971133,0.325993\H,0
 ,0.177317,4.799232,-0.201413\\Version=ES64L-G09RevD.01\State=1-A\HF=-1
 064.3406382\RMSD=1.176e-09\Dipole=-0.1097548,0.3511807,-2.05278\Quadru
 pole=4.5359992,5.8134131,-10.3494123,-3.728036,7.9806437,2.6151399\PG=
 C01 [X(C14H26O3Si1)]\\@


 THE ONLY DIFFERENCE BETWEEN ECCENTRICS AND JOGGERS
 IS THAT JOGGERS WEAR SWEATBANDS WHEN THEY RUN IN THE RAIN.
 Job cpu time:       0 days  2 hours 21 minutes  6.4 seconds.
 File lengths (MBytes):  RWF=    404 Int=      0 D2E=      0 Chk=     21 Scr=      1
 Normal termination of Gaussian 09 at Wed Jun 26 13:54:27 2019.
