 Entering Gaussian System, Link 0=/usr/local/Cluster-Apps/gaussian/g09/g09
 Initial command:
 /usr/local/Cluster-Apps/gaussian/g09/l1.exe "/home/ke291/rds/hpc-work/26Jun1304IP1NMR/Gau-297289.inp" -scrdir="/home/ke291/rds/hpc-work/26Jun1304IP1NMR/"
 Entering Link 1 = /usr/local/Cluster-Apps/gaussian/g09/l1.exe PID=    297328.
  
 Copyright (c) 1988,1990,1992,1993,1995,1998,2003,2009,2013,
            Gaussian, Inc.  All Rights Reserved.
  
 This is part of the Gaussian(R) 09 program.  It is based on
 the Gaussian(R) 03 system (copyright 2003, Gaussian, Inc.),
 the Gaussian(R) 98 system (copyright 1998, Gaussian, Inc.),
 the Gaussian(R) 94 system (copyright 1995, Gaussian, Inc.),
 the Gaussian 92(TM) system (copyright 1992, Gaussian, Inc.),
 the Gaussian 90(TM) system (copyright 1990, Gaussian, Inc.),
 the Gaussian 88(TM) system (copyright 1988, Gaussian, Inc.),
 the Gaussian 86(TM) system (copyright 1986, Carnegie Mellon
 University), and the Gaussian 82(TM) system (copyright 1983,
 Carnegie Mellon University). Gaussian is a federally registered
 trademark of Gaussian, Inc.
  
 This software contains proprietary and confidential information,
 including trade secrets, belonging to Gaussian, Inc.
  
 This software is provided under written license and may be
 used, copied, transmitted, or stored only in accord with that
 written license.
  
 The following legend is applicable only to US Government
 contracts under FAR:
  
                    RESTRICTED RIGHTS LEGEND
  
 Use, reproduction and disclosure by the US Government is
 subject to restrictions as set forth in subparagraphs (a)
 and (c) of the Commercial Computer Software - Restricted
 Rights clause in FAR 52.227-19.
  
 Gaussian, Inc.
 340 Quinnipiac St., Bldg. 40, Wallingford CT 06492
  
  
 ---------------------------------------------------------------
 Warning -- This program may not be used in any manner that
 competes with the business of Gaussian, Inc. or will provide
 assistance to any competitor of Gaussian, Inc.  The licensee
 of this program is prohibited from giving any competitor of
 Gaussian, Inc. access to this program.  By using this program,
 the user acknowledges that Gaussian, Inc. is engaged in the
 business of creating and licensing software in the field of
 computational chemistry and represents and warrants to the
 licensee that it is not a competitor of Gaussian, Inc. and that
 it will not use this program in any manner prohibited above.
 ---------------------------------------------------------------
  

 Cite this work as:
 Gaussian 09, Revision D.01,
 M. J. Frisch, G. W. Trucks, H. B. Schlegel, G. E. Scuseria, 
 M. A. Robb, J. R. Cheeseman, G. Scalmani, V. Barone, B. Mennucci, 
 G. A. Petersson, H. Nakatsuji, M. Caricato, X. Li, H. P. Hratchian, 
 A. F. Izmaylov, J. Bloino, G. Zheng, J. L. Sonnenberg, M. Hada, 
 M. Ehara, K. Toyota, R. Fukuda, J. Hasegawa, M. Ishida, T. Nakajima, 
 Y. Honda, O. Kitao, H. Nakai, T. Vreven, J. A. Montgomery, Jr., 
 J. E. Peralta, F. Ogliaro, M. Bearpark, J. J. Heyd, E. Brothers, 
 K. N. Kudin, V. N. Staroverov, T. Keith, R. Kobayashi, J. Normand, 
 K. Raghavachari, A. Rendell, J. C. Burant, S. S. Iyengar, J. Tomasi, 
 M. Cossi, N. Rega, J. M. Millam, M. Klene, J. E. Knox, J. B. Cross, 
 V. Bakken, C. Adamo, J. Jaramillo, R. Gomperts, R. E. Stratmann, 
 O. Yazyev, A. J. Austin, R. Cammi, C. Pomelli, J. W. Ochterski, 
 R. L. Martin, K. Morokuma, V. G. Zakrzewski, G. A. Voth, 
 P. Salvador, J. J. Dannenberg, S. Dapprich, A. D. Daniels, 
 O. Farkas, J. B. Foresman, J. V. Ortiz, J. Cioslowski, 
 and D. J. Fox, Gaussian, Inc., Wallingford CT, 2013.
 
 ******************************************
 Gaussian 09:  ES64L-G09RevD.01 24-Apr-2013
                26-Jun-2019 
 ******************************************
 %nprocshared=4
 Will use up to    4 processors via shared memory.
 %mem=6000MB
 %chk=IP1_2ginp005.chk
 --------------------------------------------------------
 # m062x/def2tzvp int=ultrafine scrf=(solvent=chloroform)
 --------------------------------------------------------
 1/38=1/1;
 2/12=2,17=6,18=5,40=1/2;
 3/5=44,7=101,11=2,16=1,25=1,30=1,70=2201,72=7,74=-55,75=-5/1,2,3;
 4//1;
 5/5=2,38=5,53=7/2;
 6/7=2,8=2,9=2,10=2,28=1/1;
 99/5=1,9=1/99;
 ------------
 IP1_2ginp005
 ------------
 Symbolic Z-matrix:
 Charge =  0 Multiplicity = 1
 C                    -2.31195  -0.0381   -0.18659 
 C                    -1.02916   0.03461  -1.03459 
 C                     0.09518   0.79629  -0.25262 
 C                    -0.15845   0.65832   1.27702 
 C                    -0.88721  -0.59878   1.68304 
 H                    -2.6059    0.96162   0.16441 
 H                    -0.68183  -1.00242  -1.10486 
 H                     0.77306   0.73393   1.83454 
 H                    -0.78786   1.49695   1.59995 
 O                    -2.01777  -0.85847   0.98907 
 O                    -0.55085  -1.34473   2.58061 
 C                    -3.51242  -0.69666  -0.86063 
 C                    -4.7351   -0.81607   0.05491 
 C                    -1.24735   0.53833  -2.46658 
 O                     1.36376   0.26923  -0.63533 
 Si                    2.30702  -1.07967  -0.2687 
 C                     2.94958  -1.02091   1.50365 
 C                     1.38707  -2.70733  -0.53354 
 C                     3.73389  -0.94685  -1.48682 
 H                     2.08248  -3.54092  -0.37751 
 H                     0.55923  -2.84268   0.16974 
 H                     0.99181  -2.79534  -1.55109 
 H                     4.27975  -0.00637  -1.35882 
 H                     4.44393  -1.76866  -1.34176 
 H                     3.3773   -0.99037  -2.52114 
 H                     3.43734  -0.06615   1.72786 
 H                     2.14886  -1.18016   2.23256 
 H                     3.69249  -1.81413   1.64978 
 H                    -0.28834   0.61816  -2.98555 
 H                    -1.86757  -0.1609   -3.03245 
 H                    -1.7336    1.51842  -2.49833 
 H                    -3.21239  -1.68754  -1.22366 
 H                    -3.77427  -0.10091  -1.7411 
 H                    -5.57191  -1.27392  -0.48075 
 H                    -4.51445  -1.43015   0.93133 
 H                    -5.06262   0.16881   0.40663 
 C                     0.14742   2.3052   -0.6097 
 C                     1.13903   3.09248   0.20138 
 C                     0.84362   4.16991   0.93034 
 H                    -0.85228   2.74169  -0.49743 
 H                     0.41971   2.37798  -1.66833 
 H                     2.16816   2.73964   0.15926 
 H                     1.60566   4.71045   1.48424 
 H                    -0.171     4.55752   0.9938 
 
                          Input orientation:                          
 ---------------------------------------------------------------------
 Center     Atomic      Atomic             Coordinates (Angstroms)
 Number     Number       Type             X           Y           Z
 ---------------------------------------------------------------------
      1          6           0       -2.311951   -0.038101   -0.186586
      2          6           0       -1.029159    0.034611   -1.034588
      3          6           0        0.095183    0.796286   -0.252621
      4          6           0       -0.158452    0.658320    1.277022
      5          6           0       -0.887212   -0.598778    1.683039
      6          1           0       -2.605899    0.961617    0.164414
      7          1           0       -0.681831   -1.002417   -1.104863
      8          1           0        0.773059    0.733931    1.834544
      9          1           0       -0.787857    1.496950    1.599949
     10          8           0       -2.017771   -0.858471    0.989066
     11          8           0       -0.550852   -1.344734    2.580613
     12          6           0       -3.512420   -0.696658   -0.860626
     13          6           0       -4.735100   -0.816073    0.054905
     14          6           0       -1.247351    0.538330   -2.466583
     15          8           0        1.363762    0.269225   -0.635332
     16         14           0        2.307019   -1.079669   -0.268696
     17          6           0        2.949580   -1.020913    1.503645
     18          6           0        1.387071   -2.707327   -0.533536
     19          6           0        3.733886   -0.946845   -1.486815
     20          1           0        2.082478   -3.540921   -0.377514
     21          1           0        0.559231   -2.842683    0.169740
     22          1           0        0.991812   -2.795343   -1.551090
     23          1           0        4.279747   -0.006374   -1.358815
     24          1           0        4.443934   -1.768657   -1.341755
     25          1           0        3.377299   -0.990374   -2.521138
     26          1           0        3.437344   -0.066154    1.727857
     27          1           0        2.148860   -1.180158    2.232555
     28          1           0        3.692494   -1.814129    1.649780
     29          1           0       -0.288339    0.618163   -2.985553
     30          1           0       -1.867572   -0.160897   -3.032447
     31          1           0       -1.733597    1.518423   -2.498335
     32          1           0       -3.212391   -1.687538   -1.223664
     33          1           0       -3.774270   -0.100912   -1.741100
     34          1           0       -5.571907   -1.273921   -0.480754
     35          1           0       -4.514453   -1.430151    0.931328
     36          1           0       -5.062619    0.168812    0.406628
     37          6           0        0.147418    2.305201   -0.609699
     38          6           0        1.139029    3.092482    0.201384
     39          6           0        0.843618    4.169908    0.930337
     40          1           0       -0.852278    2.741691   -0.497425
     41          1           0        0.419712    2.377982   -1.668331
     42          1           0        2.168160    2.739640    0.159256
     43          1           0        1.605658    4.710447    1.484240
     44          1           0       -0.171000    4.557523    0.993802
 ---------------------------------------------------------------------
                    Distance matrix (angstroms):
                    1          2          3          4          5
     1  C    0.000000
     2  C    1.539464   0.000000
     3  C    2.548501   1.567088   0.000000
     4  C    2.695312   2.547682   1.556654   0.000000
     5  C    2.416555   2.794070   2.580326   1.508720   0.000000
     6  H    1.099565   2.187020   2.738083   2.705528   2.773975
     7  H    2.104858   1.095903   2.136680   2.950483   2.824447
     8  H    3.768061   3.459618   2.195373   1.088237   2.134377
     9  H    2.805522   3.022821   2.168572   1.097148   2.099726
    10  O    1.463457   2.422834   2.957124   2.416742   1.351741
    11  O    3.530744   3.898852   3.609507   2.421890   1.214589
    12  C    1.526156   2.594533   3.951373   4.201738   3.656710
    13  C    2.556406   3.955333   5.101559   4.961160   4.183812
    14  C    2.581479   1.533607   2.602031   3.900600   4.317647
    15  O    3.715735   2.437318   1.426027   2.475001   3.345917
    16  Si   4.735661   3.599763   2.900290   3.389454   3.774074
    17  C    5.613066   4.836023   3.812383   3.539922   3.864111
    18  C    4.574703   3.688827   3.744755   4.122419   3.812027
    19  C    6.250484   4.884093   4.219230   5.036432   5.614595
    20  H    5.622918   4.785234   4.772453   5.039135   4.660595
    21  H    4.029434   3.500316   3.692672   3.741412   3.068775
    22  H    4.514322   3.515642   3.922979   4.609676   4.337651
    23  H    6.695193   5.318955   4.402102   5.204524   6.025055
    24  H    7.069033   5.770691   5.164957   5.824961   6.240121
    25  H    6.222903   4.762069   4.371568   5.444791   6.001209
    26  H    6.059725   5.252705   3.979464   3.695655   4.357463
    27  H    5.201478   4.716958   3.781537   3.101086   3.139698
    28  H    6.525326   5.737393   4.834671   4.591485   4.738343
    29  H    3.515666   2.166936   2.765454   4.264743   4.861620
    30  H    2.882963   2.175454   3.534974   4.707837   4.836182
    31  H    2.846304   2.200111   2.984820   4.180213   4.762646
    32  H    2.146384   2.787122   4.248806   4.591625   3.878244
    33  H    2.135143   2.837809   4.241839   4.770706   4.506407
    34  H    3.498728   4.759784   6.037691   6.010726   5.204247
    35  H    2.835234   4.261177   5.254284   4.843135   3.796463
    36  H    2.821505   4.285314   5.237485   5.004803   4.433108
    37  C    3.423242   2.592382   1.551470   2.522992   3.841901
    38  C    4.675504   3.947055   2.562860   2.960675   4.463895
    39  C    5.377032   4.946605   3.652516   3.668186   5.128616
    40  H    3.155077   2.765522   2.177662   2.823206   3.989283
    41  H    3.936370   2.827056   2.147398   3.459280   4.669136
    42  H    5.282693   4.354916   2.871150   3.315783   4.775170
    43  H    6.378717   5.928760   4.540801   4.424337   5.868713
    44  H    5.205454   5.030660   3.971313   3.909495   5.251233
                    6          7          8          9         10
     6  H    0.000000
     7  H    3.028289   0.000000
     8  H    3.776047   3.711027   0.000000
     9  H    2.377524   3.684302   1.753195   0.000000
    10  O    2.082946   2.487970   3.322546   2.726513   0.000000
    11  O    3.921797   3.703656   2.574919   3.015467   2.218406
    12  C    2.149968   2.857512   5.260785   4.276633   2.383594
    13  C    2.775909   4.220044   5.992449   4.828868   2.873731
    14  C    2.991149   2.132603   4.756050   4.203186   3.806062
    15  O    4.108188   2.453973   2.581699   3.336653   3.917286
    16  Si   5.337714   3.104572   3.172664   4.439488   4.509402
    17  C    6.048745   4.471219   2.815353   4.507476   4.996574
    18  C    5.467366   2.741074   4.222212   5.192111   4.162876
    19  C    6.823610   4.432554   4.756357   5.995532   6.262536
    20  H    6.522838   3.822884   4.988200   6.126118   5.086759
    21  H    4.948815   2.559575   3.950881   4.763671   3.354002
    22  H    5.477338   2.492947   4.895523   5.614272   4.388787
    23  H    7.118241   5.066937   4.800256   6.057630   6.774758
    24  H    7.708637   5.188131   5.461423   6.832968   6.929271
    25  H    6.842596   4.299130   5.359782   6.365427   6.437834
    26  H    6.326251   5.086108   2.783870   4.506881   5.561642
    27  H    5.610004   4.379813   2.390602   4.023854   4.360110
    28  H    7.041366   5.232748   3.879413   5.571290   5.827259
    29  H    3.925728   2.513585   4.936933   4.695595   4.579190
    30  H    3.467720   2.414481   5.609033   5.037195   4.084328
    31  H    2.856777   3.066368   5.066813   4.206045   4.229934
    32  H    3.051658   2.624355   5.576734   4.898175   2.647762
    33  H    2.474882   3.283396   5.844689   4.757566   3.333615
    34  H    3.769758   4.937213   7.046323   5.907130   3.868443
    35  H    3.154566   4.360966   5.784188   4.785655   2.561947
    36  H    2.592813   4.779925   6.034355   4.632662   3.265830
    37  C    3.159940   3.445748   2.972312   2.531907   4.153663
    38  C    4.308879   4.667977   2.892042   2.866112   5.118189
    39  C    4.772728   5.763851   3.553661   3.202311   5.785809
    40  H    2.584933   3.796891   3.480072   2.439776   4.065611
    41  H    3.810429   3.599721   3.885600   3.593897   4.845380
    42  H    5.094412   4.870671   2.962392   3.515382   5.581846
    43  H    5.790758   6.676292   4.077820   4.008599   6.662378
    44  H    4.421217   5.964753   4.027152   3.180414   5.722200
                   11         12         13         14         15
    11  O    0.000000
    12  C    4.586176   0.000000
    13  C    4.915955   1.532124   0.000000
    14  C    5.431872   3.038886   4.511840   0.000000
    15  O    4.075894   4.976026   6.233010   3.200595   0.000000
    16  Si   4.044286   5.861992   7.054477   4.481314   1.686319
    17  C    3.676649   6.888568   7.822731   5.983994   2.958800
    18  C    3.912816   5.306109   6.434600   4.605555   2.978383
    19  C    5.921255   7.277613   8.609165   5.289462   2.796665
    20  H    4.528596   6.294928   7.354669   5.665003   3.885902
    21  H    3.047695   4.716505   5.670121   4.652439   3.313515
    22  H    4.642741   5.016904   6.268513   4.118902   3.220021
    23  H    6.375342   7.838530   9.160878   5.663273   3.017010
    24  H    6.364948   8.042651   9.333421   6.243249   3.760247
    25  H    6.448551   7.093081   8.513366   4.871068   3.032686
    26  H    4.274069   7.442916   8.375559   6.317048   3.161785
    27  H    2.727027   6.469284   7.229358   6.047260   3.307849
    28  H    4.369527   7.711139   8.635050   6.846939   3.871058
    29  H    5.907968   4.079065   5.574505   1.093347   2.893913
    30  H    5.885717   2.776575   4.264237   1.092609   4.046317
    31  H    5.949140   3.279159   4.580167   1.094544   3.824253
    32  H    4.655516   1.097113   2.170906   3.218807   5.011610
    33  H    5.533057   1.094858   2.158769   2.705601   5.268690
    34  H    5.881154   2.172331   1.093984   5.092107   7.106947
    35  H    4.293899   2.180179   1.092655   5.108294   6.316305
    36  H    5.231928   2.181304   1.095891   4.790423   6.511078
    37  C    4.897724   4.740099   5.832927   2.918087   2.371782
    38  C    5.310868   6.092735   7.057170   4.397334   2.953198
    39  C    5.922772   6.772450   7.533159   5.394402   4.235233
    40  H    5.124846   4.362398   5.295192   2.981353   3.323092
    41  H    5.731853   5.056428   6.304254   2.607801   2.530844
    42  H    5.471573   6.716941   7.765886   4.838028   2.716869
    43  H    6.520566   7.805761   8.531743   6.415234   4.927023
    44  H    6.123634   6.496954   7.112529   5.411720   4.837259
                   16         17         18         19         20
    16  Si   0.000000
    17  C    1.886141   0.000000
    18  C    1.888310   3.071731   0.000000
    19  C    1.880799   3.092487   3.084733   0.000000
    20  H    2.473868   3.262065   1.096728   3.269087   0.000000
    21  H    2.520954   3.288148   1.094640   4.051766   1.762755
    22  H    2.513532   4.038919   1.095168   3.307574   1.767122
    23  H    2.496393   3.315465   4.042747   1.094913   4.275975
    24  H    2.488487   3.299775   3.298292   1.095712   3.105987
    25  H    2.495389   4.047562   3.295375   1.094931   3.574490
    26  H    2.508201   1.095331   4.036498   3.346292   4.282786
    27  H    2.508260   1.094450   3.250204   4.049748   3.519953
    28  H    2.477806   1.096571   3.298431   3.254554   3.111894
    29  H    4.123085   5.772659   4.458505   4.568781   5.451662
    30  H    5.090154   6.672384   4.829240   5.863704   5.837476
    31  H    5.296032   6.663049   5.608562   6.082277   6.682610
    32  H    5.634302   6.771447   4.761439   6.990611   5.673327
    33  H    6.333089   7.522296   5.906865   7.559938   6.927808
    34  H    7.884173   8.753148   7.105267   9.365731   7.983706
    35  H    6.935083   7.497120   6.213291   8.609071   7.048966
    36  H    7.505087   8.173997   7.124225   9.066880   8.088845
    37  C    4.029579   4.835429   5.164105   4.920151   6.162427
    38  C    4.357983   4.679102   5.851446   5.089151   6.725121
    39  C    5.580079   5.631020   7.052278   6.354324   7.918468
    40  H    4.963493   5.711006   5.891331   5.968006   6.935300
    41  H    4.180461   5.292840   5.299426   4.697997   6.282071
    42  H    3.845718   4.069368   5.546126   4.330268   6.304039
    43  H    6.090167   5.886849   7.690421   6.735093   8.472223
    44  H    6.285890   6.412247   7.585407   7.190248   8.517245
                   21         22         23         24         25
    21  H    0.000000
    22  H    1.775000   0.000000
    23  H    4.921724   4.315766   0.000000
    24  H    4.304540   3.607638   1.769997   0.000000
    25  H    4.314323   3.144750   1.770216   1.770418   0.000000
    26  H    4.291897   4.917377   3.200119   3.651610   4.348764
    27  H    3.089679   4.273588   4.337786   4.288285   4.913520
    28  H    3.614662   4.301399   3.558720   3.084803   4.263153
    29  H    4.759381   3.917715   4.889144   5.549179   4.029885
    30  H    4.830668   4.160625   6.372947   6.728926   5.334617
    31  H    5.603118   5.189769   6.307441   7.092564   5.693491
    32  H    4.183428   4.360019   7.679630   7.657665   6.752295
    33  H    5.472463   5.478284   8.063639   8.395220   7.248761
    34  H    6.361997   6.822225   9.971597  10.064947   9.183238
    35  H    5.321422   6.192342   9.198361   9.248470   8.625119
    36  H    6.382039   7.019616   9.509326   9.858254   9.008204
    37  C    5.222818   5.254975   4.793819   5.965926   4.994652
    38  C    5.963502   6.144861   4.679876   6.077364   5.393671
    39  C    7.059449   7.395550   5.872694   7.306930   6.705276
    40  H    5.798508   5.930398   5.884856   7.007567   5.992749
    41  H    5.536543   5.206182   4.547617   5.787541   4.562940
    42  H    5.809569   5.911439   3.782054   5.268484   4.749688
    43  H    7.737745   8.119539   6.122264   7.617142   7.188959
    44  H    7.481669   7.867226   6.795080   8.171475   7.464877
                   26         27         28         29         30
    26  H    0.000000
    27  H    1.776490   0.000000
    28  H    1.768223   1.767584   0.000000
    29  H    6.046920   6.033452   6.576427   0.000000
    30  H    7.128226   6.700065   7.454580   1.761565   0.000000
    31  H    6.863688   6.688582   7.599686   1.771051   1.767298
    32  H    7.453814   6.398898   7.479983   4.119538   2.722291
    33  H    8.002640   7.213749   8.377693   3.770603   2.303622
    34  H    9.354318   8.184197   9.521561   6.145738   4.633795
    35  H    8.107159   6.793779   8.247278   6.115357   4.932393
    36  H    8.605244   7.560368   9.062532   5.873888   4.705770
    37  C    4.680930   4.922591   5.885719   2.946297   4.001441
    38  C    4.193966   4.837444   5.717768   4.279743   5.484687
    39  C    5.030673   5.658855   6.666513   5.406516   6.466071
    40  H    5.588983   5.642740   6.783873   3.319364   3.985245
    41  H    5.158876   5.555828   6.268553   2.309410   3.679455
    42  H    3.455983   4.434384   5.028128   4.519389   5.906540
    43  H    5.121556   5.962740   6.852181   6.349257   7.496251
    44  H    5.910784   6.311675   7.480297   5.600678   6.430593
                   31         32         33         34         35
    31  H    0.000000
    32  H    3.753639   0.000000
    33  H    2.712931   1.760917   0.000000
    34  H    5.157562   2.508049   2.489161   0.000000
    35  H    5.309410   2.530929   3.075162   1.771043   0.000000
    36  H    4.619810   3.086621   2.518994   1.768700   1.769881
    37  C    2.779241   5.254259   4.738047   6.748142   6.169332
    38  C    4.244776   6.619230   6.173453   8.035387   7.276599
    39  C    5.042638   7.443158   6.833840   8.531437   7.750457
    40  H    2.505344   5.071058   4.262060   6.196799   5.732114
    41  H    2.462618   5.469767   4.872340   7.116617   6.753228
    42  H    4.876256   7.103710   6.855112   8.742249   7.914580
    43  H    6.099225   8.454617   7.905417   9.549414   8.687256
    44  H    4.885986   7.291639   6.493401   8.083925   7.397414
                   36         37         38         39         40
    36  H    0.000000
    37  C    5.722024   0.000000
    38  C    6.859330   1.503649   0.000000
    39  C    7.153089   2.516652   1.333974   0.000000
    40  H    5.016372   1.096595   2.139320   2.637114   0.000000
    41  H    6.264331   1.095510   2.126914   3.184929   1.766710
    42  H    7.678184   2.205318   1.088753   2.096341   3.091000
    43  H    8.139632   3.506601   2.116902   1.086138   3.720813
    44  H    6.597992   2.783085   2.119068   1.087990   2.446455
                   41         42         43         44
    41  H    0.000000
    42  H    2.554984   0.000000
    43  H    4.097019   2.440506   0.000000
    44  H    3.490887   3.077797   1.849440   0.000000
 Stoichiometry    C14H26O3Si
 Framework group  C1[X(C14H26O3Si)]
 Deg. of freedom   126
 Full point group                 C1      NOp   1
 Largest Abelian subgroup         C1      NOp   1
 Largest concise Abelian subgroup C1      NOp   1
                         Standard orientation:                         
 ---------------------------------------------------------------------
 Center     Atomic      Atomic             Coordinates (Angstroms)
 Number     Number       Type             X           Y           Z
 ---------------------------------------------------------------------
      1          6           0       -2.311951   -0.038101   -0.186586
      2          6           0       -1.029159    0.034611   -1.034588
      3          6           0        0.095183    0.796286   -0.252621
      4          6           0       -0.158452    0.658320    1.277022
      5          6           0       -0.887212   -0.598778    1.683039
      6          1           0       -2.605899    0.961617    0.164414
      7          1           0       -0.681831   -1.002417   -1.104863
      8          1           0        0.773059    0.733931    1.834544
      9          1           0       -0.787857    1.496950    1.599949
     10          8           0       -2.017771   -0.858471    0.989066
     11          8           0       -0.550852   -1.344734    2.580613
     12          6           0       -3.512420   -0.696658   -0.860626
     13          6           0       -4.735100   -0.816073    0.054905
     14          6           0       -1.247351    0.538330   -2.466583
     15          8           0        1.363762    0.269225   -0.635332
     16         14           0        2.307019   -1.079669   -0.268696
     17          6           0        2.949580   -1.020913    1.503645
     18          6           0        1.387071   -2.707327   -0.533536
     19          6           0        3.733886   -0.946845   -1.486815
     20          1           0        2.082478   -3.540921   -0.377514
     21          1           0        0.559231   -2.842683    0.169740
     22          1           0        0.991812   -2.795343   -1.551090
     23          1           0        4.279747   -0.006374   -1.358815
     24          1           0        4.443934   -1.768657   -1.341755
     25          1           0        3.377299   -0.990374   -2.521138
     26          1           0        3.437344   -0.066154    1.727857
     27          1           0        2.148860   -1.180158    2.232555
     28          1           0        3.692494   -1.814129    1.649780
     29          1           0       -0.288339    0.618163   -2.985553
     30          1           0       -1.867572   -0.160897   -3.032447
     31          1           0       -1.733597    1.518423   -2.498335
     32          1           0       -3.212391   -1.687538   -1.223664
     33          1           0       -3.774270   -0.100912   -1.741100
     34          1           0       -5.571907   -1.273921   -0.480754
     35          1           0       -4.514453   -1.430151    0.931328
     36          1           0       -5.062619    0.168812    0.406628
     37          6           0        0.147418    2.305201   -0.609699
     38          6           0        1.139029    3.092482    0.201384
     39          6           0        0.843618    4.169908    0.930337
     40          1           0       -0.852278    2.741691   -0.497425
     41          1           0        0.419712    2.377982   -1.668331
     42          1           0        2.168160    2.739640    0.159256
     43          1           0        1.605658    4.710447    1.484240
     44          1           0       -0.171000    4.557523    0.993802
 ---------------------------------------------------------------------
 Rotational constants (GHZ):      0.4424057      0.2936182      0.2494787
 Standard basis: def2TZVP (5D, 7F)
 There are   810 symmetry adapted cartesian basis functions of A   symmetry.
 There are   720 symmetry adapted basis functions of A   symmetry.
   720 basis functions,  1144 primitive gaussians,   810 cartesian basis functions
    74 alpha electrons       74 beta electrons
       nuclear repulsion energy      1637.4083715788 Hartrees.
 NAtoms=   44 NActive=   44 NUniq=   44 SFac= 1.00D+00 NAtFMM=   60 NAOKFM=F Big=F
 Integral buffers will be    131072 words long.
 Raffenetti 2 integral format.
 Two-electron integral symmetry is turned on.
 ------------------------------------------------------------------------------
 Polarizable Continuum Model (PCM)
 =================================
 Model                : PCM (using non-symmetric T matrix).
 Atomic radii         : UFF (Universal Force Field).
 Polarization charges : Total charges.
 Charge compensation  : None.
 Solution method      : On-the-fly selection.
 Cavity type          : Scaled VdW (van der Waals Surface) (Alpha=1.100).
 Cavity algorithm     : GePol (No added spheres)
                        Default sphere list used, NSphG=   44.
                        Lebedev-Laikov grids with approx.  5.0 points / Ang**2.
                        Smoothing algorithm: Karplus/York (Gamma=1.0000).
                        Polarization charges: spherical gaussians, with
                                              point-specific exponents (IZeta= 3).
                        Self-potential: point-specific (ISelfS= 7).
                        Self-field    : sphere-specific E.n sum rule (ISelfD= 2).
 Solvent              : Chloroform, Eps=   4.711300 Eps(inf)=   2.090627
 ------------------------------------------------------------------------------
 One-electron integrals computed using PRISM.
   1 Symmetry operations used in ECPInt.
 ECPInt:  NShTT=   46360 NPrTT=  137514 LenC2=   42217 LenP2D=   90525.
 LDataN:  DoStor=T MaxTD1= 6 Len=  172
 NBasis=   720 RedAO= T EigKep=  2.50D-05  NBF=   720
 NBsUse=   720 1.00D-06 EigRej= -1.00D+00 NBFU=   720
 ExpMin= 7.01D-02 ExpMax= 4.48D+04 ExpMxC= 1.53D+03 IAcc=3 IRadAn=         5 AccDes= 0.00D+00
 Harris functional with IExCor= 1009 and IRadAn=       5 diagonalized for initial guess.
 HarFok:  IExCor= 1009 AccDes= 0.00D+00 IRadAn=         5 IDoV= 1 UseB2=F ITyADJ=14
 ICtDFT=  3500011 ScaDFX=  1.000000  1.000000  1.000000  1.000000
 FoFCou: FMM=F IPFlag=           0 FMFlag=      100000 FMFlg1=           0
         NFxFlg=           0 DoJE=T BraDBF=F KetDBF=T FulRan=T
         wScrn=  0.000000 ICntrl=     500 IOpCl=  0 I1Cent=   200000004 NGrid=           0
         NMat0=    1 NMatS0=      1 NMatT0=    0 NMatD0=    1 NMtDS0=    0 NMtDT0=    0
 Petite list used in FoFCou.
 Requested convergence on RMS density matrix=1.00D-08 within 128 cycles.
 Requested convergence on MAX density matrix=1.00D-06.
 Requested convergence on             energy=1.00D-06.
 No special actions if energy rises.
 Inv3:  Mode=1 IEnd=    24917772.
 Iteration    1 A*A^-1 deviation from unit magnitude is 5.11D-15 for   2856.
 Iteration    1 A*A^-1 deviation from orthogonality  is 3.02D-15 for   2874     73.
 Iteration    1 A^-1*A deviation from unit magnitude is 5.11D-15 for   2856.
 Iteration    1 A^-1*A deviation from orthogonality  is 1.69D-10 for   2766   2751.
 Iteration    2 A*A^-1 deviation from unit magnitude is 5.77D-15 for   1442.
 Iteration    2 A*A^-1 deviation from orthogonality  is 3.63D-15 for   2602   1262.
 Iteration    2 A^-1*A deviation from unit magnitude is 9.99D-16 for   1461.
 Iteration    2 A^-1*A deviation from orthogonality  is 4.01D-16 for   2084    547.
 Error on total polarization charges =  0.01484
 SCF Done:  E(RM062X) =  -1064.34115577     A.U. after   13 cycles
            NFock= 13  Conv=0.50D-08     -V/T= 2.0047

 **********************************************************************

            Population analysis using the SCF density.

 **********************************************************************

 Orbital symmetries:
       Occupied  (A) (A) (A) (A) (A) (A) (A) (A) (A) (A) (A) (A)
                 (A) (A) (A) (A) (A) (A) (A) (A) (A) (A) (A) (A)
                 (A) (A) (A) (A) (A) (A) (A) (A) (A) (A) (A) (A)
                 (A) (A) (A) (A) (A) (A) (A) (A) (A) (A) (A) (A)
                 (A) (A) (A) (A) (A) (A) (A) (A) (A) (A) (A) (A)
                 (A) (A) (A) (A) (A) (A) (A) (A) (A) (A) (A) (A)
                 (A) (A)
       Virtual   (A) (A) (A) (A) (A) (A) (A) (A) (A) (A) (A) (A)
                 (A) (A) (A) (A) (A) (A) (A) (A) (A) (A) (A) (A)
                 (A) (A) (A) (A) (A) (A) (A) (A) (A) (A) (A) (A)
                 (A) (A) (A) (A) (A) (A) (A) (A) (A) (A) (A) (A)
                 (A) (A) (A) (A) (A) (A) (A) (A) (A) (A) (A) (A)
                 (A) (A) (A) (A) (A) (A) (A) (A) (A) (A) (A) (A)
                 (A) (A) (A) (A) (A) (A) (A) (A) (A) (A) (A) (A)
                 (A) (A) (A) (A) (A) (A) (A) (A) (A) (A) (A) (A)
                 (A) (A) (A) (A) (A) (A) (A) (A) (A) (A) (A) (A)
                 (A) (A) (A) (A) (A) (A) (A) (A) (A) (A) (A) (A)
                 (A) (A) (A) (A) (A) (A) (A) (A) (A) (A) (A) (A)
                 (A) (A) (A) (A) (A) (A) (A) (A) (A) (A) (A) (A)
                 (A) (A) (A) (A) (A) (A) (A) (A) (A) (A) (A) (A)
                 (A) (A) (A) (A) (A) (A) (A) (A) (A) (A) (A) (A)
                 (A) (A) (A) (A) (A) (A) (A) (A) (A) (A) (A) (A)
                 (A) (A) (A) (A) (A) (A) (A) (A) (A) (A) (A) (A)
                 (A) (A) (A) (A) (A) (A) (A) (A) (A) (A) (A) (A)
                 (A) (A) (A) (A) (A) (A) (A) (A) (A) (A) (A) (A)
                 (A) (A) (A) (A) (A) (A) (A) (A) (A) (A) (A) (A)
                 (A) (A) (A) (A) (A) (A) (A) (A) (A) (A) (A) (A)
                 (A) (A) (A) (A) (A) (A) (A) (A) (A) (A) (A) (A)
                 (A) (A) (A) (A) (A) (A) (A) (A) (A) (A) (A) (A)
                 (A) (A) (A) (A) (A) (A) (A) (A) (A) (A) (A) (A)
                 (A) (A) (A) (A) (A) (A) (A) (A) (A) (A) (A) (A)
                 (A) (A) (A) (A) (A) (A) (A) (A) (A) (A) (A) (A)
                 (A) (A) (A) (A) (A) (A) (A) (A) (A) (A) (A) (A)
                 (A) (A) (A) (A) (A) (A) (A) (A) (A) (A) (A) (A)
                 (A) (A) (A) (A) (A) (A) (A) (A) (A) (A) (A) (A)
                 (A) (A) (A) (A) (A) (A) (A) (A) (A) (A) (A) (A)
                 (A) (A) (A) (A) (A) (A) (A) (A) (A) (A) (A) (A)
                 (A) (A) (A) (A) (A) (A) (A) (A) (A) (A) (A) (A)
                 (A) (A) (A) (A) (A) (A) (A) (A) (A) (A) (A) (A)
                 (A) (A) (A) (A) (A) (A) (A) (A) (A) (A) (A) (A)
                 (A) (A) (A) (A) (A) (A) (A) (A) (A) (A) (A) (A)
                 (A) (A) (A) (A) (A) (A) (A) (A) (A) (A) (A) (A)
                 (A) (A) (A) (A) (A) (A) (A) (A) (A) (A) (A) (A)
                 (A) (A) (A) (A) (A) (A) (A) (A) (A) (A) (A) (A)
                 (A) (A) (A) (A) (A) (A) (A) (A) (A) (A) (A) (A)
                 (A) (A) (A) (A) (A) (A) (A) (A) (A) (A) (A) (A)
                 (A) (A) (A) (A) (A) (A) (A) (A) (A) (A) (A) (A)
                 (A) (A) (A) (A) (A) (A) (A) (A) (A) (A) (A) (A)
                 (A) (A) (A) (A) (A) (A) (A) (A) (A) (A) (A) (A)
                 (A) (A) (A) (A) (A) (A) (A) (A) (A) (A) (A) (A)
                 (A) (A) (A) (A) (A) (A) (A) (A) (A) (A) (A) (A)
                 (A) (A) (A) (A) (A) (A) (A) (A) (A) (A) (A) (A)
                 (A) (A) (A) (A) (A) (A) (A) (A) (A) (A) (A) (A)
                 (A) (A) (A) (A) (A) (A) (A) (A) (A) (A) (A) (A)
                 (A) (A) (A) (A) (A) (A) (A) (A) (A) (A) (A) (A)
                 (A) (A) (A) (A) (A) (A) (A) (A) (A) (A) (A) (A)
                 (A) (A) (A) (A) (A) (A) (A) (A) (A) (A) (A) (A)
                 (A) (A) (A) (A) (A) (A) (A) (A) (A) (A) (A) (A)
                 (A) (A) (A) (A) (A) (A) (A) (A) (A) (A) (A) (A)
                 (A) (A) (A) (A) (A) (A) (A) (A) (A) (A) (A) (A)
                 (A) (A) (A) (A) (A) (A) (A) (A) (A) (A)
 The electronic state is 1-A.
 Alpha  occ. eigenvalues --  -67.01478 -19.67344 -19.62012 -19.61884 -10.68107
 Alpha  occ. eigenvalues --  -10.62433 -10.61126 -10.55713 -10.55650 -10.54645
 Alpha  occ. eigenvalues --  -10.54458 -10.54334 -10.53512 -10.53480 -10.52684
 Alpha  occ. eigenvalues --  -10.50903 -10.50679 -10.50610  -5.54927  -3.86115
 Alpha  occ. eigenvalues --   -3.85969  -3.85955  -1.23155  -1.14484  -1.13195
 Alpha  occ. eigenvalues --   -0.93466  -0.90763  -0.87877  -0.85098  -0.80888
 Alpha  occ. eigenvalues --   -0.79383  -0.78930  -0.76739  -0.76568  -0.73434
 Alpha  occ. eigenvalues --   -0.69592  -0.68383  -0.64849  -0.63016  -0.60808
 Alpha  occ. eigenvalues --   -0.57410  -0.57143  -0.55406  -0.54695  -0.52706
 Alpha  occ. eigenvalues --   -0.51321  -0.50448  -0.50228  -0.49193  -0.48830
 Alpha  occ. eigenvalues --   -0.48573  -0.47702  -0.47362  -0.47104  -0.45969
 Alpha  occ. eigenvalues --   -0.45795  -0.45437  -0.44746  -0.44346  -0.44246
 Alpha  occ. eigenvalues --   -0.43717  -0.43269  -0.42043  -0.41380  -0.41124
 Alpha  occ. eigenvalues --   -0.40604  -0.40537  -0.38698  -0.37006  -0.36535
 Alpha  occ. eigenvalues --   -0.35535  -0.34213  -0.33341  -0.31978
 Alpha virt. eigenvalues --    0.03229   0.03673   0.05048   0.06267   0.07055
 Alpha virt. eigenvalues --    0.07756   0.08855   0.09619   0.10434   0.10643
 Alpha virt. eigenvalues --    0.11240   0.11707   0.11933   0.12209   0.12650
 Alpha virt. eigenvalues --    0.13235   0.13463   0.13859   0.14400   0.14737
 Alpha virt. eigenvalues --    0.15533   0.15653   0.15895   0.16369   0.16867
 Alpha virt. eigenvalues --    0.17122   0.17191   0.17374   0.17731   0.18265
 Alpha virt. eigenvalues --    0.18326   0.18892   0.19578   0.19737   0.21059
 Alpha virt. eigenvalues --    0.21213   0.21690   0.22313   0.22826   0.23263
 Alpha virt. eigenvalues --    0.23520   0.23647   0.23832   0.24564   0.25390
 Alpha virt. eigenvalues --    0.25806   0.26351   0.26897   0.27335   0.28053
 Alpha virt. eigenvalues --    0.29081   0.29382   0.30041   0.30386   0.30726
 Alpha virt. eigenvalues --    0.31662   0.32265   0.32571   0.33325   0.33597
 Alpha virt. eigenvalues --    0.35419   0.35716   0.36015   0.36118   0.36716
 Alpha virt. eigenvalues --    0.37305   0.37607   0.38075   0.38636   0.38901
 Alpha virt. eigenvalues --    0.39950   0.40412   0.40900   0.41712   0.42074
 Alpha virt. eigenvalues --    0.42331   0.42709   0.42966   0.43508   0.44311
 Alpha virt. eigenvalues --    0.44898   0.45522   0.45531   0.45833   0.46261
 Alpha virt. eigenvalues --    0.46665   0.46951   0.47626   0.47734   0.48261
 Alpha virt. eigenvalues --    0.48529   0.48661   0.49043   0.49081   0.49482
 Alpha virt. eigenvalues --    0.49899   0.50357   0.50664   0.50951   0.51539
 Alpha virt. eigenvalues --    0.51785   0.52264   0.52492   0.52811   0.53278
 Alpha virt. eigenvalues --    0.53894   0.54206   0.54730   0.55126   0.55484
 Alpha virt. eigenvalues --    0.56250   0.56437   0.57361   0.58165   0.58870
 Alpha virt. eigenvalues --    0.59896   0.60073   0.61110   0.61222   0.62639
 Alpha virt. eigenvalues --    0.63078   0.63578   0.64155   0.64504   0.65553
 Alpha virt. eigenvalues --    0.66921   0.67260   0.67728   0.68719   0.69083
 Alpha virt. eigenvalues --    0.70135   0.70956   0.71981   0.72349   0.72575
 Alpha virt. eigenvalues --    0.73131   0.74768   0.75439   0.76265   0.77234
 Alpha virt. eigenvalues --    0.77679   0.78081   0.78538   0.80196   0.82027
 Alpha virt. eigenvalues --    0.83076   0.83913   0.85894   0.86425   0.86586
 Alpha virt. eigenvalues --    0.87763   0.88105   0.88818   0.89558   0.90339
 Alpha virt. eigenvalues --    0.91317   0.92068   0.92285   0.92705   0.93657
 Alpha virt. eigenvalues --    0.94162   0.94844   0.95600   0.96997   0.97460
 Alpha virt. eigenvalues --    0.97848   0.98646   0.99695   1.00204   1.01150
 Alpha virt. eigenvalues --    1.02210   1.02860   1.03296   1.03623   1.04850
 Alpha virt. eigenvalues --    1.05339   1.05713   1.06660   1.06844   1.07297
 Alpha virt. eigenvalues --    1.07533   1.08898   1.09434   1.10248   1.10731
 Alpha virt. eigenvalues --    1.11873   1.12712   1.13306   1.13723   1.14437
 Alpha virt. eigenvalues --    1.15672   1.16868   1.17221   1.18044   1.19712
 Alpha virt. eigenvalues --    1.20900   1.21305   1.23076   1.23228   1.24046
 Alpha virt. eigenvalues --    1.24571   1.26157   1.27150   1.28164   1.29202
 Alpha virt. eigenvalues --    1.29887   1.31022   1.31851   1.32112   1.33829
 Alpha virt. eigenvalues --    1.34239   1.35482   1.36327   1.37593   1.38455
 Alpha virt. eigenvalues --    1.39073   1.40127   1.40597   1.41850   1.42142
 Alpha virt. eigenvalues --    1.43323   1.44753   1.44963   1.46747   1.47207
 Alpha virt. eigenvalues --    1.47974   1.48601   1.50240   1.51036   1.52466
 Alpha virt. eigenvalues --    1.54270   1.55424   1.56045   1.56352   1.56811
 Alpha virt. eigenvalues --    1.57338   1.57956   1.58443   1.58938   1.59102
 Alpha virt. eigenvalues --    1.59863   1.60412   1.60689   1.61146   1.61829
 Alpha virt. eigenvalues --    1.62983   1.63454   1.63502   1.63941   1.64406
 Alpha virt. eigenvalues --    1.64887   1.65358   1.65983   1.66496   1.67040
 Alpha virt. eigenvalues --    1.67712   1.67896   1.68431   1.68510   1.68656
 Alpha virt. eigenvalues --    1.69136   1.70300   1.70446   1.71308   1.72026
 Alpha virt. eigenvalues --    1.73682   1.74119   1.74320   1.75296   1.77773
 Alpha virt. eigenvalues --    1.78796   1.80004   1.80515   1.82048   1.82393
 Alpha virt. eigenvalues --    1.83182   1.84859   1.84944   1.86480   1.87089
 Alpha virt. eigenvalues --    1.87651   1.88345   1.91133   1.92128   1.92660
 Alpha virt. eigenvalues --    1.93971   1.95673   1.96099   1.96865   1.97368
 Alpha virt. eigenvalues --    1.99235   1.99754   2.00478   2.02107   2.02675
 Alpha virt. eigenvalues --    2.03508   2.04757   2.04903   2.05331   2.06354
 Alpha virt. eigenvalues --    2.07002   2.07559   2.07802   2.08579   2.09427
 Alpha virt. eigenvalues --    2.09683   2.11173   2.13189   2.13452   2.14296
 Alpha virt. eigenvalues --    2.14612   2.16088   2.17214   2.17590   2.18977
 Alpha virt. eigenvalues --    2.19935   2.20674   2.21344   2.22785   2.23569
 Alpha virt. eigenvalues --    2.23798   2.25439   2.25688   2.27237   2.27634
 Alpha virt. eigenvalues --    2.28658   2.30722   2.31469   2.32216   2.32960
 Alpha virt. eigenvalues --    2.33491   2.34394   2.34857   2.36079   2.36371
 Alpha virt. eigenvalues --    2.37146   2.37764   2.38745   2.39394   2.40386
 Alpha virt. eigenvalues --    2.40826   2.41530   2.41931   2.42383   2.42716
 Alpha virt. eigenvalues --    2.43484   2.43985   2.44439   2.44837   2.45299
 Alpha virt. eigenvalues --    2.46099   2.46869   2.47689   2.48454   2.50101
 Alpha virt. eigenvalues --    2.50171   2.51286   2.52043   2.53713   2.54734
 Alpha virt. eigenvalues --    2.55657   2.56408   2.57458   2.57754   2.58541
 Alpha virt. eigenvalues --    2.59028   2.59484   2.60117   2.60397   2.61422
 Alpha virt. eigenvalues --    2.61916   2.62525   2.63189   2.63446   2.64445
 Alpha virt. eigenvalues --    2.65479   2.66273   2.66464   2.66669   2.67235
 Alpha virt. eigenvalues --    2.67574   2.68505   2.69811   2.70479   2.70614
 Alpha virt. eigenvalues --    2.71072   2.71496   2.72400   2.72934   2.74038
 Alpha virt. eigenvalues --    2.74620   2.75638   2.75977   2.76971   2.77721
 Alpha virt. eigenvalues --    2.79847   2.80105   2.80961   2.81998   2.84414
 Alpha virt. eigenvalues --    2.86466   2.86681   2.87116   2.89304   2.89657
 Alpha virt. eigenvalues --    2.89901   2.91293   2.92694   2.94167   2.94436
 Alpha virt. eigenvalues --    2.95413   2.95780   2.97358   2.97676   2.98745
 Alpha virt. eigenvalues --    2.99925   3.00678   3.03315   3.05639   3.06368
 Alpha virt. eigenvalues --    3.06827   3.07035   3.08122   3.09903   3.10137
 Alpha virt. eigenvalues --    3.11798   3.12202   3.12441   3.13239   3.13490
 Alpha virt. eigenvalues --    3.14433   3.14601   3.15029   3.15843   3.16850
 Alpha virt. eigenvalues --    3.17330   3.17989   3.18732   3.19162   3.19607
 Alpha virt. eigenvalues --    3.21003   3.21710   3.23034   3.23999   3.24687
 Alpha virt. eigenvalues --    3.25278   3.25656   3.25877   3.26278   3.26584
 Alpha virt. eigenvalues --    3.27008   3.27886   3.29249   3.29553   3.30027
 Alpha virt. eigenvalues --    3.30526   3.30973   3.31736   3.32232   3.33007
 Alpha virt. eigenvalues --    3.33293   3.33676   3.34886   3.35585   3.36320
 Alpha virt. eigenvalues --    3.36674   3.37609   3.38006   3.38783   3.39294
 Alpha virt. eigenvalues --    3.39613   3.40502   3.41320   3.42353   3.42992
 Alpha virt. eigenvalues --    3.43604   3.43947   3.44391   3.45341   3.45670
 Alpha virt. eigenvalues --    3.46350   3.47590   3.48547   3.49531   3.50916
 Alpha virt. eigenvalues --    3.52253   3.53346   3.53712   3.54559   3.55481
 Alpha virt. eigenvalues --    3.56265   3.57599   3.57796   3.58867   3.59373
 Alpha virt. eigenvalues --    3.60459   3.61545   3.61886   3.62699   3.63631
 Alpha virt. eigenvalues --    3.64534   3.64758   3.65214   3.65794   3.66692
 Alpha virt. eigenvalues --    3.67490   3.67975   3.68501   3.69382   3.70954
 Alpha virt. eigenvalues --    3.72272   3.72808   3.74029   3.75177   3.76390
 Alpha virt. eigenvalues --    3.78354   3.79832   3.80487   3.83263   3.84139
 Alpha virt. eigenvalues --    3.84955   3.86631   3.89456   3.90479   3.91827
 Alpha virt. eigenvalues --    3.94798   3.95312   3.96658   3.98100   3.99816
 Alpha virt. eigenvalues --    4.00675   4.04166   4.05504   4.07759   4.08995
 Alpha virt. eigenvalues --    4.11263   4.13278   4.14340   4.15887   4.18501
 Alpha virt. eigenvalues --    4.19536   4.20507   4.21800   4.24763   4.26147
 Alpha virt. eigenvalues --    4.26796   4.27611   4.28456   4.29450   4.30758
 Alpha virt. eigenvalues --    4.31144   4.32549   4.33714   4.34881   4.36322
 Alpha virt. eigenvalues --    4.38061   4.38327   4.39277   4.39901   4.40218
 Alpha virt. eigenvalues --    4.42370   4.43138   4.45467   4.46938   4.49517
 Alpha virt. eigenvalues --    4.51852   4.53275   4.55170   4.57111   4.59309
 Alpha virt. eigenvalues --    4.62768   4.64682   4.66219   4.67797   4.69871
 Alpha virt. eigenvalues --    4.70620   4.72724   4.79677   4.82519   4.82959
 Alpha virt. eigenvalues --    4.86314   4.90129   4.91565   4.97401   5.00154
 Alpha virt. eigenvalues --    5.03149   5.08183   5.12559   5.20356   5.23430
 Alpha virt. eigenvalues --    5.23743   5.25556   5.27428   5.30608   5.45520
 Alpha virt. eigenvalues --    5.48774   5.49054   5.51424   5.60824   5.80420
 Alpha virt. eigenvalues --    5.84830   5.85950   5.88045   5.91641   5.98678
 Alpha virt. eigenvalues --    6.13800   6.17726   6.21280   6.36251   6.39945
 Alpha virt. eigenvalues --    6.51807   6.60146   6.63010   6.66610   6.69248
 Alpha virt. eigenvalues --    6.72753   6.78898   6.83229   6.84786   6.88734
 Alpha virt. eigenvalues --    6.90554   6.97883   7.05482   7.06981   7.14826
 Alpha virt. eigenvalues --    7.23179   7.34048   7.41332  12.18355  22.30154
 Alpha virt. eigenvalues --   22.39105  22.42524  22.43208  22.45347  22.52025
 Alpha virt. eigenvalues --   22.59394  22.65452  22.68767  22.75523  22.81421
 Alpha virt. eigenvalues --   22.83881  22.93601  23.44978  44.12649  44.46896
 Alpha virt. eigenvalues --   44.54253
          Condensed to atoms (all electrons):
               1          2          3          4          5          6
     1  C    5.492626  -0.015468   0.083328  -0.063038  -0.031321   0.409557
     2  C   -0.015468   5.877123   0.004956  -0.018042  -0.020433  -0.039423
     3  C    0.083328   0.004956   5.831452  -0.101884   0.068466  -0.008928
     4  C   -0.063038  -0.018042  -0.101884   6.103538   0.067355   0.010355
     5  C   -0.031321  -0.020433   0.068466   0.067355   4.555796  -0.016102
     6  H    0.409557  -0.039423  -0.008928   0.010355  -0.016102   0.523708
     7  H   -0.042570   0.456779  -0.076726   0.006426  -0.007602   0.006875
     8  H   -0.001221   0.011422  -0.029294   0.405385  -0.027320  -0.000038
     9  H   -0.002724   0.002874  -0.054888   0.400551  -0.014834  -0.003013
    10  O    0.168362  -0.026483  -0.000479  -0.137370   0.371140  -0.034121
    11  O    0.004231  -0.003277   0.010709  -0.137568   0.698561  -0.000088
    12  C    0.197308  -0.031107   0.008517  -0.006117   0.001312  -0.029234
    13  C   -0.042713   0.009983  -0.000687  -0.000552   0.000170  -0.010350
    14  C   -0.045844   0.137877  -0.029127   0.001943   0.000679   0.003444
    15  O    0.006767  -0.021809   0.158448  -0.037153  -0.001552   0.000221
    16  Si  -0.001178  -0.002979  -0.071409   0.004175   0.007932  -0.000072
    17  C    0.000716  -0.001840  -0.006882   0.025107  -0.006564  -0.000001
    18  C   -0.000491  -0.004641   0.022056  -0.017504   0.009313  -0.000009
    19  C   -0.000178   0.001787  -0.001807  -0.000238  -0.000225  -0.000002
    20  H   -0.000011   0.000468  -0.000763   0.000330  -0.000203   0.000001
    21  H   -0.002388   0.004888  -0.003994  -0.000818   0.008788   0.000010
    22  H    0.000582  -0.002886   0.000271   0.001348  -0.001200  -0.000011
    23  H    0.000001  -0.000026  -0.000017   0.000069   0.000007   0.000000
    24  H    0.000003  -0.000014   0.000005   0.000008   0.000008   0.000000
    25  H    0.000016  -0.000265   0.000490   0.000047   0.000022   0.000000
    26  H   -0.000002  -0.000168   0.004721  -0.005615   0.000228   0.000000
    27  H    0.000071   0.000638  -0.005974   0.003345  -0.000069  -0.000014
    28  H   -0.000014   0.000069   0.000201  -0.000697   0.000205   0.000000
    29  H    0.015342  -0.076764   0.026559   0.000946   0.000082  -0.000605
    30  H   -0.016449  -0.034841   0.010930  -0.000592  -0.000068   0.000228
    31  H   -0.004064  -0.014197  -0.039297   0.000555  -0.000228   0.002500
    32  H   -0.045751   0.008778  -0.000391   0.000509  -0.001320   0.006710
    33  H   -0.048624  -0.020256  -0.000843   0.000397   0.000101  -0.001655
    34  H    0.014053  -0.000973   0.000073  -0.000008   0.000052  -0.000124
    35  H   -0.018587  -0.000363  -0.000217   0.000738   0.000764   0.001184
    36  H    0.001768   0.001759  -0.000121   0.000357  -0.000556   0.003017
    37  C   -0.006307  -0.040453   0.118112  -0.008427  -0.000452   0.001170
    38  C   -0.003027   0.016645  -0.036329  -0.019830  -0.001504  -0.000240
    39  C    0.000051  -0.000042  -0.004432  -0.002614   0.000401   0.000068
    40  H   -0.001908   0.011277  -0.043162  -0.011270  -0.000387   0.001608
    41  H    0.003291  -0.023743  -0.042495   0.005289   0.000152  -0.000142
    42  H    0.000021   0.000185   0.008786  -0.004626   0.000142  -0.000004
    43  H   -0.000003   0.000023  -0.000235   0.000024   0.000000  -0.000002
    44  H    0.000011   0.000051  -0.001178  -0.000413  -0.000039   0.000048
               7          8          9         10         11         12
     1  C   -0.042570  -0.001221  -0.002724   0.168362   0.004231   0.197308
     2  C    0.456779   0.011422   0.002874  -0.026483  -0.003277  -0.031107
     3  C   -0.076726  -0.029294  -0.054888  -0.000479   0.010709   0.008517
     4  C    0.006426   0.405385   0.400551  -0.137370  -0.137568  -0.006117
     5  C   -0.007602  -0.027320  -0.014834   0.371140   0.698561   0.001312
     6  H    0.006875  -0.000038  -0.003013  -0.034121  -0.000088  -0.029234
     7  H    0.516264  -0.000286  -0.000645   0.001726  -0.001423  -0.007915
     8  H   -0.000286   0.439531  -0.005263   0.004576   0.002522   0.000199
     9  H   -0.000645  -0.005263   0.445728   0.003359   0.004439   0.000314
    10  O    0.001726   0.004576   0.003359   8.002106  -0.093939  -0.036288
    11  O   -0.001423   0.002522   0.004439  -0.093939   7.874223  -0.000546
    12  C   -0.007915   0.000199   0.000314  -0.036288  -0.000546   5.217806
    13  C   -0.000642  -0.000007   0.000120  -0.002082  -0.000116   0.249441
    14  C   -0.029257  -0.000174   0.000336   0.007780  -0.000101   0.014937
    15  O   -0.009838  -0.002713   0.003805   0.000032   0.000188  -0.000439
    16  Si   0.003375  -0.004562   0.001235  -0.002346   0.008814  -0.000330
    17  C    0.000307  -0.010515  -0.000110  -0.000123  -0.011836  -0.000001
    18  C   -0.007478   0.001300   0.000016  -0.000056  -0.004554   0.000328
    19  C   -0.000109   0.000208   0.000019  -0.000012   0.000051   0.000004
    20  H    0.000684  -0.000038  -0.000001   0.000019   0.000039   0.000001
    21  H   -0.003772   0.000008   0.000000  -0.000799   0.001585   0.000259
    22  H   -0.000210  -0.000043   0.000001  -0.000064   0.000141  -0.000017
    23  H    0.000001  -0.000006   0.000002   0.000000   0.000001   0.000000
    24  H   -0.000009  -0.000004   0.000000   0.000000   0.000001   0.000000
    25  H    0.000080  -0.000011   0.000000  -0.000001   0.000000  -0.000001
    26  H   -0.000003   0.001229  -0.000036  -0.000004   0.000143   0.000000
    27  H   -0.000140  -0.003845   0.000569   0.000349   0.013203   0.000004
    28  H   -0.000019   0.000808   0.000002   0.000002   0.000175   0.000000
    29  H   -0.005086  -0.000070  -0.000008  -0.000265   0.000002  -0.000556
    30  H   -0.010139   0.000008   0.000018  -0.000005   0.000000   0.005903
    31  H    0.007919   0.000021  -0.000132  -0.000090   0.000000  -0.005498
    32  H    0.000886   0.000004  -0.000030  -0.001150  -0.000063   0.419797
    33  H    0.002187  -0.000008  -0.000010   0.004391   0.000012   0.435859
    34  H    0.000017   0.000000   0.000000   0.000297   0.000000  -0.052749
    35  H    0.000252  -0.000007  -0.000043   0.008285   0.000232  -0.037617
    36  H   -0.000042   0.000001  -0.000016  -0.000980   0.000003  -0.045287
    37  C    0.011974  -0.007891  -0.004019  -0.000340  -0.000153  -0.000026
    38  C   -0.000501   0.000968   0.000052  -0.000251  -0.000265  -0.000016
    39  C   -0.000019   0.000264   0.001237  -0.000008   0.000004   0.000011
    40  H    0.000269   0.000559  -0.002134  -0.000071  -0.000001   0.000659
    41  H   -0.000947  -0.000018   0.000842  -0.000016   0.000009   0.000013
    42  H    0.000010   0.000782   0.000433   0.000003   0.000016   0.000005
    43  H    0.000000   0.000037  -0.000004   0.000000   0.000000   0.000000
    44  H    0.000001   0.000092   0.000165   0.000001   0.000000   0.000003
              13         14         15         16         17         18
     1  C   -0.042713  -0.045844   0.006767  -0.001178   0.000716  -0.000491
     2  C    0.009983   0.137877  -0.021809  -0.002979  -0.001840  -0.004641
     3  C   -0.000687  -0.029127   0.158448  -0.071409  -0.006882   0.022056
     4  C   -0.000552   0.001943  -0.037153   0.004175   0.025107  -0.017504
     5  C    0.000170   0.000679  -0.001552   0.007932  -0.006564   0.009313
     6  H   -0.010350   0.003444   0.000221  -0.000072  -0.000001  -0.000009
     7  H   -0.000642  -0.029257  -0.009838   0.003375   0.000307  -0.007478
     8  H   -0.000007  -0.000174  -0.002713  -0.004562  -0.010515   0.001300
     9  H    0.000120   0.000336   0.003805   0.001235  -0.000110   0.000016
    10  O   -0.002082   0.007780   0.000032  -0.002346  -0.000123  -0.000056
    11  O   -0.000116  -0.000101   0.000188   0.008814  -0.011836  -0.004554
    12  C    0.249441   0.014937  -0.000439  -0.000330  -0.000001   0.000328
    13  C    5.048339  -0.000495   0.000016   0.000011   0.000000  -0.000011
    14  C   -0.000495   5.229623  -0.011624  -0.002543  -0.000092   0.000364
    15  O    0.000016  -0.011624   8.039523   0.384976  -0.026030  -0.027119
    16  Si   0.000011  -0.002543   0.384976  12.433805   0.328803   0.322025
    17  C    0.000000  -0.000092  -0.026030   0.328803   5.217640  -0.046310
    18  C   -0.000011   0.000364  -0.027119   0.322025  -0.046310   5.223608
    19  C    0.000000   0.000176  -0.018297   0.398385  -0.052105  -0.043103
    20  H    0.000000  -0.000006   0.001172  -0.020584   0.000536   0.377879
    21  H   -0.000025   0.000523   0.001366  -0.034963   0.002193   0.391333
    22  H    0.000004  -0.000560   0.000165  -0.042863   0.003509   0.392081
    23  H    0.000000  -0.000026   0.000501  -0.034940   0.000536   0.003109
    24  H    0.000000  -0.000014   0.001234  -0.043603   0.003829   0.003059
    25  H    0.000000  -0.000102   0.000455  -0.032257   0.003275   0.000492
    26  H    0.000000   0.000001  -0.000663  -0.042560   0.393695   0.003415
    27  H    0.000001  -0.000003   0.002231  -0.030602   0.385099   0.001599
    28  H    0.000000   0.000001   0.001189  -0.023733   0.378581   0.001534
    29  H    0.000054   0.426153   0.006990  -0.000499   0.000083  -0.000037
    30  H    0.000473   0.423523  -0.000216  -0.000152  -0.000001   0.000143
    31  H   -0.000238   0.410363   0.000852   0.000183   0.000004  -0.000032
    32  H   -0.034445  -0.006474   0.000001  -0.000030   0.000001   0.000088
    33  H   -0.029054   0.005396  -0.000018  -0.000007   0.000000  -0.000010
    34  H    0.421788  -0.000003   0.000000   0.000000   0.000000   0.000000
    35  H    0.424453  -0.000001   0.000000  -0.000004   0.000000  -0.000003
    36  H    0.407759  -0.000080   0.000000   0.000001   0.000000   0.000000
    37  C   -0.000037  -0.005620  -0.090212   0.007586   0.001256  -0.000935
    38  C   -0.000007  -0.001354   0.009959   0.000814  -0.001598   0.000172
    39  C    0.000000  -0.000361   0.002755  -0.000083   0.000061   0.000014
    40  H   -0.000004  -0.008699   0.004429  -0.000292   0.000020   0.000031
    41  H    0.000004   0.003425  -0.000920  -0.000871   0.000025   0.000093
    42  H    0.000000  -0.000096   0.004698  -0.001403  -0.000144   0.000163
    43  H    0.000000   0.000002   0.000003   0.000003   0.000000   0.000000
    44  H    0.000000   0.000001  -0.000019   0.000001  -0.000003   0.000000
              19         20         21         22         23         24
     1  C   -0.000178  -0.000011  -0.002388   0.000582   0.000001   0.000003
     2  C    0.001787   0.000468   0.004888  -0.002886  -0.000026  -0.000014
     3  C   -0.001807  -0.000763  -0.003994   0.000271  -0.000017   0.000005
     4  C   -0.000238   0.000330  -0.000818   0.001348   0.000069   0.000008
     5  C   -0.000225  -0.000203   0.008788  -0.001200   0.000007   0.000008
     6  H   -0.000002   0.000001   0.000010  -0.000011   0.000000   0.000000
     7  H   -0.000109   0.000684  -0.003772  -0.000210   0.000001  -0.000009
     8  H    0.000208  -0.000038   0.000008  -0.000043  -0.000006  -0.000004
     9  H    0.000019  -0.000001   0.000000   0.000001   0.000002   0.000000
    10  O   -0.000012   0.000019  -0.000799  -0.000064   0.000000   0.000000
    11  O    0.000051   0.000039   0.001585   0.000141   0.000001   0.000001
    12  C    0.000004   0.000001   0.000259  -0.000017   0.000000   0.000000
    13  C    0.000000   0.000000  -0.000025   0.000004   0.000000   0.000000
    14  C    0.000176  -0.000006   0.000523  -0.000560  -0.000026  -0.000014
    15  O   -0.018297   0.001172   0.001366   0.000165   0.000501   0.001234
    16  Si   0.398385  -0.020584  -0.034963  -0.042863  -0.034940  -0.043603
    17  C   -0.052105   0.000536   0.002193   0.003509   0.000536   0.003829
    18  C   -0.043103   0.377879   0.391333   0.392081   0.003109   0.003059
    19  C    5.113543   0.000547   0.002900   0.001406   0.392508   0.392337
    20  H    0.000547   0.496146  -0.012852  -0.014691  -0.000138   0.000289
    21  H    0.002900  -0.012852   0.482794  -0.018456  -0.000088  -0.000192
    22  H    0.001406  -0.014691  -0.018456   0.514050  -0.000188   0.000260
    23  H    0.392508  -0.000138  -0.000088  -0.000188   0.517429  -0.018883
    24  H    0.392337   0.000289  -0.000192   0.000260  -0.018883   0.527756
    25  H    0.389602   0.000254  -0.000130   0.001036  -0.018137  -0.019343
    26  H    0.002105  -0.000142  -0.000209  -0.000100   0.000864   0.000202
    27  H    0.002842   0.000262   0.000201  -0.000167  -0.000108  -0.000135
    28  H    0.001456   0.000204   0.000204  -0.000180   0.000297   0.000147
    29  H   -0.000137  -0.000003  -0.000030   0.000246   0.000006   0.000007
    30  H    0.000004   0.000001   0.000006   0.000039   0.000000   0.000000
    31  H   -0.000005   0.000000  -0.000005   0.000003   0.000000   0.000000
    32  H   -0.000001   0.000005   0.000026   0.000001   0.000000   0.000000
    33  H    0.000000   0.000000   0.000004  -0.000004   0.000000   0.000000
    34  H    0.000000   0.000000   0.000000   0.000000   0.000000   0.000000
    35  H    0.000000   0.000000   0.000006   0.000000   0.000000   0.000000
    36  H    0.000000   0.000000   0.000000   0.000000   0.000000   0.000000
    37  C   -0.000659   0.000021  -0.000185   0.000030   0.000075   0.000001
    38  C   -0.000107  -0.000003   0.000002   0.000000  -0.000127   0.000003
    39  C   -0.000011   0.000000   0.000000   0.000000   0.000009   0.000001
    40  H    0.000001   0.000000  -0.000003  -0.000001   0.000002   0.000000
    41  H   -0.000052  -0.000001  -0.000004   0.000000  -0.000023   0.000003
    42  H    0.000014  -0.000003  -0.000007  -0.000004   0.000568   0.000009
    43  H    0.000000   0.000000   0.000000   0.000000  -0.000001   0.000000
    44  H    0.000000   0.000000   0.000000   0.000000   0.000000   0.000000
              25         26         27         28         29         30
     1  C    0.000016  -0.000002   0.000071  -0.000014   0.015342  -0.016449
     2  C   -0.000265  -0.000168   0.000638   0.000069  -0.076764  -0.034841
     3  C    0.000490   0.004721  -0.005974   0.000201   0.026559   0.010930
     4  C    0.000047  -0.005615   0.003345  -0.000697   0.000946  -0.000592
     5  C    0.000022   0.000228  -0.000069   0.000205   0.000082  -0.000068
     6  H    0.000000   0.000000  -0.000014   0.000000  -0.000605   0.000228
     7  H    0.000080  -0.000003  -0.000140  -0.000019  -0.005086  -0.010139
     8  H   -0.000011   0.001229  -0.003845   0.000808  -0.000070   0.000008
     9  H    0.000000  -0.000036   0.000569   0.000002  -0.000008   0.000018
    10  O   -0.000001  -0.000004   0.000349   0.000002  -0.000265  -0.000005
    11  O    0.000000   0.000143   0.013203   0.000175   0.000002   0.000000
    12  C   -0.000001   0.000000   0.000004   0.000000  -0.000556   0.005903
    13  C    0.000000   0.000000   0.000001   0.000000   0.000054   0.000473
    14  C   -0.000102   0.000001  -0.000003   0.000001   0.426153   0.423523
    15  O    0.000455  -0.000663   0.002231   0.001189   0.006990  -0.000216
    16  Si  -0.032257  -0.042560  -0.030602  -0.023733  -0.000499  -0.000152
    17  C    0.003275   0.393695   0.385099   0.378581   0.000083  -0.000001
    18  C    0.000492   0.003415   0.001599   0.001534  -0.000037   0.000143
    19  C    0.389602   0.002105   0.002842   0.001456  -0.000137   0.000004
    20  H    0.000254  -0.000142   0.000262   0.000204  -0.000003   0.000001
    21  H   -0.000130  -0.000209   0.000201   0.000204  -0.000030   0.000006
    22  H    0.001036  -0.000100  -0.000167  -0.000180   0.000246   0.000039
    23  H   -0.018137   0.000864  -0.000108   0.000297   0.000006   0.000000
    24  H   -0.019343   0.000202  -0.000135   0.000147   0.000007   0.000000
    25  H    0.518664  -0.000183  -0.000093  -0.000132   0.000249  -0.000002
    26  H   -0.000183   0.511224  -0.019247  -0.014917  -0.000002   0.000000
    27  H   -0.000093  -0.019247   0.492380  -0.014447  -0.000001   0.000000
    28  H   -0.000132  -0.014917  -0.014447   0.504146  -0.000001   0.000000
    29  H    0.000249  -0.000002  -0.000001  -0.000001   0.486120  -0.018326
    30  H   -0.000002   0.000000   0.000000   0.000000  -0.018326   0.495128
    31  H    0.000003   0.000000   0.000000   0.000000  -0.022396  -0.023887
    32  H    0.000000   0.000000  -0.000001   0.000000  -0.000177  -0.000482
    33  H    0.000000   0.000000   0.000000   0.000000   0.000505  -0.007991
    34  H    0.000000   0.000000   0.000000   0.000000   0.000000   0.000007
    35  H    0.000000   0.000000   0.000000   0.000000   0.000001  -0.000042
    36  H    0.000000   0.000000   0.000000   0.000000  -0.000002  -0.000003
    37  C    0.000154  -0.000105  -0.000101  -0.000041  -0.016301  -0.000012
    38  C    0.000002  -0.000042   0.000056   0.000010  -0.000229   0.000057
    39  C    0.000000   0.000041   0.000006  -0.000001   0.000015   0.000003
    40  H   -0.000001   0.000005  -0.000005   0.000000   0.000911  -0.000076
    41  H   -0.000007   0.000002   0.000002  -0.000001  -0.000453   0.000682
    42  H   -0.000010   0.000830  -0.000011   0.000009   0.000027   0.000001
    43  H    0.000000  -0.000002  -0.000001   0.000000   0.000000   0.000000
    44  H    0.000000   0.000002   0.000000   0.000000  -0.000001   0.000000
              31         32         33         34         35         36
     1  C   -0.004064  -0.045751  -0.048624   0.014053  -0.018587   0.001768
     2  C   -0.014197   0.008778  -0.020256  -0.000973  -0.000363   0.001759
     3  C   -0.039297  -0.000391  -0.000843   0.000073  -0.000217  -0.000121
     4  C    0.000555   0.000509   0.000397  -0.000008   0.000738   0.000357
     5  C   -0.000228  -0.001320   0.000101   0.000052   0.000764  -0.000556
     6  H    0.002500   0.006710  -0.001655  -0.000124   0.001184   0.003017
     7  H    0.007919   0.000886   0.002187   0.000017   0.000252  -0.000042
     8  H    0.000021   0.000004  -0.000008   0.000000  -0.000007   0.000001
     9  H   -0.000132  -0.000030  -0.000010   0.000000  -0.000043  -0.000016
    10  O   -0.000090  -0.001150   0.004391   0.000297   0.008285  -0.000980
    11  O    0.000000  -0.000063   0.000012   0.000000   0.000232   0.000003
    12  C   -0.005498   0.419797   0.435859  -0.052749  -0.037617  -0.045287
    13  C   -0.000238  -0.034445  -0.029054   0.421788   0.424453   0.407759
    14  C    0.410363  -0.006474   0.005396  -0.000003  -0.000001  -0.000080
    15  O    0.000852   0.000001  -0.000018   0.000000   0.000000   0.000000
    16  Si   0.000183  -0.000030  -0.000007   0.000000  -0.000004   0.000001
    17  C    0.000004   0.000001   0.000000   0.000000   0.000000   0.000000
    18  C   -0.000032   0.000088  -0.000010   0.000000  -0.000003   0.000000
    19  C   -0.000005  -0.000001   0.000000   0.000000   0.000000   0.000000
    20  H    0.000000   0.000005   0.000000   0.000000   0.000000   0.000000
    21  H   -0.000005   0.000026   0.000004   0.000000   0.000006   0.000000
    22  H    0.000003   0.000001  -0.000004   0.000000   0.000000   0.000000
    23  H    0.000000   0.000000   0.000000   0.000000   0.000000   0.000000
    24  H    0.000000   0.000000   0.000000   0.000000   0.000000   0.000000
    25  H    0.000003   0.000000   0.000000   0.000000   0.000000   0.000000
    26  H    0.000000   0.000000   0.000000   0.000000   0.000000   0.000000
    27  H    0.000000  -0.000001   0.000000   0.000000   0.000000   0.000000
    28  H    0.000000   0.000000   0.000000   0.000000   0.000000   0.000000
    29  H   -0.022396  -0.000177   0.000505   0.000000   0.000001  -0.000002
    30  H   -0.023887  -0.000482  -0.007991   0.000007  -0.000042  -0.000003
    31  H    0.502902   0.000668  -0.001314   0.000003   0.000000   0.000046
    32  H    0.000668   0.518601  -0.025727  -0.003777  -0.003512   0.006174
    33  H   -0.001314  -0.025727   0.528403  -0.004278   0.006304  -0.004168
    34  H    0.000003  -0.003777  -0.004278   0.522641  -0.023186  -0.024513
    35  H    0.000000  -0.003512   0.006304  -0.023186   0.508470  -0.026329
    36  H    0.000046   0.006174  -0.004168  -0.024513  -0.026329   0.540995
    37  C    0.013113   0.000006  -0.000108   0.000003   0.000007  -0.000025
    38  C    0.000127   0.000003   0.000007   0.000000   0.000001   0.000002
    39  C    0.000006   0.000000  -0.000001   0.000000   0.000000   0.000000
    40  H    0.000126   0.000002   0.000028   0.000000  -0.000001   0.000015
    41  H   -0.007362  -0.000001  -0.000009   0.000000   0.000000   0.000000
    42  H    0.000008   0.000000   0.000000   0.000000   0.000000   0.000000
    43  H    0.000000   0.000000   0.000000   0.000000   0.000000   0.000000
    44  H    0.000006   0.000000   0.000000   0.000000   0.000000   0.000000
              37         38         39         40         41         42
     1  C   -0.006307  -0.003027   0.000051  -0.001908   0.003291   0.000021
     2  C   -0.040453   0.016645  -0.000042   0.011277  -0.023743   0.000185
     3  C    0.118112  -0.036329  -0.004432  -0.043162  -0.042495   0.008786
     4  C   -0.008427  -0.019830  -0.002614  -0.011270   0.005289  -0.004626
     5  C   -0.000452  -0.001504   0.000401  -0.000387   0.000152   0.000142
     6  H    0.001170  -0.000240   0.000068   0.001608  -0.000142  -0.000004
     7  H    0.011974  -0.000501  -0.000019   0.000269  -0.000947   0.000010
     8  H   -0.007891   0.000968   0.000264   0.000559  -0.000018   0.000782
     9  H   -0.004019   0.000052   0.001237  -0.002134   0.000842   0.000433
    10  O   -0.000340  -0.000251  -0.000008  -0.000071  -0.000016   0.000003
    11  O   -0.000153  -0.000265   0.000004  -0.000001   0.000009   0.000016
    12  C   -0.000026  -0.000016   0.000011   0.000659   0.000013   0.000005
    13  C   -0.000037  -0.000007   0.000000  -0.000004   0.000004   0.000000
    14  C   -0.005620  -0.001354  -0.000361  -0.008699   0.003425  -0.000096
    15  O   -0.090212   0.009959   0.002755   0.004429  -0.000920   0.004698
    16  Si   0.007586   0.000814  -0.000083  -0.000292  -0.000871  -0.001403
    17  C    0.001256  -0.001598   0.000061   0.000020   0.000025  -0.000144
    18  C   -0.000935   0.000172   0.000014   0.000031   0.000093   0.000163
    19  C   -0.000659  -0.000107  -0.000011   0.000001  -0.000052   0.000014
    20  H    0.000021  -0.000003   0.000000   0.000000  -0.000001  -0.000003
    21  H   -0.000185   0.000002   0.000000  -0.000003  -0.000004  -0.000007
    22  H    0.000030   0.000000   0.000000  -0.000001   0.000000  -0.000004
    23  H    0.000075  -0.000127   0.000009   0.000002  -0.000023   0.000568
    24  H    0.000001   0.000003   0.000001   0.000000   0.000003   0.000009
    25  H    0.000154   0.000002   0.000000  -0.000001  -0.000007  -0.000010
    26  H   -0.000105  -0.000042   0.000041   0.000005   0.000002   0.000830
    27  H   -0.000101   0.000056   0.000006  -0.000005   0.000002  -0.000011
    28  H   -0.000041   0.000010  -0.000001   0.000000  -0.000001   0.000009
    29  H   -0.016301  -0.000229   0.000015   0.000911  -0.000453   0.000027
    30  H   -0.000012   0.000057   0.000003  -0.000076   0.000682   0.000001
    31  H    0.013113   0.000127   0.000006   0.000126  -0.007362   0.000008
    32  H    0.000006   0.000003   0.000000   0.000002  -0.000001   0.000000
    33  H   -0.000108   0.000007  -0.000001   0.000028  -0.000009   0.000000
    34  H    0.000003   0.000000   0.000000   0.000000   0.000000   0.000000
    35  H    0.000007   0.000001   0.000000  -0.000001   0.000000   0.000000
    36  H   -0.000025   0.000002   0.000000   0.000015   0.000000   0.000000
    37  C    5.370497   0.243058  -0.050449   0.428215   0.442104  -0.047545
    38  C    0.243058   5.169738   0.539666  -0.042707  -0.035755   0.411274
    39  C   -0.050449   0.539666   5.005689   0.003011  -0.003713  -0.026615
    40  H    0.428215  -0.042707   0.003011   0.488603  -0.016200   0.003527
    41  H    0.442104  -0.035755  -0.003713  -0.016200   0.493307   0.000412
    42  H   -0.047545   0.411274  -0.026615   0.003527   0.000412   0.488901
    43  H    0.006887  -0.053787   0.427757   0.000243  -0.000293  -0.005906
    44  H    0.004523  -0.062691   0.428517  -0.000293   0.000654   0.004141
              43         44
     1  C   -0.000003   0.000011
     2  C    0.000023   0.000051
     3  C   -0.000235  -0.001178
     4  C    0.000024  -0.000413
     5  C    0.000000  -0.000039
     6  H   -0.000002   0.000048
     7  H    0.000000   0.000001
     8  H    0.000037   0.000092
     9  H   -0.000004   0.000165
    10  O    0.000000   0.000001
    11  O    0.000000   0.000000
    12  C    0.000000   0.000003
    13  C    0.000000   0.000000
    14  C    0.000002   0.000001
    15  O    0.000003  -0.000019
    16  Si   0.000003   0.000001
    17  C    0.000000  -0.000003
    18  C    0.000000   0.000000
    19  C    0.000000   0.000000
    20  H    0.000000   0.000000
    21  H    0.000000   0.000000
    22  H    0.000000   0.000000
    23  H   -0.000001   0.000000
    24  H    0.000000   0.000000
    25  H    0.000000   0.000000
    26  H   -0.000002   0.000002
    27  H   -0.000001   0.000000
    28  H    0.000000   0.000000
    29  H    0.000000  -0.000001
    30  H    0.000000   0.000000
    31  H    0.000000   0.000006
    32  H    0.000000   0.000000
    33  H    0.000000   0.000000
    34  H    0.000000   0.000000
    35  H    0.000000   0.000000
    36  H    0.000000   0.000000
    37  C    0.006887   0.004523
    38  C   -0.053787  -0.062691
    39  C    0.427757   0.428517
    40  H    0.000243  -0.000293
    41  H   -0.000293   0.000654
    42  H   -0.005906   0.004141
    43  H    0.501400  -0.023470
    44  H   -0.023470   0.509877
 Mulliken charges:
               1
     1  C   -0.004226
     2  C   -0.147087
     3  C    0.203481
     4  C   -0.464420
     5  C    0.340305
     6  H    0.173471
     7  H    0.189344
     8  H    0.223412
     9  H    0.221792
    10  O   -0.235085
    11  O   -0.365374
    12  C   -0.298938
    13  C   -0.441154
    14  C   -0.523887
    15  O   -0.383355
    16  Si   0.492743
    17  C   -0.581119
    18  C   -0.601926
    19  C   -0.582848
    20  H    0.170581
    21  H    0.181827
    22  H    0.166475
    23  H    0.156723
    24  H    0.153036
    25  H    0.155834
    26  H    0.165295
    27  H    0.172107
    28  H    0.164942
    29  H    0.177649
    30  H    0.176127
    31  H    0.179334
    32  H    0.161071
    33  H    0.160492
    34  H    0.150679
    35  H    0.159216
    36  H    0.140223
    37  C   -0.368392
    38  C   -0.132243
    39  C   -0.321238
    40  H    0.183672
    41  H    0.182718
    42  H    0.161411
    43  H    0.147326
    44  H    0.140011
 Sum of Mulliken charges =   0.00000
 Mulliken charges with hydrogens summed into heavy atoms:
               1
     1  C    0.169245
     2  C    0.042256
     3  C    0.203481
     4  C   -0.019217
     5  C    0.340305
    10  O   -0.235085
    11  O   -0.365374
    12  C    0.022624
    13  C    0.008964
    14  C    0.009222
    15  O   -0.383355
    16  Si   0.492743
    17  C   -0.078775
    18  C   -0.083043
    19  C   -0.117255
    37  C   -0.002002
    38  C    0.029167
    39  C   -0.033901
 Electronic spatial extent (au):  <R**2>=           5330.0551
 Charge=              0.0000 electrons
 Dipole moment (field-independent basis, Debye):
    X=             -1.0939    Y=              2.8111    Z=             -3.8968  Tot=              4.9279
 Quadrupole moment (field-independent basis, Debye-Ang):
   XX=           -112.6150   YY=           -121.1557   ZZ=           -129.5165
   XY=             -6.5628   XZ=              6.6079   YZ=             10.1392
 Traceless Quadrupole moment (field-independent basis, Debye-Ang):
   XX=              8.4807   YY=             -0.0599   ZZ=             -8.4208
   XY=             -6.5628   XZ=              6.6079   YZ=             10.1392
 Octapole moment (field-independent basis, Debye-Ang**2):
  XXX=            -18.4759  YYY=             -1.0508  ZZZ=            -31.6850  XYY=              2.1590
  XXY=             -2.7870  XXZ=             -3.5425  XZZ=             -3.7939  YZZ=             18.0298
  YYZ=              0.8520  XYZ=             -4.8663
 Hexadecapole moment (field-independent basis, Debye-Ang**3):
 XXXX=          -3760.4943 YYYY=          -2238.2923 ZZZZ=          -1380.0049 XXXY=              0.2939
 XXXZ=             50.4705 YYYX=            -35.2748 YYYZ=             57.7438 ZZZX=              2.3416
 ZZZY=             39.7643 XXYY=           -963.3693 XXZZ=           -873.6643 YYZZ=           -606.3577
 XXYZ=             18.4661 YYXZ=             22.6821 ZZXY=             -2.0506
 N-N= 1.637408371579D+03 E-N=-5.768247422566D+03  KE= 1.059311874951D+03
 1\1\GINC-CPU-E-68\SP\RM062X\def2TZVP\C14H26O3Si1\KE291\26-Jun-2019\0\\
 # m062x/def2tzvp int=ultrafine scrf=(solvent=chloroform)\\IP1_2ginp005
 \\0,1\C,0,-2.311951,-0.038101,-0.186586\C,0,-1.029159,0.034611,-1.0345
 88\C,0,0.095183,0.796286,-0.252621\C,0,-0.158452,0.65832,1.277022\C,0,
 -0.887212,-0.598778,1.683039\H,0,-2.605899,0.961617,0.164414\H,0,-0.68
 1831,-1.002417,-1.104863\H,0,0.773059,0.733931,1.834544\H,0,-0.787857,
 1.49695,1.599949\O,0,-2.017771,-0.858471,0.989066\O,0,-0.550852,-1.344
 734,2.580613\C,0,-3.51242,-0.696658,-0.860626\C,0,-4.7351,-0.816073,0.
 054905\C,0,-1.247351,0.53833,-2.466583\O,0,1.363762,0.269225,-0.635332
 \Si,0,2.307019,-1.079669,-0.268696\C,0,2.94958,-1.020913,1.503645\C,0,
 1.387071,-2.707327,-0.533536\C,0,3.733886,-0.946845,-1.486815\H,0,2.08
 2478,-3.540921,-0.377514\H,0,0.559231,-2.842683,0.16974\H,0,0.991812,-
 2.795343,-1.55109\H,0,4.279747,-0.006374,-1.358815\H,0,4.443934,-1.768
 657,-1.341755\H,0,3.377299,-0.990374,-2.521138\H,0,3.437344,-0.066154,
 1.727857\H,0,2.14886,-1.180158,2.232555\H,0,3.692494,-1.814129,1.64978
 \H,0,-0.288339,0.618163,-2.985553\H,0,-1.867572,-0.160897,-3.032447\H,
 0,-1.733597,1.518423,-2.498335\H,0,-3.212391,-1.687538,-1.223664\H,0,-
 3.77427,-0.100912,-1.7411\H,0,-5.571907,-1.273921,-0.480754\H,0,-4.514
 453,-1.430151,0.931328\H,0,-5.062619,0.168812,0.406628\C,0,0.147418,2.
 305201,-0.609699\C,0,1.139029,3.092482,0.201384\C,0,0.843618,4.169908,
 0.930337\H,0,-0.852278,2.741691,-0.497425\H,0,0.419712,2.377982,-1.668
 331\H,0,2.16816,2.73964,0.159256\H,0,1.605658,4.710447,1.48424\H,0,-0.
 171,4.557523,0.993802\\Version=ES64L-G09RevD.01\State=1-A\HF=-1064.341
 1558\RMSD=4.984e-09\Dipole=-0.4303906,1.1059853,-1.5331327\Quadrupole=
 6.305214,-0.0445529,-6.2606611,-4.8793149,4.9128046,7.5382566\PG=C01 [
 X(C14H26O3Si1)]\\@


 REFRAIN FROM ILLUSIONS, INSIST ON WORK AND NOT WORDS,
 PATIENTLY SEEK DIVINE AND SCIENTIFIC TRUTH.
 LAST WORDS OF MARIA MENDELEEVA TO HER SON DMITRI, C. 1850
 Job cpu time:       0 days  2 hours 13 minutes 12.7 seconds.
 File lengths (MBytes):  RWF=    408 Int=      0 D2E=      0 Chk=     21 Scr=      1
 Normal termination of Gaussian 09 at Wed Jun 26 13:52:29 2019.
