 Entering Gaussian System, Link 0=/usr/local/Cluster-Apps/gaussian/g09/g09
 Initial command:
 /usr/local/Cluster-Apps/gaussian/g09/l1.exe "/home/ke291/rds/hpc-work/26Jun1304IP1NMR/Gau-379081.inp" -scrdir="/home/ke291/rds/hpc-work/26Jun1304IP1NMR/"
 Entering Link 1 = /usr/local/Cluster-Apps/gaussian/g09/l1.exe PID=    379102.
  
 Copyright (c) 1988,1990,1992,1993,1995,1998,2003,2009,2013,
            Gaussian, Inc.  All Rights Reserved.
  
 This is part of the Gaussian(R) 09 program.  It is based on
 the Gaussian(R) 03 system (copyright 2003, Gaussian, Inc.),
 the Gaussian(R) 98 system (copyright 1998, Gaussian, Inc.),
 the Gaussian(R) 94 system (copyright 1995, Gaussian, Inc.),
 the Gaussian 92(TM) system (copyright 1992, Gaussian, Inc.),
 the Gaussian 90(TM) system (copyright 1990, Gaussian, Inc.),
 the Gaussian 88(TM) system (copyright 1988, Gaussian, Inc.),
 the Gaussian 86(TM) system (copyright 1986, Carnegie Mellon
 University), and the Gaussian 82(TM) system (copyright 1983,
 Carnegie Mellon University). Gaussian is a federally registered
 trademark of Gaussian, Inc.
  
 This software contains proprietary and confidential information,
 including trade secrets, belonging to Gaussian, Inc.
  
 This software is provided under written license and may be
 used, copied, transmitted, or stored only in accord with that
 written license.
  
 The following legend is applicable only to US Government
 contracts under FAR:
  
                    RESTRICTED RIGHTS LEGEND
  
 Use, reproduction and disclosure by the US Government is
 subject to restrictions as set forth in subparagraphs (a)
 and (c) of the Commercial Computer Software - Restricted
 Rights clause in FAR 52.227-19.
  
 Gaussian, Inc.
 340 Quinnipiac St., Bldg. 40, Wallingford CT 06492
  
  
 ---------------------------------------------------------------
 Warning -- This program may not be used in any manner that
 competes with the business of Gaussian, Inc. or will provide
 assistance to any competitor of Gaussian, Inc.  The licensee
 of this program is prohibited from giving any competitor of
 Gaussian, Inc. access to this program.  By using this program,
 the user acknowledges that Gaussian, Inc. is engaged in the
 business of creating and licensing software in the field of
 computational chemistry and represents and warrants to the
 licensee that it is not a competitor of Gaussian, Inc. and that
 it will not use this program in any manner prohibited above.
 ---------------------------------------------------------------
  

 Cite this work as:
 Gaussian 09, Revision D.01,
 M. J. Frisch, G. W. Trucks, H. B. Schlegel, G. E. Scuseria, 
 M. A. Robb, J. R. Cheeseman, G. Scalmani, V. Barone, B. Mennucci, 
 G. A. Petersson, H. Nakatsuji, M. Caricato, X. Li, H. P. Hratchian, 
 A. F. Izmaylov, J. Bloino, G. Zheng, J. L. Sonnenberg, M. Hada, 
 M. Ehara, K. Toyota, R. Fukuda, J. Hasegawa, M. Ishida, T. Nakajima, 
 Y. Honda, O. Kitao, H. Nakai, T. Vreven, J. A. Montgomery, Jr., 
 J. E. Peralta, F. Ogliaro, M. Bearpark, J. J. Heyd, E. Brothers, 
 K. N. Kudin, V. N. Staroverov, T. Keith, R. Kobayashi, J. Normand, 
 K. Raghavachari, A. Rendell, J. C. Burant, S. S. Iyengar, J. Tomasi, 
 M. Cossi, N. Rega, J. M. Millam, M. Klene, J. E. Knox, J. B. Cross, 
 V. Bakken, C. Adamo, J. Jaramillo, R. Gomperts, R. E. Stratmann, 
 O. Yazyev, A. J. Austin, R. Cammi, C. Pomelli, J. W. Ochterski, 
 R. L. Martin, K. Morokuma, V. G. Zakrzewski, G. A. Voth, 
 P. Salvador, J. J. Dannenberg, S. Dapprich, A. D. Daniels, 
 O. Farkas, J. B. Foresman, J. V. Ortiz, J. Cioslowski, 
 and D. J. Fox, Gaussian, Inc., Wallingford CT, 2013.
 
 ******************************************
 Gaussian 09:  ES64L-G09RevD.01 24-Apr-2013
                26-Jun-2019 
 ******************************************
 %nprocshared=5
 Will use up to    5 processors via shared memory.
 %mem=6000MB
 %chk=IP1_4ginp004.chk
 --------------------------------------------------------
 # m062x/def2tzvp int=ultrafine scrf=(solvent=chloroform)
 --------------------------------------------------------
 1/38=1/1;
 2/12=2,17=6,18=5,40=1/2;
 3/5=44,7=101,11=2,16=1,25=1,30=1,70=2201,72=7,74=-55,75=-5/1,2,3;
 4//1;
 5/5=2,38=5,53=7/2;
 6/7=2,8=2,9=2,10=2,28=1/1;
 99/5=1,9=1/99;
 ------------
 IP1_4ginp004
 ------------
 Symbolic Z-matrix:
 Charge =  0 Multiplicity = 1
 C                    -2.44328   0.00708   0.03072 
 C                    -1.13056   0.25532   0.78617 
 C                     0.06252  -0.10282  -0.14297 
 C                    -0.06468  -1.58896  -0.522 
 C                    -1.4593   -2.07066  -0.89215 
 H                    -2.47876   0.66439  -0.84508 
 H                    -1.07527   1.33453   0.96664 
 H                     0.59464  -1.86044  -1.3495 
 H                     0.24558  -2.19783   0.33451 
 O                    -2.53312  -1.36019  -0.48753 
 O                    -1.64003  -3.11589  -1.48217 
 C                    -3.73212   0.21939   0.8252 
 C                    -3.92814   1.66574   1.29115 
 C                    -1.07012  -0.46452   2.14334 
 O                     1.25179   0.11818   0.61148 
 Si                    2.90892  -0.00902   0.33891 
 C                     3.63398  -0.19434   2.06449 
 C                     3.36994  -1.49829  -0.72641 
 C                     3.58533   1.56009  -0.46263 
 H                     4.46234  -1.56909  -0.78966 
 H                     3.0027   -2.43774  -0.30132 
 H                     2.99119  -1.41844  -1.75079 
 H                     4.67778   1.49863  -0.53323 
 H                     3.19948   1.71823  -1.47467 
 H                     3.34308   2.44763   0.13169 
 H                     4.72834  -0.23342   2.02726 
 H                     3.35139   0.64977   2.70227 
 H                     3.28128  -1.1116    2.54741 
 H                    -1.78244  -0.02501   2.84654 
 H                    -1.30979  -1.52935   2.05964 
 H                    -0.0717   -0.37077   2.57209 
 H                    -3.75452  -0.46542   1.67935 
 H                    -4.56238  -0.07237   0.17262 
 H                    -4.9052    1.78166   1.76885 
 H                    -3.16835   1.97085   2.0175 
 H                    -3.88403   2.36547   0.44943 
 C                     0.08687   0.76301  -1.43405 
 C                     0.04313   2.24858  -1.20244 
 C                    -0.78732   3.08995  -1.82134 
 H                    -0.72921   0.46899  -2.10332 
 H                     1.01156   0.50022  -1.9662 
 H                     0.75909   2.64164  -0.48282 
 H                    -0.76344   4.1585   -1.62872 
 H                    -1.5149    2.7431   -2.55199 
 
                          Input orientation:                          
 ---------------------------------------------------------------------
 Center     Atomic      Atomic             Coordinates (Angstroms)
 Number     Number       Type             X           Y           Z
 ---------------------------------------------------------------------
      1          6           0       -2.443277    0.007076    0.030721
      2          6           0       -1.130563    0.255321    0.786170
      3          6           0        0.062517   -0.102815   -0.142973
      4          6           0       -0.064678   -1.588958   -0.521998
      5          6           0       -1.459300   -2.070657   -0.892150
      6          1           0       -2.478759    0.664389   -0.845076
      7          1           0       -1.075275    1.334530    0.966641
      8          1           0        0.594638   -1.860444   -1.349500
      9          1           0        0.245581   -2.197831    0.334513
     10          8           0       -2.533115   -1.360193   -0.487533
     11          8           0       -1.640034   -3.115891   -1.482165
     12          6           0       -3.732116    0.219389    0.825201
     13          6           0       -3.928137    1.665741    1.291150
     14          6           0       -1.070117   -0.464524    2.143343
     15          8           0        1.251789    0.118179    0.611482
     16         14           0        2.908920   -0.009015    0.338908
     17          6           0        3.633983   -0.194344    2.064489
     18          6           0        3.369937   -1.498294   -0.726413
     19          6           0        3.585327    1.560087   -0.462626
     20          1           0        4.462336   -1.569090   -0.789655
     21          1           0        3.002699   -2.437737   -0.301320
     22          1           0        2.991193   -1.418439   -1.750790
     23          1           0        4.677779    1.498628   -0.533233
     24          1           0        3.199477    1.718233   -1.474673
     25          1           0        3.343078    2.447627    0.131685
     26          1           0        4.728344   -0.233422    2.027256
     27          1           0        3.351392    0.649772    2.702272
     28          1           0        3.281277   -1.111598    2.547414
     29          1           0       -1.782437   -0.025014    2.846537
     30          1           0       -1.309793   -1.529348    2.059635
     31          1           0       -0.071703   -0.370773    2.572086
     32          1           0       -3.754518   -0.465418    1.679353
     33          1           0       -4.562380   -0.072368    0.172619
     34          1           0       -4.905200    1.781663    1.768850
     35          1           0       -3.168350    1.970852    2.017500
     36          1           0       -3.884033    2.365467    0.449434
     37          6           0        0.086865    0.763008   -1.434046
     38          6           0        0.043134    2.248580   -1.202445
     39          6           0       -0.787318    3.089945   -1.821335
     40          1           0       -0.729208    0.468986   -2.103319
     41          1           0        1.011563    0.500217   -1.966201
     42          1           0        0.759089    2.641637   -0.482823
     43          1           0       -0.763437    4.158497   -1.628716
     44          1           0       -1.514895    2.743103   -2.551992
 ---------------------------------------------------------------------
                    Distance matrix (angstroms):
                    1          2          3          4          5
     1  C    0.000000
     2  C    1.534779   0.000000
     3  C    2.514209   1.554030   0.000000
     4  C    2.917286   2.499756   1.538980   0.000000
     5  C    2.477272   2.887040   2.597998   1.521189   0.000000
     6  H    1.095600   2.155443   2.745839   3.318093   2.919245
     7  H    2.123561   1.095591   2.142843   3.432803   3.898446
     8  H    3.823816   3.466102   2.197298   1.092319   2.114715
     9  H    3.490539   2.848810   2.156524   1.095718   2.104161
    10  O    1.464951   2.489851   2.904656   2.479254   1.349649
    11  O    3.561874   4.095116   3.710895   2.394826   1.213794
    12  C    1.528850   2.602094   3.929429   4.305249   3.655037
    13  C    2.558253   3.173438   4.594542   5.367205   4.982231
    14  C    2.563425   1.537449   2.577001   3.062565   3.456204
    15  O    3.742077   2.392682   1.425626   2.435606   3.794986
    16  Si   5.361087   4.072756   2.888428   3.475581   4.984698
    17  C    6.411698   4.953503   4.199599   4.723871   6.180922
    18  C    6.052508   5.061381   3.636866   3.441887   4.865860
    19  C    6.244942   5.049903   3.908659   4.821052   6.230173
    20  H    7.130554   6.090338   4.682581   4.534963   5.943723
    21  H    5.978797   5.051638   3.757872   3.190286   4.515890
    22  H    5.894009   5.121183   3.590694   3.298083   4.579251
    23  H    7.297411   6.084692   4.900772   5.658994   7.108611
    24  H    6.085634   5.099095   3.863956   4.743396   6.033177
    25  H    6.280795   5.024741   4.164405   5.322980   6.672778
    26  H    7.448231   6.008823   5.147513   5.595465   7.084159
    27  H    6.413145   4.890292   4.413446   5.203591   6.592675
    28  H    6.352613   4.943155   4.314654   4.565586   5.934936
    29  H    2.892500   2.179137   3.513841   4.091900   4.273974
    30  H    2.786014   2.199745   2.961370   2.866826   3.004730
    31  H    3.496522   2.168565   2.731549   3.325264   4.100727
    32  H    2.158840   2.863980   4.245245   4.441082   3.802295
    33  H    2.125334   3.501599   4.635752   4.797068   3.841354
    34  H    3.497330   4.188468   5.646639   6.327695   5.813391
    35  H    2.886077   2.934586   4.405251   5.362283   5.265046
    36  H    2.795193   3.485356   4.692400   5.582887   5.230523
    37  C    3.019701   2.582486   1.554706   2.527161   3.273215
    38  C    3.567531   3.050448   2.579131   3.898888   4.583601
    39  C    3.959342   3.866781   3.705784   4.909442   5.286469
    40  H    2.775882   2.925044   2.190146   2.679050   2.906846
    41  H    4.020797   3.496316   2.142078   2.758382   3.723996
    42  H    4.178491   3.297822   2.851794   4.310227   5.224415
    43  H    4.775970   4.604480   4.587855   5.894602   6.311031
    44  H    3.875325   4.180920   4.048562   4.999076   5.092195
                    6          7          8          9         10
     6  H    0.000000
     7  H    2.387713   0.000000
     8  H    4.009363   4.284971   0.000000
     9  H    4.123804   3.823849   1.752590   0.000000
    10  O    2.056629   3.391379   3.282694   3.016380   0.000000
    11  O    3.924265   5.110954   2.566614   2.774653   2.206663
    12  C    2.135124   2.884848   5.270278   4.680363   2.378225
    13  C    2.768910   2.890299   6.313676   5.767345   3.777046
    14  C    3.491327   2.149709   4.113387   2.829714   3.140716
    15  O    4.041892   2.649693   2.862210   2.540289   4.209384
    16  Si   5.557191   4.251232   3.410925   3.447363   5.667842
    17  C    6.824119   5.071473   4.865062   4.299773   6.775332
    18  C    6.236868   5.536356   2.867346   3.372909   5.909497
    19  C    6.141798   4.880050   4.629341   5.090313   6.779675
    20  H    7.291797   6.494669   3.918852   4.409092   7.005087
    21  H    6.321807   5.698034   2.688997   2.839637   5.642784
    22  H    5.922741   5.612435   2.469793   3.534731   5.667203
    23  H    7.211743   5.947620   5.349925   5.836195   7.757057
    24  H    5.809419   4.937686   4.428068   5.228213   6.581319
    25  H    6.166667   4.632276   5.320461   5.587120   7.029407
    26  H    7.810166   6.104537   5.580072   5.178749   7.766760
    27  H    6.824555   4.803820   5.506154   4.833341   6.988722
    28  H    6.916728   5.240413   4.792154   3.910535   6.563525
    29  H    3.819443   2.425376   5.160040   3.891562   3.669093
    30  H    3.823128   3.074318   3.919016   2.417044   2.830759
    31  H    4.306097   2.548072   4.247584   2.906122   4.049539
    32  H    3.045778   3.305467   5.480438   4.561868   2.643453
    33  H    2.433103   3.843141   5.666471   5.259305   2.492431
    34  H    3.737449   3.938501   7.296387   6.665151   4.537545
    35  H    3.221292   2.426968   6.338422   5.644935   4.215990
    36  H    2.558167   3.036356   6.415059   6.155535   4.072276
    37  C    2.634205   2.727729   2.673477   3.452471   3.502594
    38  C    2.999553   2.606005   4.148477   4.708906   4.491258
    39  C    3.114061   3.307145   5.161277   5.803028   4.962919
    40  H    2.163859   3.208361   2.783353   3.742346   3.034920
    41  H    3.669635   3.694933   2.475251   3.627599   4.267590
    42  H    3.811089   2.678501   4.587691   4.934793   5.182014
    43  H    3.970543   3.848105   6.176567   6.728692   5.906776
    44  H    2.857210   3.815511   5.204686   5.986987   4.704870
                   11         12         13         14         15
    11  O    0.000000
    12  C    4.563424   0.000000
    13  C    5.982533   1.532145   0.000000
    14  C    4.527567   3.048192   3.665043   0.000000
    15  O    4.817178   4.989512   5.448718   2.842075   0.000000
    16  Si   5.801893   6.662733   7.103304   4.392745   1.684208
    17  C    6.994959   7.481071   7.825831   4.712512   2.807801
    18  C    5.318608   7.469745   8.206312   5.386860   2.981526
    19  C    7.085805   7.549897   7.716154   5.706425   2.945880
    20  H    6.333331   8.541397   9.230055   6.358505   3.888145
    21  H    4.838311   7.327148   8.210419   5.143712   3.229799
    22  H    4.939814   7.383840   8.163498   5.706879   3.311654
    23  H    7.880928   8.614414   8.798755   6.637495   3.866965
    24  H    6.840298   7.455396   7.645614   6.006988   3.271957
    25  H    7.641247   7.450126   7.404477   5.657180   3.167021
    26  H    7.821822   8.557415   8.892881   5.804226   3.770209
    27  H    7.523567   7.340621   7.484317   4.593887   3.010370
    28  H    6.668883   7.343380   7.827353   4.417761   3.062516
    29  H    5.320851   2.819003   3.143550   1.093184   3.771273
    30  H    3.894936   3.232577   4.201772   1.094670   3.372417
    31  H    5.141234   4.098600   4.545357   1.090615   2.415507
    32  H    4.635865   1.095006   2.173174   2.724206   5.152091
    33  H    4.532267   1.095593   2.162036   4.029074   5.833821
    34  H    6.724317   2.169631   1.093749   4.460209   6.481913
    35  H    6.360689   2.192494   1.094511   3.217060   4.994688
    36  H    6.229919   2.184017   1.095467   4.335470   5.608318
    37  C    4.246216   4.470384   4.935774   3.955143   2.440704
    38  C    5.629285   4.741464   4.725327   4.449108   3.047915
    39  C    6.273321   4.890407   4.645499   5.332251   4.348327
    40  H    3.750571   4.201902   4.815370   4.361399   3.378988
    41  H    4.510155   5.511196   6.030706   4.706641   2.616890
    42  H    6.316930   5.267745   5.105824   4.459930   2.794297
    43  H    7.328480   5.509205   4.975417   5.974513   5.040218
    44  H    5.957181   4.763469   4.664138   5.703759   4.955031
                   16         17         18         19         20
    16  Si   0.000000
    17  C    1.880876   0.000000
    18  C    1.888226   3.091786   0.000000
    19  C    1.887343   3.076801   3.077283   0.000000
    20  H    2.473983   3.274482   1.096516   3.266166   0.000000
    21  H    2.513439   3.320901   1.094587   4.043275   1.767359
    22  H    2.521920   4.058071   1.095067   3.299088   1.763728
    23  H    2.482434   3.271670   3.275563   1.096455   3.085946
    24  H    2.521286   4.046284   3.306810   1.094591   3.587556
    25  H    2.503303   3.286391   4.038236   1.095270   4.270319
    26  H    2.492224   1.095691   3.320823   3.274550   3.128859
    27  H    2.493045   1.095060   4.046037   3.301512   4.283818
    28  H    2.496365   1.094976   3.297778   4.036172   3.569346
    29  H    5.319520   5.475206   6.440767   6.501999   7.389401
    30  H    4.803109   5.120857   5.446366   6.314159   6.437197
    31  H    3.741933   3.744448   4.898600   5.129480   5.770163
    32  H    6.812232   7.403496   7.590283   7.909745   8.650479
    33  H    7.473419   8.412753   8.109450   8.333881   9.198459
    34  H    8.143202   8.769815   9.244585   8.781664  10.272498
    35  H    6.608385   7.138769   7.893873   7.206380   8.867845
    36  H    7.196846   8.104419   8.302490   7.567815   9.310100
    37  C    3.421020   5.073294   4.048801   3.717288   4.999867
    38  C    3.960459   5.434605   5.033219   3.683543   5.854430
    39  C    5.285109   6.740481   6.287572   4.827689   7.094353
    40  H    4.407826   6.070261   4.750689   4.743162   5.729886
    41  H    3.028664   4.858597   3.330623   3.163593   4.192151
    42  H    3.510409   4.774579   4.900499   3.026182   5.615907
    43  H    5.892869   7.205851   7.063867   5.198389   7.798588
    44  H    5.958322   7.513417   6.721887   5.637131   7.578135
                   21         22         23         24         25
    21  H    0.000000
    22  H    1.772023   0.000000
    23  H    4.284232   3.582778   0.000000
    24  H    4.322912   3.155683   1.766327   0.000000
    25  H    4.916313   4.314395   1.767524   1.770035   0.000000
    26  H    3.641308   4.323840   3.091708   4.290676   3.563730
    27  H    4.321558   4.923109   3.598382   4.314111   3.136920
    28  H    3.154605   4.318895   4.272456   4.918518   4.302052
    29  H    6.215124   6.772340   7.448404   6.821381   6.305179
    30  H    4.999687   5.747184   7.193234   6.585714   6.417362
    31  H    4.688363   5.400573   5.974550   5.607212   5.055657
    32  H    7.312530   7.627499   8.936255   7.941930   7.826684
    33  H    7.940404   7.909986   9.399298   8.134264   8.297489
    34  H    9.199120   9.218543   9.859675   8.729848   8.435515
    35  H    7.930601   7.976671   8.263835   7.266933   6.795757
    36  H    8.429797   8.150317   8.661505   7.368664   7.234559
    37  C    4.475480   3.646116   4.735936   3.256142   3.986525
    38  C    5.615391   4.736957   4.742384   3.212145   3.564990
    39  C    6.872404   5.882827   5.835990   4.230402   4.613787
    40  H    5.061953   4.186649   5.723709   4.170177   5.049136
    41  H    3.920207   2.765245   4.060956   2.551888   3.691814
    42  H    5.555787   4.803566   4.082296   2.791404   2.663130
    43  H    7.710776   6.724163   6.154821   4.656534   4.784303
    44  H    7.232930   6.185886   6.631238   4.943306   5.557817
                   26         27         28         29         30
    26  H    0.000000
    27  H    1.769654   0.000000
    28  H    1.770808   1.769554   0.000000
    29  H    6.565434   5.179995   5.187614   0.000000
    30  H    6.175724   5.185383   4.635770   1.762279   0.000000
    31  H    4.832821   3.574359   3.433934   1.766772   1.771375
    32  H    8.493162   7.265258   7.118531   2.333533   2.693184
    33  H    9.475398   8.339569   8.260908   3.857481   4.032734
    34  H    9.845431   8.385927   8.717541   3.765254   4.896356
    35  H    8.198579   6.687391   7.167984   2.567399   3.963257
    36  H    9.133279   7.769830   8.236089   3.984621   4.938526
    37  C    5.875101   5.270587   5.437871   4.736946   4.405832
    38  C    6.208260   5.361676   5.986469   4.989609   5.171491
    39  C    7.501930   6.598968   7.300164   5.699321   6.055805
    40  H    6.880400   6.306955   6.341258   5.084722   4.654095
    41  H    5.504579   5.224156   5.303043   5.589700   5.071014
    42  H    5.506491   4.564251   5.443394   4.965382   5.304855
    43  H    7.925575   6.928234   7.846889   6.210315   6.801031
    44  H    8.295013   7.461238   7.991616   6.072740   6.289913
                   31         32         33         34         35
    31  H    0.000000
    32  H    3.790654   0.000000
    33  H    5.100261   1.754245   0.000000
    34  H    5.351716   2.526154   2.470407   0.000000
    35  H    3.921734   2.528507   3.085718   1.764729   0.000000
    36  H    5.150390   3.089237   2.545549   1.767616   1.768263
    37  C    4.166497   5.094949   4.989459   6.018049   4.895762
    38  C    4.595790   5.485682   5.337449   5.790735   4.556184
    39  C    5.638335   5.805144   5.312925   5.617649   4.653852
    40  H    4.795510   4.932973   4.490675   5.844290   5.018582
    41  H    4.746382   6.077668   5.997603   7.113424   5.958550
    42  H    4.370046   5.890793   6.009448   6.155790   4.703865
    43  H    6.216070   6.424210   5.964645   5.860631   4.885109
    44  H    6.167269   5.763228   4.963622   5.575680   4.920421
                   36         37         38         39         40
    36  H    0.000000
    37  C    4.677970   0.000000
    38  C    4.262043   1.504153   0.000000
    39  C    3.907800   2.515716   1.334380   0.000000
    40  H    4.479521   1.095605   2.138935   2.636725   0.000000
    41  H    5.768996   1.098779   2.139615   3.156525   1.746442
    42  H    4.743833   2.210420   1.088550   2.093793   3.092159
    43  H    4.155934   3.505746   2.116612   1.086037   3.720069
    44  H    3.842393   2.781405   2.119737   1.087900   2.447493
                   41         42         43         44
    41  H    0.000000
    42  H    2.617219   0.000000
    43  H    4.080139   2.435574   0.000000
    44  H    3.428801   3.076160   1.849451   0.000000
 Stoichiometry    C14H26O3Si
 Framework group  C1[X(C14H26O3Si)]
 Deg. of freedom   126
 Full point group                 C1      NOp   1
 Largest Abelian subgroup         C1      NOp   1
 Largest concise Abelian subgroup C1      NOp   1
                         Standard orientation:                         
 ---------------------------------------------------------------------
 Center     Atomic      Atomic             Coordinates (Angstroms)
 Number     Number       Type             X           Y           Z
 ---------------------------------------------------------------------
      1          6           0       -2.443277    0.007076    0.030721
      2          6           0       -1.130563    0.255321    0.786170
      3          6           0        0.062517   -0.102815   -0.142973
      4          6           0       -0.064678   -1.588958   -0.521998
      5          6           0       -1.459300   -2.070657   -0.892150
      6          1           0       -2.478759    0.664389   -0.845076
      7          1           0       -1.075275    1.334530    0.966641
      8          1           0        0.594638   -1.860444   -1.349500
      9          1           0        0.245581   -2.197831    0.334513
     10          8           0       -2.533115   -1.360193   -0.487533
     11          8           0       -1.640034   -3.115891   -1.482165
     12          6           0       -3.732116    0.219389    0.825201
     13          6           0       -3.928137    1.665741    1.291150
     14          6           0       -1.070117   -0.464524    2.143343
     15          8           0        1.251789    0.118179    0.611482
     16         14           0        2.908920   -0.009015    0.338908
     17          6           0        3.633983   -0.194344    2.064489
     18          6           0        3.369937   -1.498294   -0.726413
     19          6           0        3.585327    1.560087   -0.462626
     20          1           0        4.462336   -1.569090   -0.789655
     21          1           0        3.002699   -2.437737   -0.301320
     22          1           0        2.991193   -1.418439   -1.750790
     23          1           0        4.677779    1.498628   -0.533233
     24          1           0        3.199477    1.718233   -1.474673
     25          1           0        3.343078    2.447627    0.131685
     26          1           0        4.728344   -0.233422    2.027256
     27          1           0        3.351392    0.649772    2.702272
     28          1           0        3.281277   -1.111598    2.547414
     29          1           0       -1.782437   -0.025014    2.846537
     30          1           0       -1.309793   -1.529348    2.059635
     31          1           0       -0.071703   -0.370773    2.572086
     32          1           0       -3.754518   -0.465418    1.679353
     33          1           0       -4.562380   -0.072368    0.172619
     34          1           0       -4.905200    1.781663    1.768850
     35          1           0       -3.168350    1.970852    2.017500
     36          1           0       -3.884033    2.365467    0.449434
     37          6           0        0.086865    0.763008   -1.434046
     38          6           0        0.043134    2.248580   -1.202445
     39          6           0       -0.787318    3.089945   -1.821335
     40          1           0       -0.729208    0.468986   -2.103319
     41          1           0        1.011563    0.500217   -1.966201
     42          1           0        0.759089    2.641637   -0.482823
     43          1           0       -0.763437    4.158497   -1.628716
     44          1           0       -1.514895    2.743103   -2.551992
 ---------------------------------------------------------------------
 Rotational constants (GHZ):      0.5092654      0.2603734      0.2300412
 Standard basis: def2TZVP (5D, 7F)
 There are   810 symmetry adapted cartesian basis functions of A   symmetry.
 There are   720 symmetry adapted basis functions of A   symmetry.
   720 basis functions,  1144 primitive gaussians,   810 cartesian basis functions
    74 alpha electrons       74 beta electrons
       nuclear repulsion energy      1625.9907958906 Hartrees.
 NAtoms=   44 NActive=   44 NUniq=   44 SFac= 1.00D+00 NAtFMM=   60 NAOKFM=F Big=F
 Integral buffers will be    131072 words long.
 Raffenetti 2 integral format.
 Two-electron integral symmetry is turned on.
 ------------------------------------------------------------------------------
 Polarizable Continuum Model (PCM)
 =================================
 Model                : PCM (using non-symmetric T matrix).
 Atomic radii         : UFF (Universal Force Field).
 Polarization charges : Total charges.
 Charge compensation  : None.
 Solution method      : On-the-fly selection.
 Cavity type          : Scaled VdW (van der Waals Surface) (Alpha=1.100).
 Cavity algorithm     : GePol (No added spheres)
                        Default sphere list used, NSphG=   44.
                        Lebedev-Laikov grids with approx.  5.0 points / Ang**2.
                        Smoothing algorithm: Karplus/York (Gamma=1.0000).
                        Polarization charges: spherical gaussians, with
                                              point-specific exponents (IZeta= 3).
                        Self-potential: point-specific (ISelfS= 7).
                        Self-field    : sphere-specific E.n sum rule (ISelfD= 2).
 Solvent              : Chloroform, Eps=   4.711300 Eps(inf)=   2.090627
 ------------------------------------------------------------------------------
 One-electron integrals computed using PRISM.
   1 Symmetry operations used in ECPInt.
 ECPInt:  NShTT=   46360 NPrTT=  137514 LenC2=   42120 LenP2D=   90336.
 LDataN:  DoStor=T MaxTD1= 6 Len=  172
 NBasis=   720 RedAO= T EigKep=  4.35D-05  NBF=   720
 NBsUse=   720 1.00D-06 EigRej= -1.00D+00 NBFU=   720
 ExpMin= 7.01D-02 ExpMax= 4.48D+04 ExpMxC= 1.53D+03 IAcc=3 IRadAn=         5 AccDes= 0.00D+00
 Harris functional with IExCor= 1009 and IRadAn=       5 diagonalized for initial guess.
 HarFok:  IExCor= 1009 AccDes= 0.00D+00 IRadAn=         5 IDoV= 1 UseB2=F ITyADJ=14
 ICtDFT=  3500011 ScaDFX=  1.000000  1.000000  1.000000  1.000000
 FoFCou: FMM=F IPFlag=           0 FMFlag=      100000 FMFlg1=           0
         NFxFlg=           0 DoJE=T BraDBF=F KetDBF=T FulRan=T
         wScrn=  0.000000 ICntrl=     500 IOpCl=  0 I1Cent=   200000004 NGrid=           0
         NMat0=    1 NMatS0=      1 NMatT0=    0 NMatD0=    1 NMtDS0=    0 NMtDT0=    0
 Petite list used in FoFCou.
 Requested convergence on RMS density matrix=1.00D-08 within 128 cycles.
 Requested convergence on MAX density matrix=1.00D-06.
 Requested convergence on             energy=1.00D-06.
 No special actions if energy rises.
 Inv3:  Mode=1 IEnd=    24316227.
 Iteration    1 A*A^-1 deviation from unit magnitude is 6.88D-15 for   2830.
 Iteration    1 A*A^-1 deviation from orthogonality  is 6.36D-15 for   2841   1683.
 Iteration    1 A^-1*A deviation from unit magnitude is 6.66D-15 for   2830.
 Iteration    1 A^-1*A deviation from orthogonality  is 3.54D-13 for   2712   2658.
 Error on total polarization charges =  0.01452
 SCF Done:  E(RM062X) =  -1064.34204496     A.U. after   14 cycles
            NFock= 14  Conv=0.16D-08     -V/T= 2.0048

 **********************************************************************

            Population analysis using the SCF density.

 **********************************************************************

 Orbital symmetries:
       Occupied  (A) (A) (A) (A) (A) (A) (A) (A) (A) (A) (A) (A)
                 (A) (A) (A) (A) (A) (A) (A) (A) (A) (A) (A) (A)
                 (A) (A) (A) (A) (A) (A) (A) (A) (A) (A) (A) (A)
                 (A) (A) (A) (A) (A) (A) (A) (A) (A) (A) (A) (A)
                 (A) (A) (A) (A) (A) (A) (A) (A) (A) (A) (A) (A)
                 (A) (A) (A) (A) (A) (A) (A) (A) (A) (A) (A) (A)
                 (A) (A)
       Virtual   (A) (A) (A) (A) (A) (A) (A) (A) (A) (A) (A) (A)
                 (A) (A) (A) (A) (A) (A) (A) (A) (A) (A) (A) (A)
                 (A) (A) (A) (A) (A) (A) (A) (A) (A) (A) (A) (A)
                 (A) (A) (A) (A) (A) (A) (A) (A) (A) (A) (A) (A)
                 (A) (A) (A) (A) (A) (A) (A) (A) (A) (A) (A) (A)
                 (A) (A) (A) (A) (A) (A) (A) (A) (A) (A) (A) (A)
                 (A) (A) (A) (A) (A) (A) (A) (A) (A) (A) (A) (A)
                 (A) (A) (A) (A) (A) (A) (A) (A) (A) (A) (A) (A)
                 (A) (A) (A) (A) (A) (A) (A) (A) (A) (A) (A) (A)
                 (A) (A) (A) (A) (A) (A) (A) (A) (A) (A) (A) (A)
                 (A) (A) (A) (A) (A) (A) (A) (A) (A) (A) (A) (A)
                 (A) (A) (A) (A) (A) (A) (A) (A) (A) (A) (A) (A)
                 (A) (A) (A) (A) (A) (A) (A) (A) (A) (A) (A) (A)
                 (A) (A) (A) (A) (A) (A) (A) (A) (A) (A) (A) (A)
                 (A) (A) (A) (A) (A) (A) (A) (A) (A) (A) (A) (A)
                 (A) (A) (A) (A) (A) (A) (A) (A) (A) (A) (A) (A)
                 (A) (A) (A) (A) (A) (A) (A) (A) (A) (A) (A) (A)
                 (A) (A) (A) (A) (A) (A) (A) (A) (A) (A) (A) (A)
                 (A) (A) (A) (A) (A) (A) (A) (A) (A) (A) (A) (A)
                 (A) (A) (A) (A) (A) (A) (A) (A) (A) (A) (A) (A)
                 (A) (A) (A) (A) (A) (A) (A) (A) (A) (A) (A) (A)
                 (A) (A) (A) (A) (A) (A) (A) (A) (A) (A) (A) (A)
                 (A) (A) (A) (A) (A) (A) (A) (A) (A) (A) (A) (A)
                 (A) (A) (A) (A) (A) (A) (A) (A) (A) (A) (A) (A)
                 (A) (A) (A) (A) (A) (A) (A) (A) (A) (A) (A) (A)
                 (A) (A) (A) (A) (A) (A) (A) (A) (A) (A) (A) (A)
                 (A) (A) (A) (A) (A) (A) (A) (A) (A) (A) (A) (A)
                 (A) (A) (A) (A) (A) (A) (A) (A) (A) (A) (A) (A)
                 (A) (A) (A) (A) (A) (A) (A) (A) (A) (A) (A) (A)
                 (A) (A) (A) (A) (A) (A) (A) (A) (A) (A) (A) (A)
                 (A) (A) (A) (A) (A) (A) (A) (A) (A) (A) (A) (A)
                 (A) (A) (A) (A) (A) (A) (A) (A) (A) (A) (A) (A)
                 (A) (A) (A) (A) (A) (A) (A) (A) (A) (A) (A) (A)
                 (A) (A) (A) (A) (A) (A) (A) (A) (A) (A) (A) (A)
                 (A) (A) (A) (A) (A) (A) (A) (A) (A) (A) (A) (A)
                 (A) (A) (A) (A) (A) (A) (A) (A) (A) (A) (A) (A)
                 (A) (A) (A) (A) (A) (A) (A) (A) (A) (A) (A) (A)
                 (A) (A) (A) (A) (A) (A) (A) (A) (A) (A) (A) (A)
                 (A) (A) (A) (A) (A) (A) (A) (A) (A) (A) (A) (A)
                 (A) (A) (A) (A) (A) (A) (A) (A) (A) (A) (A) (A)
                 (A) (A) (A) (A) (A) (A) (A) (A) (A) (A) (A) (A)
                 (A) (A) (A) (A) (A) (A) (A) (A) (A) (A) (A) (A)
                 (A) (A) (A) (A) (A) (A) (A) (A) (A) (A) (A) (A)
                 (A) (A) (A) (A) (A) (A) (A) (A) (A) (A) (A) (A)
                 (A) (A) (A) (A) (A) (A) (A) (A) (A) (A) (A) (A)
                 (A) (A) (A) (A) (A) (A) (A) (A) (A) (A) (A) (A)
                 (A) (A) (A) (A) (A) (A) (A) (A) (A) (A) (A) (A)
                 (A) (A) (A) (A) (A) (A) (A) (A) (A) (A) (A) (A)
                 (A) (A) (A) (A) (A) (A) (A) (A) (A) (A) (A) (A)
                 (A) (A) (A) (A) (A) (A) (A) (A) (A) (A) (A) (A)
                 (A) (A) (A) (A) (A) (A) (A) (A) (A) (A) (A) (A)
                 (A) (A) (A) (A) (A) (A) (A) (A) (A) (A) (A) (A)
                 (A) (A) (A) (A) (A) (A) (A) (A) (A) (A) (A) (A)
                 (A) (A) (A) (A) (A) (A) (A) (A) (A) (A)
 The electronic state is 1-A.
 Alpha  occ. eigenvalues --  -67.01752 -19.67267 -19.62029 -19.61623 -10.68267
 Alpha  occ. eigenvalues --  -10.62139 -10.60819 -10.55679 -10.55262 -10.55071
 Alpha  occ. eigenvalues --  -10.55015 -10.54028 -10.53808 -10.53106 -10.52822
 Alpha  occ. eigenvalues --  -10.51303 -10.51053 -10.50853  -5.55200  -3.86387
 Alpha  occ. eigenvalues --   -3.86244  -3.86230  -1.22886  -1.14201  -1.13399
 Alpha  occ. eigenvalues --   -0.93687  -0.90571  -0.88378  -0.84485  -0.80905
 Alpha  occ. eigenvalues --   -0.80374  -0.78679  -0.77068  -0.76827  -0.73716
 Alpha  occ. eigenvalues --   -0.69928  -0.68403  -0.65037  -0.60703  -0.59179
 Alpha  occ. eigenvalues --   -0.58746  -0.57432  -0.57297  -0.54116  -0.53352
 Alpha  occ. eigenvalues --   -0.52354  -0.50653  -0.50374  -0.49752  -0.49097
 Alpha  occ. eigenvalues --   -0.48152  -0.47729  -0.47154  -0.46421  -0.46212
 Alpha  occ. eigenvalues --   -0.45831  -0.45229  -0.44637  -0.44470  -0.44005
 Alpha  occ. eigenvalues --   -0.43684  -0.43149  -0.42635  -0.42469  -0.41287
 Alpha  occ. eigenvalues --   -0.40562  -0.39478  -0.38352  -0.36793  -0.36584
 Alpha  occ. eigenvalues --   -0.35636  -0.34674  -0.33702  -0.32161
 Alpha virt. eigenvalues --    0.02873   0.03486   0.04968   0.06614   0.07396
 Alpha virt. eigenvalues --    0.07538   0.08622   0.09358   0.09773   0.10429
 Alpha virt. eigenvalues --    0.10955   0.11333   0.11659   0.12380   0.12633
 Alpha virt. eigenvalues --    0.13349   0.13983   0.14084   0.14669   0.14945
 Alpha virt. eigenvalues --    0.15508   0.15655   0.16023   0.16203   0.16524
 Alpha virt. eigenvalues --    0.16890   0.17179   0.17462   0.17780   0.18366
 Alpha virt. eigenvalues --    0.19054   0.19495   0.19685   0.20247   0.20812
 Alpha virt. eigenvalues --    0.21333   0.21678   0.21893   0.22416   0.22798
 Alpha virt. eigenvalues --    0.23549   0.24237   0.24529   0.24761   0.25623
 Alpha virt. eigenvalues --    0.25928   0.26908   0.27466   0.27681   0.28157
 Alpha virt. eigenvalues --    0.28894   0.29144   0.29879   0.30419   0.30464
 Alpha virt. eigenvalues --    0.30722   0.31754   0.32448   0.33378   0.33874
 Alpha virt. eigenvalues --    0.34198   0.35066   0.35566   0.35856   0.36883
 Alpha virt. eigenvalues --    0.37328   0.38015   0.38217   0.38543   0.39261
 Alpha virt. eigenvalues --    0.39558   0.39704   0.40752   0.41186   0.41827
 Alpha virt. eigenvalues --    0.42413   0.43071   0.43412   0.43609   0.44266
 Alpha virt. eigenvalues --    0.44397   0.44879   0.45606   0.45943   0.46440
 Alpha virt. eigenvalues --    0.46777   0.47097   0.47313   0.47471   0.47825
 Alpha virt. eigenvalues --    0.48269   0.48750   0.48847   0.49470   0.49800
 Alpha virt. eigenvalues --    0.50070   0.50477   0.50849   0.51077   0.51618
 Alpha virt. eigenvalues --    0.51655   0.52617   0.53331   0.53554   0.54150
 Alpha virt. eigenvalues --    0.54461   0.54836   0.54919   0.56144   0.56507
 Alpha virt. eigenvalues --    0.56706   0.57051   0.57442   0.58339   0.58531
 Alpha virt. eigenvalues --    0.59654   0.60258   0.60449   0.60931   0.62012
 Alpha virt. eigenvalues --    0.62682   0.63194   0.64055   0.64429   0.65005
 Alpha virt. eigenvalues --    0.65578   0.66798   0.67436   0.67926   0.68762
 Alpha virt. eigenvalues --    0.70028   0.70800   0.71056   0.72459   0.73356
 Alpha virt. eigenvalues --    0.74970   0.75334   0.76143   0.76219   0.76541
 Alpha virt. eigenvalues --    0.78102   0.78796   0.79766   0.80229   0.81727
 Alpha virt. eigenvalues --    0.82877   0.83019   0.83740   0.84671   0.86122
 Alpha virt. eigenvalues --    0.87599   0.88109   0.88345   0.88930   0.89649
 Alpha virt. eigenvalues --    0.90697   0.91332   0.92251   0.92679   0.94258
 Alpha virt. eigenvalues --    0.94687   0.94959   0.96445   0.97002   0.97126
 Alpha virt. eigenvalues --    0.98587   0.98934   0.99744   1.00718   1.01055
 Alpha virt. eigenvalues --    1.02156   1.03446   1.03994   1.04432   1.04809
 Alpha virt. eigenvalues --    1.04908   1.05704   1.06070   1.06388   1.07393
 Alpha virt. eigenvalues --    1.08302   1.09315   1.09965   1.10083   1.10743
 Alpha virt. eigenvalues --    1.12252   1.12695   1.14741   1.15505   1.16005
 Alpha virt. eigenvalues --    1.16640   1.17261   1.17854   1.19832   1.20393
 Alpha virt. eigenvalues --    1.21464   1.21976   1.22834   1.23910   1.24574
 Alpha virt. eigenvalues --    1.25369   1.26604   1.27235   1.28659   1.28705
 Alpha virt. eigenvalues --    1.29573   1.30357   1.31287   1.32727   1.33467
 Alpha virt. eigenvalues --    1.35168   1.35601   1.35902   1.37830   1.38331
 Alpha virt. eigenvalues --    1.39443   1.39690   1.40875   1.41491   1.42717
 Alpha virt. eigenvalues --    1.44149   1.44886   1.45487   1.45737   1.46719
 Alpha virt. eigenvalues --    1.47780   1.48570   1.49736   1.51311   1.54023
 Alpha virt. eigenvalues --    1.54301   1.54910   1.55437   1.55875   1.56756
 Alpha virt. eigenvalues --    1.57386   1.58242   1.58790   1.59270   1.59377
 Alpha virt. eigenvalues --    1.59688   1.60232   1.60785   1.60974   1.61738
 Alpha virt. eigenvalues --    1.62449   1.63093   1.63112   1.63737   1.64315
 Alpha virt. eigenvalues --    1.65327   1.65655   1.65989   1.66393   1.67039
 Alpha virt. eigenvalues --    1.67237   1.67778   1.68730   1.68928   1.69854
 Alpha virt. eigenvalues --    1.70454   1.70919   1.71783   1.72953   1.73282
 Alpha virt. eigenvalues --    1.73887   1.75132   1.76133   1.76854   1.77645
 Alpha virt. eigenvalues --    1.79505   1.80320   1.81725   1.82434   1.83263
 Alpha virt. eigenvalues --    1.84173   1.84661   1.86390   1.86866   1.87857
 Alpha virt. eigenvalues --    1.88026   1.89613   1.90797   1.93417   1.93520
 Alpha virt. eigenvalues --    1.94258   1.95871   1.96322   1.96883   1.97219
 Alpha virt. eigenvalues --    1.99053   2.00214   2.00422   2.01763   2.03335
 Alpha virt. eigenvalues --    2.03899   2.04468   2.05099   2.05896   2.06577
 Alpha virt. eigenvalues --    2.06861   2.07526   2.08242   2.09330   2.09947
 Alpha virt. eigenvalues --    2.10393   2.11454   2.12314   2.12784   2.14179
 Alpha virt. eigenvalues --    2.15683   2.16280   2.18197   2.19112   2.19825
 Alpha virt. eigenvalues --    2.20519   2.20829   2.21316   2.23427   2.23892
 Alpha virt. eigenvalues --    2.24561   2.25353   2.26019   2.27097   2.28603
 Alpha virt. eigenvalues --    2.29531   2.30691   2.30990   2.32758   2.33115
 Alpha virt. eigenvalues --    2.33789   2.34333   2.35853   2.36105   2.37027
 Alpha virt. eigenvalues --    2.37745   2.38246   2.38544   2.39178   2.40344
 Alpha virt. eigenvalues --    2.40440   2.41183   2.41282   2.41939   2.42907
 Alpha virt. eigenvalues --    2.43224   2.43848   2.44241   2.44357   2.45373
 Alpha virt. eigenvalues --    2.45907   2.46283   2.46788   2.48029   2.48675
 Alpha virt. eigenvalues --    2.49773   2.51160   2.51917   2.52852   2.54243
 Alpha virt. eigenvalues --    2.55263   2.56371   2.57544   2.58162   2.58348
 Alpha virt. eigenvalues --    2.58862   2.59412   2.59843   2.61262   2.61721
 Alpha virt. eigenvalues --    2.62656   2.63050   2.63531   2.63963   2.64589
 Alpha virt. eigenvalues --    2.65504   2.65582   2.66586   2.67300   2.67514
 Alpha virt. eigenvalues --    2.68133   2.68555   2.69431   2.70166   2.70723
 Alpha virt. eigenvalues --    2.71156   2.71829   2.72662   2.73327   2.73644
 Alpha virt. eigenvalues --    2.74530   2.76113   2.77010   2.78244   2.79448
 Alpha virt. eigenvalues --    2.80941   2.81500   2.82435   2.83873   2.84227
 Alpha virt. eigenvalues --    2.85951   2.86199   2.87059   2.87342   2.88566
 Alpha virt. eigenvalues --    2.89135   2.89999   2.91639   2.92209   2.93556
 Alpha virt. eigenvalues --    2.95052   2.96058   2.97615   2.98578   2.98871
 Alpha virt. eigenvalues --    3.00770   3.03092   3.04199   3.06250   3.06620
 Alpha virt. eigenvalues --    3.07417   3.08680   3.09052   3.10220   3.10606
 Alpha virt. eigenvalues --    3.11222   3.11423   3.11571   3.12563   3.12973
 Alpha virt. eigenvalues --    3.14133   3.14527   3.15441   3.15674   3.16237
 Alpha virt. eigenvalues --    3.16668   3.17407   3.18537   3.19210   3.19748
 Alpha virt. eigenvalues --    3.20556   3.21689   3.22828   3.23881   3.24166
 Alpha virt. eigenvalues --    3.24449   3.24695   3.25253   3.26421   3.26854
 Alpha virt. eigenvalues --    3.27325   3.27729   3.28197   3.29302   3.30034
 Alpha virt. eigenvalues --    3.30850   3.31729   3.32301   3.32870   3.33054
 Alpha virt. eigenvalues --    3.33431   3.33960   3.34504   3.35185   3.35786
 Alpha virt. eigenvalues --    3.36379   3.36929   3.37362   3.38071   3.38447
 Alpha virt. eigenvalues --    3.39920   3.40437   3.41205   3.41908   3.42436
 Alpha virt. eigenvalues --    3.43403   3.43555   3.43776   3.44625   3.45319
 Alpha virt. eigenvalues --    3.46338   3.47566   3.47936   3.49181   3.51464
 Alpha virt. eigenvalues --    3.52705   3.53085   3.53557   3.54363   3.54728
 Alpha virt. eigenvalues --    3.55305   3.56473   3.57393   3.58097   3.58945
 Alpha virt. eigenvalues --    3.59196   3.59895   3.60591   3.62038   3.62074
 Alpha virt. eigenvalues --    3.63901   3.64453   3.65285   3.65598   3.65848
 Alpha virt. eigenvalues --    3.66713   3.67060   3.68201   3.69868   3.70467
 Alpha virt. eigenvalues --    3.71350   3.72406   3.74245   3.75561   3.76638
 Alpha virt. eigenvalues --    3.77634   3.79090   3.81102   3.82181   3.83999
 Alpha virt. eigenvalues --    3.85591   3.86962   3.87936   3.90859   3.93156
 Alpha virt. eigenvalues --    3.93957   3.94638   3.95022   3.98774   4.00667
 Alpha virt. eigenvalues --    4.02957   4.06165   4.07161   4.07600   4.11735
 Alpha virt. eigenvalues --    4.12340   4.12723   4.13595   4.16034   4.18321
 Alpha virt. eigenvalues --    4.22042   4.22586   4.24637   4.25694   4.26201
 Alpha virt. eigenvalues --    4.26790   4.26977   4.28402   4.28875   4.29157
 Alpha virt. eigenvalues --    4.30211   4.31441   4.32386   4.34634   4.35697
 Alpha virt. eigenvalues --    4.37234   4.37917   4.38193   4.39009   4.39467
 Alpha virt. eigenvalues --    4.40426   4.44379   4.45854   4.47077   4.48435
 Alpha virt. eigenvalues --    4.50616   4.52767   4.53405   4.55798   4.57349
 Alpha virt. eigenvalues --    4.60294   4.64545   4.66800   4.68557   4.69963
 Alpha virt. eigenvalues --    4.72223   4.74081   4.77304   4.79312   4.83082
 Alpha virt. eigenvalues --    4.85128   4.88322   4.92233   4.95208   4.99637
 Alpha virt. eigenvalues --    5.06588   5.10811   5.12748   5.16279   5.21483
 Alpha virt. eigenvalues --    5.24817   5.25571   5.27623   5.29156   5.38617
 Alpha virt. eigenvalues --    5.48322   5.49672   5.52254   5.60728   5.81125
 Alpha virt. eigenvalues --    5.85270   5.87153   5.89551   5.91417   6.01332
 Alpha virt. eigenvalues --    6.12171   6.17075   6.22370   6.36686   6.38621
 Alpha virt. eigenvalues --    6.51123   6.61117   6.63179   6.66244   6.67540
 Alpha virt. eigenvalues --    6.69516   6.75048   6.81506   6.85093   6.89194
 Alpha virt. eigenvalues --    6.91587   6.96715   7.04820   7.06670   7.15521
 Alpha virt. eigenvalues --    7.20962   7.34320   7.42612  12.17170  22.32313
 Alpha virt. eigenvalues --   22.37621  22.42901  22.43471  22.45568  22.56257
 Alpha virt. eigenvalues --   22.61261  22.66509  22.72835  22.77309  22.84153
 Alpha virt. eigenvalues --   22.86417  22.90913  23.43219  44.05386  44.49438
 Alpha virt. eigenvalues --   44.51698
          Condensed to atoms (all electrons):
               1          2          3          4          5          6
     1  C    5.412828   0.002859  -0.030456  -0.018689  -0.032307   0.466731
     2  C    0.002859   6.009725   0.008423   0.030676  -0.033175  -0.083284
     3  C   -0.030456   0.008423   5.850017  -0.240440   0.097481  -0.033785
     4  C   -0.018689   0.030676  -0.240440   6.241013   0.062511   0.004752
     5  C   -0.032307  -0.033175   0.097481   0.062511   4.446725  -0.003465
     6  H    0.466731  -0.083284  -0.033785   0.004752  -0.003465   0.528689
     7  H   -0.018216   0.411343  -0.038367   0.009883   0.000961   0.003291
     8  H   -0.001470   0.014409  -0.020782   0.368610  -0.007558   0.000364
     9  H    0.003721  -0.024846  -0.036064   0.406053  -0.006061  -0.000379
    10  O    0.160849  -0.003844   0.025939  -0.167492   0.403973  -0.033694
    11  O    0.001049   0.000263   0.016895  -0.161991   0.743569   0.000359
    12  C    0.196370  -0.051460   0.022355  -0.004276   0.001841  -0.037428
    13  C   -0.042476   0.039131  -0.002993   0.001608  -0.000369  -0.004160
    14  C   -0.023863   0.145653  -0.029697   0.009205  -0.004767   0.005810
    15  O    0.009929  -0.079760   0.172660  -0.021322  -0.002658  -0.000189
    16  Si  -0.001051   0.006784  -0.082718   0.005301  -0.000740   0.000040
    17  C   -0.000044   0.000792  -0.000239   0.000103   0.000057   0.000001
    18  C    0.000216   0.000137   0.020305  -0.001689  -0.001313  -0.000019
    19  C    0.000071  -0.001723  -0.005350   0.000367  -0.000019  -0.000002
    20  H   -0.000002   0.000004  -0.000664   0.000392  -0.000023   0.000000
    21  H    0.000007  -0.000370  -0.003167   0.002423   0.000541   0.000000
    22  H   -0.000026   0.000102   0.005996  -0.006638  -0.000100  -0.000001
    23  H   -0.000001   0.000016   0.000253  -0.000017  -0.000001   0.000000
    24  H    0.000004   0.000163  -0.004362   0.000394   0.000007   0.000001
    25  H    0.000007   0.000053   0.002250  -0.000051  -0.000002   0.000000
    26  H    0.000001  -0.000045   0.000030  -0.000012   0.000000   0.000000
    27  H    0.000011   0.000101   0.000015   0.000052  -0.000001   0.000000
    28  H   -0.000004   0.000012   0.000892  -0.000608   0.000013   0.000000
    29  H   -0.023165  -0.040462   0.012348  -0.001142   0.000199  -0.000170
    30  H    0.010885  -0.037858  -0.029770   0.022008  -0.005240   0.000276
    31  H    0.008558  -0.062433   0.016145  -0.009579   0.000148  -0.000201
    32  H   -0.013734  -0.030915  -0.001894   0.000621  -0.000136   0.006594
    33  H   -0.069509   0.015706  -0.000375   0.000551  -0.000156  -0.007109
    34  H    0.012006  -0.000883   0.000066  -0.000023  -0.000003  -0.000247
    35  H   -0.026265   0.020021   0.000764  -0.000002  -0.000062   0.001290
    36  H    0.018395  -0.012052  -0.000293  -0.000010   0.000047   0.000588
    37  C    0.048927  -0.111029   0.164132  -0.048930  -0.001320   0.008894
    38  C   -0.009579   0.011167  -0.020052  -0.000062   0.001339   0.004499
    39  C   -0.007437   0.007053  -0.011323  -0.000611   0.000082   0.002402
    40  H    0.000504  -0.019158  -0.005813  -0.004490   0.000330  -0.011566
    41  H   -0.002099   0.017767  -0.069825   0.001067  -0.002150   0.001284
    42  H    0.000629  -0.003659   0.006126  -0.000429  -0.000027  -0.000090
    43  H    0.000013   0.000059  -0.000184   0.000029   0.000001  -0.000072
    44  H   -0.000345  -0.000388  -0.000865  -0.000073   0.000012   0.000583
               7          8          9         10         11         12
     1  C   -0.018216  -0.001470   0.003721   0.160849   0.001049   0.196370
     2  C    0.411343   0.014409  -0.024846  -0.003844   0.000263  -0.051460
     3  C   -0.038367  -0.020782  -0.036064   0.025939   0.016895   0.022355
     4  C    0.009883   0.368610   0.406053  -0.167492  -0.161991  -0.004276
     5  C    0.000961  -0.007558  -0.006061   0.403973   0.743569   0.001841
     6  H    0.003291   0.000364  -0.000379  -0.033694   0.000359  -0.037428
     7  H    0.493056  -0.000037  -0.000365   0.002734   0.000032  -0.016041
     8  H   -0.000037   0.467375  -0.011290   0.006375   0.011122  -0.000006
     9  H   -0.000365  -0.011290   0.440435   0.000572   0.002169   0.000304
    10  O    0.002734   0.006375   0.000572   7.991392  -0.102516  -0.059548
    11  O    0.000032   0.011122   0.002169  -0.102516   7.859278   0.000128
    12  C   -0.016041  -0.000006   0.000304  -0.059548   0.000128   5.269116
    13  C   -0.001815  -0.000010  -0.000039   0.008426  -0.000002   0.205015
    14  C   -0.029281   0.000661  -0.004169  -0.004278  -0.000017   0.028475
    15  O    0.003459  -0.000872  -0.001248  -0.000358  -0.000216  -0.000319
    16  Si   0.000063  -0.000756  -0.000465  -0.000030  -0.000179   0.000038
    17  C   -0.000022   0.000223  -0.000257   0.000001   0.000001   0.000001
    18  C    0.000070  -0.004710  -0.001631  -0.000041  -0.000177   0.000003
    19  C   -0.000191  -0.000184   0.000219  -0.000002  -0.000001  -0.000001
    20  H   -0.000001   0.000379  -0.000006   0.000000  -0.000002   0.000000
    21  H    0.000004  -0.003199   0.000261   0.000002   0.000029  -0.000001
    22  H   -0.000004   0.001220   0.000037  -0.000001  -0.000016   0.000000
    23  H    0.000002   0.000002  -0.000003   0.000000   0.000000   0.000000
    24  H   -0.000022  -0.000035  -0.000010   0.000000   0.000000   0.000000
    25  H    0.000034   0.000002  -0.000006   0.000000   0.000000   0.000000
    26  H    0.000000  -0.000004   0.000020   0.000000   0.000000   0.000000
    27  H    0.000029  -0.000007   0.000003   0.000000   0.000000   0.000000
    28  H   -0.000006  -0.000001   0.000340   0.000000   0.000000   0.000000
    29  H   -0.007627   0.000022   0.000357   0.000656  -0.000006   0.014129
    30  H    0.006192   0.000360  -0.006066   0.004320  -0.000042  -0.012610
    31  H   -0.002882  -0.000269   0.001350  -0.000215  -0.000003  -0.000841
    32  H    0.002001   0.000001  -0.000051   0.002673  -0.000038   0.414992
    33  H   -0.000738  -0.000013   0.000006   0.003857  -0.000071   0.446182
    34  H    0.000341   0.000000   0.000000  -0.000235   0.000000  -0.042268
    35  H   -0.008234   0.000001  -0.000001  -0.000099   0.000000  -0.023618
    36  H    0.001607   0.000000   0.000001   0.000077   0.000000  -0.056488
    37  C   -0.013235  -0.014760   0.009131  -0.011128   0.001404  -0.003131
    38  C    0.000982   0.000420  -0.000558   0.001225   0.000028   0.001434
    39  C    0.000450   0.000020  -0.000013   0.000017   0.000000   0.000144
    40  H    0.000770  -0.000489   0.000152   0.003019  -0.000492   0.000690
    41  H   -0.000122   0.003154  -0.000631  -0.000109  -0.000081   0.000001
    42  H    0.000586   0.000011   0.000013  -0.000003   0.000001  -0.000026
    43  H    0.000052   0.000000   0.000000   0.000000   0.000000   0.000010
    44  H    0.000150   0.000003   0.000001   0.000003   0.000000  -0.000127
              13         14         15         16         17         18
     1  C   -0.042476  -0.023863   0.009929  -0.001051  -0.000044   0.000216
     2  C    0.039131   0.145653  -0.079760   0.006784   0.000792   0.000137
     3  C   -0.002993  -0.029697   0.172660  -0.082718  -0.000239   0.020305
     4  C    0.001608   0.009205  -0.021322   0.005301   0.000103  -0.001689
     5  C   -0.000369  -0.004767  -0.002658  -0.000740   0.000057  -0.001313
     6  H   -0.004160   0.005810  -0.000189   0.000040   0.000001  -0.000019
     7  H   -0.001815  -0.029281   0.003459   0.000063  -0.000022   0.000070
     8  H   -0.000010   0.000661  -0.000872  -0.000756   0.000223  -0.004710
     9  H   -0.000039  -0.004169  -0.001248  -0.000465  -0.000257  -0.001631
    10  O    0.008426  -0.004278  -0.000358  -0.000030   0.000001  -0.000041
    11  O   -0.000002  -0.000017  -0.000216  -0.000179   0.000001  -0.000177
    12  C    0.205015   0.028475  -0.000319   0.000038   0.000001   0.000003
    13  C    5.108781  -0.013732   0.000024  -0.000005   0.000000   0.000000
    14  C   -0.013732   5.158595  -0.012879   0.000218   0.000918  -0.000401
    15  O    0.000024  -0.012879   8.058624   0.398367  -0.020842  -0.030241
    16  Si  -0.000005   0.000218   0.398367  12.414070   0.396796   0.325614
    17  C    0.000000   0.000918  -0.020842   0.396796   5.113294  -0.048581
    18  C    0.000000  -0.000401  -0.030241   0.325614  -0.048581   5.219322
    19  C    0.000000   0.000058  -0.026388   0.346980  -0.045054  -0.058083
    20  H    0.000000   0.000006   0.001080  -0.020371   0.000501   0.380593
    21  H    0.000000   0.000059   0.000337  -0.038208   0.000878   0.394798
    22  H    0.000000   0.000014   0.000387  -0.037853   0.003170   0.393317
    23  H    0.000000   0.000001   0.001114  -0.026989   0.000990   0.001460
    24  H    0.000000  -0.000010   0.001167  -0.029844   0.002620   0.001242
    25  H    0.000000  -0.000016  -0.000460  -0.041218   0.001354   0.003594
    26  H    0.000000  -0.000024   0.001216  -0.043196   0.394603   0.002361
    27  H    0.000000  -0.000124   0.000948  -0.032392   0.387795   0.003585
    28  H    0.000000   0.000131   0.000986  -0.034492   0.389535   0.000847
    29  H   -0.004332   0.424358   0.000600   0.000014  -0.000018  -0.000003
    30  H    0.001365   0.416098  -0.000144  -0.000154  -0.000016   0.000022
    31  H    0.000134   0.426426   0.006551  -0.002004  -0.001394   0.000359
    32  H   -0.040001   0.004502  -0.000003   0.000000   0.000000   0.000000
    33  H   -0.034400  -0.001282   0.000009  -0.000001   0.000000   0.000000
    34  H    0.415904   0.000302   0.000000   0.000000   0.000000   0.000000
    35  H    0.406636  -0.003873  -0.000012   0.000001   0.000000   0.000000
    36  H    0.414394   0.001138   0.000000   0.000000   0.000000   0.000000
    37  C    0.000808   0.008266  -0.081075   0.025397  -0.001552  -0.015285
    38  C   -0.001151   0.000348   0.016466  -0.009381   0.000588   0.002334
    39  C   -0.000849  -0.000242   0.003177  -0.000211   0.000024   0.000051
    40  H    0.000035  -0.000852   0.004053   0.000447   0.000008  -0.000022
    41  H   -0.000006  -0.000152  -0.006016   0.002474   0.000342   0.000474
    42  H    0.000032  -0.000375   0.005084  -0.001555   0.000036   0.000411
    43  H    0.000021   0.000002  -0.000008   0.000023   0.000000  -0.000001
    44  H    0.000120  -0.000025   0.000010  -0.000034   0.000000   0.000003
              19         20         21         22         23         24
     1  C    0.000071  -0.000002   0.000007  -0.000026  -0.000001   0.000004
     2  C   -0.001723   0.000004  -0.000370   0.000102   0.000016   0.000163
     3  C   -0.005350  -0.000664  -0.003167   0.005996   0.000253  -0.004362
     4  C    0.000367   0.000392   0.002423  -0.006638  -0.000017   0.000394
     5  C   -0.000019  -0.000023   0.000541  -0.000100  -0.000001   0.000007
     6  H   -0.000002   0.000000   0.000000  -0.000001   0.000000   0.000001
     7  H   -0.000191  -0.000001   0.000004  -0.000004   0.000002  -0.000022
     8  H   -0.000184   0.000379  -0.003199   0.001220   0.000002  -0.000035
     9  H    0.000219  -0.000006   0.000261   0.000037  -0.000003  -0.000010
    10  O   -0.000002   0.000000   0.000002  -0.000001   0.000000   0.000000
    11  O   -0.000001  -0.000002   0.000029  -0.000016   0.000000   0.000000
    12  C   -0.000001   0.000000  -0.000001   0.000000   0.000000   0.000000
    13  C    0.000000   0.000000   0.000000   0.000000   0.000000   0.000000
    14  C    0.000058   0.000006   0.000059   0.000014   0.000001  -0.000010
    15  O   -0.026388   0.001080   0.000337   0.000387   0.001114   0.001167
    16  Si   0.346980  -0.020371  -0.038208  -0.037853  -0.026989  -0.029844
    17  C   -0.045054   0.000501   0.000878   0.003170   0.000990   0.002620
    18  C   -0.058083   0.380593   0.394798   0.393317   0.001460   0.001242
    19  C    5.186042   0.001437   0.003421   0.002230   0.386278   0.386656
    20  H    0.001437   0.492790  -0.015117  -0.014330   0.000465   0.000120
    21  H    0.003421  -0.015117   0.502753  -0.020522  -0.000134  -0.000161
    22  H    0.002230  -0.014330  -0.020522   0.506046   0.000144   0.000630
    23  H    0.386278   0.000465  -0.000134   0.000144   0.499626  -0.016341
    24  H    0.386656   0.000120  -0.000161   0.000630  -0.016341   0.510463
    25  H    0.396646  -0.000122  -0.000087  -0.000212  -0.015641  -0.019360
    26  H    0.002499   0.000254   0.000250  -0.000168   0.000185  -0.000125
    27  H    0.000244  -0.000144  -0.000182  -0.000094   0.000249  -0.000126
    28  H    0.003462   0.000245   0.000762  -0.000131  -0.000146  -0.000096
    29  H    0.000005   0.000000   0.000000   0.000000   0.000000   0.000000
    30  H   -0.000008  -0.000001   0.000008  -0.000002   0.000000   0.000000
    31  H    0.000120  -0.000005   0.000003  -0.000009  -0.000005  -0.000004
    32  H    0.000000   0.000000   0.000000   0.000000   0.000000   0.000000
    33  H    0.000000   0.000000   0.000000   0.000000   0.000000   0.000000
    34  H    0.000000   0.000000   0.000000   0.000000   0.000000   0.000000
    35  H    0.000000   0.000000   0.000000   0.000000   0.000000   0.000000
    36  H    0.000000   0.000000   0.000000   0.000000   0.000000   0.000000
    37  C    0.014995   0.000302   0.001400  -0.004301  -0.000597   0.004919
    38  C   -0.003896  -0.000046  -0.000113   0.000440   0.000408  -0.002009
    39  C    0.000613  -0.000001  -0.000001   0.000005   0.000000   0.000970
    40  H    0.000142   0.000003   0.000002   0.000017   0.000001   0.000092
    41  H   -0.005903  -0.000010  -0.000330   0.003291   0.000176   0.000721
    42  H   -0.002317  -0.000007  -0.000011   0.000006   0.000317  -0.002865
    43  H    0.000022   0.000000   0.000000   0.000000  -0.000001   0.000014
    44  H   -0.000017   0.000000   0.000000   0.000001   0.000001  -0.000023
              25         26         27         28         29         30
     1  C    0.000007   0.000001   0.000011  -0.000004  -0.023165   0.010885
     2  C    0.000053  -0.000045   0.000101   0.000012  -0.040462  -0.037858
     3  C    0.002250   0.000030   0.000015   0.000892   0.012348  -0.029770
     4  C   -0.000051  -0.000012   0.000052  -0.000608  -0.001142   0.022008
     5  C   -0.000002   0.000000  -0.000001   0.000013   0.000199  -0.005240
     6  H    0.000000   0.000000   0.000000   0.000000  -0.000170   0.000276
     7  H    0.000034   0.000000   0.000029  -0.000006  -0.007627   0.006192
     8  H    0.000002  -0.000004  -0.000007  -0.000001   0.000022   0.000360
     9  H   -0.000006   0.000020   0.000003   0.000340   0.000357  -0.006066
    10  O    0.000000   0.000000   0.000000   0.000000   0.000656   0.004320
    11  O    0.000000   0.000000   0.000000   0.000000  -0.000006  -0.000042
    12  C    0.000000   0.000000   0.000000   0.000000   0.014129  -0.012610
    13  C    0.000000   0.000000   0.000000   0.000000  -0.004332   0.001365
    14  C   -0.000016  -0.000024  -0.000124   0.000131   0.424358   0.416098
    15  O   -0.000460   0.001216   0.000948   0.000986   0.000600  -0.000144
    16  Si  -0.041218  -0.043196  -0.032392  -0.034492   0.000014  -0.000154
    17  C    0.001354   0.394603   0.387795   0.389535  -0.000018  -0.000016
    18  C    0.003594   0.002361   0.003585   0.000847  -0.000003   0.000022
    19  C    0.396646   0.002499   0.000244   0.003462   0.000005  -0.000008
    20  H   -0.000122   0.000254  -0.000144   0.000245   0.000000  -0.000001
    21  H   -0.000087   0.000250  -0.000182   0.000762   0.000000   0.000008
    22  H   -0.000212  -0.000168  -0.000094  -0.000131   0.000000  -0.000002
    23  H   -0.015641   0.000185   0.000249  -0.000146   0.000000   0.000000
    24  H   -0.019360  -0.000125  -0.000126  -0.000096   0.000000   0.000000
    25  H    0.507401   0.000262   0.000860  -0.000187   0.000000   0.000000
    26  H    0.000262   0.520066  -0.017600  -0.017945   0.000000   0.000000
    27  H    0.000860  -0.017600   0.515503  -0.018574   0.000002   0.000005
    28  H   -0.000187  -0.017945  -0.018574   0.517058   0.000008  -0.000023
    29  H    0.000000   0.000000   0.000002   0.000008   0.507959  -0.025081
    30  H    0.000000   0.000000   0.000005  -0.000023  -0.025081   0.507807
    31  H   -0.000001   0.000087   0.000158   0.000061  -0.018980  -0.021898
    32  H    0.000000   0.000000   0.000000   0.000000  -0.008951   0.000550
    33  H    0.000000   0.000000   0.000000   0.000000   0.000374  -0.000144
    34  H    0.000000   0.000000   0.000000   0.000000   0.000026  -0.000011
    35  H    0.000000   0.000000   0.000000   0.000000   0.002296  -0.000033
    36  H    0.000000   0.000000   0.000000   0.000000  -0.000023  -0.000038
    37  C   -0.002909   0.000068   0.000168   0.000079  -0.000403  -0.000140
    38  C   -0.001046  -0.000023  -0.000071  -0.000026  -0.000048  -0.000075
    39  C    0.000188  -0.000001   0.000000  -0.000001  -0.000003   0.000001
    40  H   -0.000026  -0.000001   0.000000   0.000000   0.000007  -0.000018
    41  H    0.000225  -0.000009  -0.000014  -0.000005   0.000008   0.000006
    42  H    0.001310  -0.000004   0.000073  -0.000002   0.000006   0.000004
    43  H   -0.000021   0.000000   0.000000   0.000000   0.000000   0.000000
    44  H    0.000005   0.000000   0.000000   0.000000   0.000000   0.000000
              31         32         33         34         35         36
     1  C    0.008558  -0.013734  -0.069509   0.012006  -0.026265   0.018395
     2  C   -0.062433  -0.030915   0.015706  -0.000883   0.020021  -0.012052
     3  C    0.016145  -0.001894  -0.000375   0.000066   0.000764  -0.000293
     4  C   -0.009579   0.000621   0.000551  -0.000023  -0.000002  -0.000010
     5  C    0.000148  -0.000136  -0.000156  -0.000003  -0.000062   0.000047
     6  H   -0.000201   0.006594  -0.007109  -0.000247   0.001290   0.000588
     7  H   -0.002882   0.002001  -0.000738   0.000341  -0.008234   0.001607
     8  H   -0.000269   0.000001  -0.000013   0.000000   0.000001   0.000000
     9  H    0.001350  -0.000051   0.000006   0.000000  -0.000001   0.000001
    10  O   -0.000215   0.002673   0.003857  -0.000235  -0.000099   0.000077
    11  O   -0.000003  -0.000038  -0.000071   0.000000   0.000000   0.000000
    12  C   -0.000841   0.414992   0.446182  -0.042268  -0.023618  -0.056488
    13  C    0.000134  -0.040001  -0.034400   0.415904   0.406636   0.414394
    14  C    0.426426   0.004502  -0.001282   0.000302  -0.003873   0.001138
    15  O    0.006551  -0.000003   0.000009   0.000000  -0.000012   0.000000
    16  Si  -0.002004   0.000000  -0.000001   0.000000   0.000001   0.000000
    17  C   -0.001394   0.000000   0.000000   0.000000   0.000000   0.000000
    18  C    0.000359   0.000000   0.000000   0.000000   0.000000   0.000000
    19  C    0.000120   0.000000   0.000000   0.000000   0.000000   0.000000
    20  H   -0.000005   0.000000   0.000000   0.000000   0.000000   0.000000
    21  H    0.000003   0.000000   0.000000   0.000000   0.000000   0.000000
    22  H   -0.000009   0.000000   0.000000   0.000000   0.000000   0.000000
    23  H   -0.000005   0.000000   0.000000   0.000000   0.000000   0.000000
    24  H   -0.000004   0.000000   0.000000   0.000000   0.000000   0.000000
    25  H   -0.000001   0.000000   0.000000   0.000000   0.000000   0.000000
    26  H    0.000087   0.000000   0.000000   0.000000   0.000000   0.000000
    27  H    0.000158   0.000000   0.000000   0.000000   0.000000   0.000000
    28  H    0.000061   0.000000   0.000000   0.000000   0.000000   0.000000
    29  H   -0.018980  -0.008951   0.000374   0.000026   0.002296  -0.000023
    30  H   -0.021898   0.000550  -0.000144  -0.000011  -0.000033  -0.000038
    31  H    0.486728   0.000337   0.000034  -0.000004   0.000004   0.000004
    32  H    0.000337   0.516415  -0.020780  -0.003813  -0.003098   0.005939
    33  H    0.000034  -0.020780   0.512425  -0.005740   0.005024  -0.002309
    34  H   -0.000004  -0.003813  -0.005740   0.510626  -0.022442  -0.022351
    35  H    0.000004  -0.003098   0.005024  -0.022442   0.529344  -0.027968
    36  H    0.000004   0.005939  -0.002309  -0.022351  -0.027968   0.527372
    37  C    0.001368   0.000198   0.000032  -0.000015   0.000002  -0.000068
    38  C   -0.000148  -0.000050  -0.000010   0.000013   0.000268   0.000311
    39  C   -0.000003  -0.000030   0.000076   0.000021   0.000118  -0.000129
    40  H   -0.000029  -0.000040   0.000018   0.000004  -0.000021  -0.000016
    41  H   -0.000069   0.000000   0.000000   0.000000   0.000002   0.000005
    42  H    0.000059  -0.000001   0.000002   0.000000   0.000003  -0.000012
    43  H    0.000000   0.000000   0.000000  -0.000001   0.000009  -0.000015
    44  H    0.000000   0.000001   0.000005  -0.000001  -0.000009   0.000025
              37         38         39         40         41         42
     1  C    0.048927  -0.009579  -0.007437   0.000504  -0.002099   0.000629
     2  C   -0.111029   0.011167   0.007053  -0.019158   0.017767  -0.003659
     3  C    0.164132  -0.020052  -0.011323  -0.005813  -0.069825   0.006126
     4  C   -0.048930  -0.000062  -0.000611  -0.004490   0.001067  -0.000429
     5  C   -0.001320   0.001339   0.000082   0.000330  -0.002150  -0.000027
     6  H    0.008894   0.004499   0.002402  -0.011566   0.001284  -0.000090
     7  H   -0.013235   0.000982   0.000450   0.000770  -0.000122   0.000586
     8  H   -0.014760   0.000420   0.000020  -0.000489   0.003154   0.000011
     9  H    0.009131  -0.000558  -0.000013   0.000152  -0.000631   0.000013
    10  O   -0.011128   0.001225   0.000017   0.003019  -0.000109  -0.000003
    11  O    0.001404   0.000028   0.000000  -0.000492  -0.000081   0.000001
    12  C   -0.003131   0.001434   0.000144   0.000690   0.000001  -0.000026
    13  C    0.000808  -0.001151  -0.000849   0.000035  -0.000006   0.000032
    14  C    0.008266   0.000348  -0.000242  -0.000852  -0.000152  -0.000375
    15  O   -0.081075   0.016466   0.003177   0.004053  -0.006016   0.005084
    16  Si   0.025397  -0.009381  -0.000211   0.000447   0.002474  -0.001555
    17  C   -0.001552   0.000588   0.000024   0.000008   0.000342   0.000036
    18  C   -0.015285   0.002334   0.000051  -0.000022   0.000474   0.000411
    19  C    0.014995  -0.003896   0.000613   0.000142  -0.005903  -0.002317
    20  H    0.000302  -0.000046  -0.000001   0.000003  -0.000010  -0.000007
    21  H    0.001400  -0.000113  -0.000001   0.000002  -0.000330  -0.000011
    22  H   -0.004301   0.000440   0.000005   0.000017   0.003291   0.000006
    23  H   -0.000597   0.000408   0.000000   0.000001   0.000176   0.000317
    24  H    0.004919  -0.002009   0.000970   0.000092   0.000721  -0.002865
    25  H   -0.002909  -0.001046   0.000188  -0.000026   0.000225   0.001310
    26  H    0.000068  -0.000023  -0.000001  -0.000001  -0.000009  -0.000004
    27  H    0.000168  -0.000071   0.000000   0.000000  -0.000014   0.000073
    28  H    0.000079  -0.000026  -0.000001   0.000000  -0.000005  -0.000002
    29  H   -0.000403  -0.000048  -0.000003   0.000007   0.000008   0.000006
    30  H   -0.000140  -0.000075   0.000001  -0.000018   0.000006   0.000004
    31  H    0.001368  -0.000148  -0.000003  -0.000029  -0.000069   0.000059
    32  H    0.000198  -0.000050  -0.000030  -0.000040   0.000000  -0.000001
    33  H    0.000032  -0.000010   0.000076   0.000018   0.000000   0.000002
    34  H   -0.000015   0.000013   0.000021   0.000004   0.000000   0.000000
    35  H    0.000002   0.000268   0.000118  -0.000021   0.000002   0.000003
    36  H   -0.000068   0.000311  -0.000129  -0.000016   0.000005  -0.000012
    37  C    5.508943   0.154725  -0.044693   0.410145   0.436561  -0.058020
    38  C    0.154725   5.269529   0.516030  -0.041924  -0.049343   0.411374
    39  C   -0.044693   0.516030   5.021227   0.003309  -0.004112  -0.012449
    40  H    0.410145  -0.041924   0.003309   0.469638  -0.010359   0.002165
    41  H    0.436561  -0.049343  -0.004112  -0.010359   0.486298   0.002300
    42  H   -0.058020   0.411374  -0.012449   0.002165   0.002300   0.468901
    43  H    0.006705  -0.051438   0.425378   0.000176  -0.000332  -0.005986
    44  H    0.005920  -0.076411   0.441746  -0.000004   0.000713   0.003899
              43         44
     1  C    0.000013  -0.000345
     2  C    0.000059  -0.000388
     3  C   -0.000184  -0.000865
     4  C    0.000029  -0.000073
     5  C    0.000001   0.000012
     6  H   -0.000072   0.000583
     7  H    0.000052   0.000150
     8  H    0.000000   0.000003
     9  H    0.000000   0.000001
    10  O    0.000000   0.000003
    11  O    0.000000   0.000000
    12  C    0.000010  -0.000127
    13  C    0.000021   0.000120
    14  C    0.000002  -0.000025
    15  O   -0.000008   0.000010
    16  Si   0.000023  -0.000034
    17  C    0.000000   0.000000
    18  C   -0.000001   0.000003
    19  C    0.000022  -0.000017
    20  H    0.000000   0.000000
    21  H    0.000000   0.000000
    22  H    0.000000   0.000001
    23  H   -0.000001   0.000001
    24  H    0.000014  -0.000023
    25  H   -0.000021   0.000005
    26  H    0.000000   0.000000
    27  H    0.000000   0.000000
    28  H    0.000000   0.000000
    29  H    0.000000   0.000000
    30  H    0.000000   0.000000
    31  H    0.000000   0.000000
    32  H    0.000000   0.000001
    33  H    0.000000   0.000005
    34  H   -0.000001  -0.000001
    35  H    0.000009  -0.000009
    36  H   -0.000015   0.000025
    37  C    0.006705   0.005920
    38  C   -0.051438  -0.076411
    39  C    0.425378   0.441746
    40  H    0.000176  -0.000004
    41  H   -0.000332   0.000713
    42  H   -0.005986   0.003899
    43  H    0.497717  -0.022258
    44  H   -0.022258   0.500187
 Mulliken charges:
               1
     1  C   -0.033834
     2  C   -0.145075
     3  C    0.246384
     4  C   -0.479039
     5  C    0.341817
     6  H    0.179412
     7  H    0.199113
     8  H    0.191718
     9  H    0.229018
    10  O   -0.232519
    11  O   -0.370476
    12  C   -0.293040
    13  C   -0.456097
    14  C   -0.501188
    15  O   -0.401238
    16  Si   0.481220
    17  C   -0.576611
    18  C   -0.588921
    19  C   -0.583367
    20  H    0.172282
    21  H    0.173666
    22  H    0.167357
    23  H    0.168190
    24  H    0.165210
    25  H    0.167174
    26  H    0.157255
    27  H    0.159528
    28  H    0.157815
    29  H    0.167038
    30  H    0.169464
    31  H    0.172341
    32  H    0.168713
    33  H    0.158338
    34  H    0.158728
    35  H    0.149949
    36  H    0.151869
    37  C   -0.400897
    38  C   -0.126468
    39  C   -0.340993
    40  H    0.199591
    41  H    0.194810
    42  H    0.184484
    43  H    0.150085
    44  H    0.147194
 Sum of Mulliken charges =   0.00000
 Mulliken charges with hydrogens summed into heavy atoms:
               1
     1  C    0.145578
     2  C    0.054038
     3  C    0.246384
     4  C   -0.058303
     5  C    0.341817
    10  O   -0.232519
    11  O   -0.370476
    12  C    0.034011
    13  C    0.004449
    14  C    0.007656
    15  O   -0.401238
    16  Si   0.481220
    17  C   -0.102013
    18  C   -0.075615
    19  C   -0.082794
    37  C   -0.006496
    38  C    0.058016
    39  C   -0.043714
 Electronic spatial extent (au):  <R**2>=           5537.7485
 Charge=              0.0000 electrons
 Dipole moment (field-independent basis, Debye):
    X=              2.2890    Y=              4.5914    Z=              1.7306  Tot=              5.4143
 Quadrupole moment (field-independent basis, Debye-Ang):
   XX=           -115.7824   YY=           -134.2498   ZZ=           -121.9842
   XY=            -13.9347   XZ=             -5.9869   YZ=             -8.5247
 Traceless Quadrupole moment (field-independent basis, Debye-Ang):
   XX=              8.2231   YY=            -10.2443   ZZ=              2.0213
   XY=            -13.9347   XZ=             -5.9869   YZ=             -8.5247
 Octapole moment (field-independent basis, Debye-Ang**2):
  XXX=              9.0364  YYY=             49.9246  ZZZ=              1.4663  XYY=             26.4747
  XXY=             23.5160  XXZ=             13.9766  XZZ=             -8.0237  YZZ=              7.6937
  YYZ=             32.9099  XYZ=             21.1675
 Hexadecapole moment (field-independent basis, Debye-Ang**3):
 XXXX=          -4331.8146 YYYY=          -1970.9119 ZZZZ=          -1239.1511 XXXY=            -64.1212
 XXXZ=            -37.8577 YYYX=            -93.6993 YYYZ=            -94.7763 ZZZX=             -5.7080
 ZZZY=             10.0687 XXYY=          -1145.3127 XXZZ=           -969.6536 YYZZ=           -559.7153
 XXYZ=            -22.3225 YYXZ=            -22.6166 ZZXY=            -28.2712
 N-N= 1.625990795891D+03 E-N=-5.745017264911D+03  KE= 1.059309971329D+03
 1\1\GINC-CPU-E-273\SP\RM062X\def2TZVP\C14H26O3Si1\KE291\26-Jun-2019\0\
 \# m062x/def2tzvp int=ultrafine scrf=(solvent=chloroform)\\IP1_4ginp00
 4\\0,1\C,0,-2.443277,0.007076,0.030721\C,0,-1.130563,0.255321,0.78617\
 C,0,0.062517,-0.102815,-0.142973\C,0,-0.064678,-1.588958,-0.521998\C,0
 ,-1.4593,-2.070657,-0.89215\H,0,-2.478759,0.664389,-0.845076\H,0,-1.07
 5275,1.33453,0.966641\H,0,0.594638,-1.860444,-1.3495\H,0,0.245581,-2.1
 97831,0.334513\O,0,-2.533115,-1.360193,-0.487533\O,0,-1.640034,-3.1158
 91,-1.482165\C,0,-3.732116,0.219389,0.825201\C,0,-3.928137,1.665741,1.
 29115\C,0,-1.070117,-0.464524,2.143343\O,0,1.251789,0.118179,0.611482\
 Si,0,2.90892,-0.009015,0.338908\C,0,3.633983,-0.194344,2.064489\C,0,3.
 369937,-1.498294,-0.726413\C,0,3.585327,1.560087,-0.462626\H,0,4.46233
 6,-1.56909,-0.789655\H,0,3.002699,-2.437737,-0.30132\H,0,2.991193,-1.4
 18439,-1.75079\H,0,4.677779,1.498628,-0.533233\H,0,3.199477,1.718233,-
 1.474673\H,0,3.343078,2.447627,0.131685\H,0,4.728344,-0.233422,2.02725
 6\H,0,3.351392,0.649772,2.702272\H,0,3.281277,-1.111598,2.547414\H,0,-
 1.782437,-0.025014,2.846537\H,0,-1.309793,-1.529348,2.059635\H,0,-0.07
 1703,-0.370773,2.572086\H,0,-3.754518,-0.465418,1.679353\H,0,-4.56238,
 -0.072368,0.172619\H,0,-4.9052,1.781663,1.76885\H,0,-3.16835,1.970852,
 2.0175\H,0,-3.884033,2.365467,0.449434\C,0,0.086865,0.763008,-1.434046
 \C,0,0.043134,2.24858,-1.202445\C,0,-0.787318,3.089945,-1.821335\H,0,-
 0.729208,0.468986,-2.103319\H,0,1.011563,0.500217,-1.966201\H,0,0.7590
 89,2.641637,-0.482823\H,0,-0.763437,4.158497,-1.628716\H,0,-1.514895,2
 .743103,-2.551992\\Version=ES64L-G09RevD.01\State=1-A\HF=-1064.342045\
 RMSD=1.579e-09\Dipole=0.9005473,1.8063825,0.680875\Quadrupole=6.113641
 3,-7.6164173,1.502776,-10.3601424,-4.4511213,-6.3379293\PG=C01 [X(C14H
 26O3Si1)]\\@


 IF AT FIRST YOU DON'T SUCCEED, TRY, TRY AGAIN.
 THEN GIVE UP;
 THERE'S NO USE BEING A DAMN FOOL ABOUT IT.

                                 -- W. C. FIELDS
 Job cpu time:       0 days  2 hours 23 minutes 10.5 seconds.
 File lengths (MBytes):  RWF=    405 Int=      0 D2E=      0 Chk=     21 Scr=      1
 Normal termination of Gaussian 09 at Wed Jun 26 13:47:48 2019.
