 Entering Gaussian System, Link 0=/usr/local/Cluster-Apps/gaussian/g09/g09
 Initial command:
 /usr/local/Cluster-Apps/gaussian/g09/l1.exe "/home/ke291/rds/hpc-work/26Jun1304IP1NMR/Gau-429757.inp" -scrdir="/home/ke291/rds/hpc-work/26Jun1304IP1NMR/"
 Entering Link 1 = /usr/local/Cluster-Apps/gaussian/g09/l1.exe PID=    429796.
  
 Copyright (c) 1988,1990,1992,1993,1995,1998,2003,2009,2013,
            Gaussian, Inc.  All Rights Reserved.
  
 This is part of the Gaussian(R) 09 program.  It is based on
 the Gaussian(R) 03 system (copyright 2003, Gaussian, Inc.),
 the Gaussian(R) 98 system (copyright 1998, Gaussian, Inc.),
 the Gaussian(R) 94 system (copyright 1995, Gaussian, Inc.),
 the Gaussian 92(TM) system (copyright 1992, Gaussian, Inc.),
 the Gaussian 90(TM) system (copyright 1990, Gaussian, Inc.),
 the Gaussian 88(TM) system (copyright 1988, Gaussian, Inc.),
 the Gaussian 86(TM) system (copyright 1986, Carnegie Mellon
 University), and the Gaussian 82(TM) system (copyright 1983,
 Carnegie Mellon University). Gaussian is a federally registered
 trademark of Gaussian, Inc.
  
 This software contains proprietary and confidential information,
 including trade secrets, belonging to Gaussian, Inc.
  
 This software is provided under written license and may be
 used, copied, transmitted, or stored only in accord with that
 written license.
  
 The following legend is applicable only to US Government
 contracts under FAR:
  
                    RESTRICTED RIGHTS LEGEND
  
 Use, reproduction and disclosure by the US Government is
 subject to restrictions as set forth in subparagraphs (a)
 and (c) of the Commercial Computer Software - Restricted
 Rights clause in FAR 52.227-19.
  
 Gaussian, Inc.
 340 Quinnipiac St., Bldg. 40, Wallingford CT 06492
  
  
 ---------------------------------------------------------------
 Warning -- This program may not be used in any manner that
 competes with the business of Gaussian, Inc. or will provide
 assistance to any competitor of Gaussian, Inc.  The licensee
 of this program is prohibited from giving any competitor of
 Gaussian, Inc. access to this program.  By using this program,
 the user acknowledges that Gaussian, Inc. is engaged in the
 business of creating and licensing software in the field of
 computational chemistry and represents and warrants to the
 licensee that it is not a competitor of Gaussian, Inc. and that
 it will not use this program in any manner prohibited above.
 ---------------------------------------------------------------
  

 Cite this work as:
 Gaussian 09, Revision D.01,
 M. J. Frisch, G. W. Trucks, H. B. Schlegel, G. E. Scuseria, 
 M. A. Robb, J. R. Cheeseman, G. Scalmani, V. Barone, B. Mennucci, 
 G. A. Petersson, H. Nakatsuji, M. Caricato, X. Li, H. P. Hratchian, 
 A. F. Izmaylov, J. Bloino, G. Zheng, J. L. Sonnenberg, M. Hada, 
 M. Ehara, K. Toyota, R. Fukuda, J. Hasegawa, M. Ishida, T. Nakajima, 
 Y. Honda, O. Kitao, H. Nakai, T. Vreven, J. A. Montgomery, Jr., 
 J. E. Peralta, F. Ogliaro, M. Bearpark, J. J. Heyd, E. Brothers, 
 K. N. Kudin, V. N. Staroverov, T. Keith, R. Kobayashi, J. Normand, 
 K. Raghavachari, A. Rendell, J. C. Burant, S. S. Iyengar, J. Tomasi, 
 M. Cossi, N. Rega, J. M. Millam, M. Klene, J. E. Knox, J. B. Cross, 
 V. Bakken, C. Adamo, J. Jaramillo, R. Gomperts, R. E. Stratmann, 
 O. Yazyev, A. J. Austin, R. Cammi, C. Pomelli, J. W. Ochterski, 
 R. L. Martin, K. Morokuma, V. G. Zakrzewski, G. A. Voth, 
 P. Salvador, J. J. Dannenberg, S. Dapprich, A. D. Daniels, 
 O. Farkas, J. B. Foresman, J. V. Ortiz, J. Cioslowski, 
 and D. J. Fox, Gaussian, Inc., Wallingford CT, 2013.
 
 ******************************************
 Gaussian 09:  ES64L-G09RevD.01 24-Apr-2013
                26-Jun-2019 
 ******************************************
 %nprocshared=4
 Will use up to    4 processors via shared memory.
 %mem=6000MB
 %chk=IP1_4ginp003.chk
 --------------------------------------------------------
 # m062x/def2tzvp int=ultrafine scrf=(solvent=chloroform)
 --------------------------------------------------------
 1/38=1/1;
 2/12=2,17=6,18=5,40=1/2;
 3/5=44,7=101,11=2,16=1,25=1,30=1,70=2201,72=7,74=-55,75=-5/1,2,3;
 4//1;
 5/5=2,38=5,53=7/2;
 6/7=2,8=2,9=2,10=2,28=1/1;
 99/5=1,9=1/99;
 ------------
 IP1_4ginp003
 ------------
 Symbolic Z-matrix:
 Charge =  0 Multiplicity = 1
 C                    -2.35848   0.22285   0.28658 
 C                    -0.99004   0.24489   0.98152 
 C                     0.1195   -0.00821  -0.07665 
 C                    -0.13918  -1.38692  -0.70906 
 C                    -1.58254  -1.696    -1.07637 
 H                    -2.39861   1.03924  -0.44293 
 H                    -0.85318   1.26811   1.35064 
 H                     0.45934  -1.54393  -1.60904 
 H                     0.16053  -2.16343   0.00385 
 O                    -2.57685  -1.00779  -0.47722 
 O                    -1.8718   -2.59401  -1.83987 
 C                    -3.56311   0.36185   1.2158 
 C                    -4.88788   0.53762   0.46701 
 C                    -0.90285  -0.71439   2.17986 
 O                     1.36288  -0.00594   0.62001 
 Si                    2.98945  -0.18356   0.22181 
 C                     3.28472  -1.49367  -1.10497 
 C                     3.73126   1.45482  -0.35087 
 C                     3.79216  -0.70974   1.83976 
 H                     4.80888   1.33616  -0.51451 
 H                     3.29305   1.80894  -1.2894 
 H                     3.59638   2.23967   0.40097 
 H                     4.87768  -0.80447   1.72452 
 H                     3.60253   0.02321   2.63089 
 H                     3.40504  -1.67634   2.17862 
 H                     4.36404  -1.62363  -1.24799 
 H                     2.86976  -2.46582  -0.82059 
 H                     2.86097  -1.21452  -2.07529 
 H                    -1.54578  -0.37286   2.99495 
 H                    -1.21529  -1.73107   1.92057 
 H                     0.12155  -0.75533   2.5521 
 H                    -3.38207   1.22904   1.8629 
 H                    -3.61646  -0.51615   1.86781 
 H                    -5.72058   0.63342   1.17019 
 H                    -4.87287   1.43738  -0.15827 
 H                    -5.088    -0.31949  -0.18135 
 C                     0.1354    1.07932  -1.18792 
 C                     0.22186   2.49433  -0.68547 
 C                    -0.58163   3.48782  -1.0698 
 H                    -0.73918   0.971    -1.83899 
 H                     1.00402   0.85868  -1.82335 
 H                     1.01172   2.69756   0.03535 
 H                    -0.46369   4.49676  -0.68554 
 H                    -1.38096   3.33215  -1.79124 
 
                          Input orientation:                          
 ---------------------------------------------------------------------
 Center     Atomic      Atomic             Coordinates (Angstroms)
 Number     Number       Type             X           Y           Z
 ---------------------------------------------------------------------
      1          6           0       -2.358478    0.222846    0.286580
      2          6           0       -0.990035    0.244894    0.981522
      3          6           0        0.119503   -0.008209   -0.076645
      4          6           0       -0.139176   -1.386923   -0.709060
      5          6           0       -1.582536   -1.695998   -1.076372
      6          1           0       -2.398606    1.039243   -0.442925
      7          1           0       -0.853182    1.268110    1.350643
      8          1           0        0.459337   -1.543927   -1.609040
      9          1           0        0.160526   -2.163428    0.003845
     10          8           0       -2.576852   -1.007795   -0.477223
     11          8           0       -1.871801   -2.594010   -1.839872
     12          6           0       -3.563114    0.361845    1.215796
     13          6           0       -4.887882    0.537623    0.467010
     14          6           0       -0.902851   -0.714386    2.179864
     15          8           0        1.362878   -0.005940    0.620013
     16         14           0        2.989446   -0.183557    0.221806
     17          6           0        3.284719   -1.493671   -1.104974
     18          6           0        3.731258    1.454820   -0.350866
     19          6           0        3.792162   -0.709738    1.839758
     20          1           0        4.808882    1.336155   -0.514509
     21          1           0        3.293049    1.808939   -1.289403
     22          1           0        3.596376    2.239674    0.400966
     23          1           0        4.877684   -0.804470    1.724515
     24          1           0        3.602528    0.023210    2.630892
     25          1           0        3.405037   -1.676340    2.178615
     26          1           0        4.364045   -1.623632   -1.247988
     27          1           0        2.869755   -2.465819   -0.820593
     28          1           0        2.860967   -1.214522   -2.075291
     29          1           0       -1.545782   -0.372859    2.994949
     30          1           0       -1.215294   -1.731065    1.920573
     31          1           0        0.121547   -0.755330    2.552101
     32          1           0       -3.382074    1.229038    1.862903
     33          1           0       -3.616461   -0.516147    1.867808
     34          1           0       -5.720578    0.633424    1.170192
     35          1           0       -4.872867    1.437384   -0.158268
     36          1           0       -5.087997   -0.319486   -0.181352
     37          6           0        0.135396    1.079321   -1.187921
     38          6           0        0.221855    2.494325   -0.685473
     39          6           0       -0.581632    3.487825   -1.069800
     40          1           0       -0.739182    0.970998   -1.838987
     41          1           0        1.004025    0.858679   -1.823353
     42          1           0        1.011723    2.697563    0.035349
     43          1           0       -0.463688    4.496765   -0.685541
     44          1           0       -1.380955    3.332150   -1.791236
 ---------------------------------------------------------------------
                    Distance matrix (angstroms):
                    1          2          3          4          5
     1  C    0.000000
     2  C    1.534948   0.000000
     3  C    2.515096   1.553980   0.000000
     4  C    2.916840   2.498971   1.538738   0.000000
     5  C    2.478243   2.890164   2.597118   1.521096   0.000000
     6  H    1.095578   2.155020   2.751761   3.325979   2.923828
     7  H    2.119133   1.096335   2.147617   3.435314   3.899781
     8  H    3.828178   3.465771   2.195940   1.092169   2.115681
     9  H    3.481325   2.842474   2.157112   1.095908   2.103241
    10  O    1.464773   2.493021   2.903440   2.477852   1.349543
    11  O    3.562770   4.098433   3.709532   2.395367   1.213685
    12  C    1.527714   2.586368   3.920333   4.299606   3.662163
    13  C    2.555293   3.942540   5.066300   5.257112   4.277429
    14  C    2.565498   1.537479   2.575990   3.062905   3.468228
    15  O    3.743262   2.393701   1.425243   2.435101   3.795982
    16  Si   5.363735   4.073943   2.890743   3.478919   4.987561
    17  C    6.060406   5.064543   3.644537   3.448362   4.871542
    18  C    6.245717   5.052701   3.906459   4.814983   6.220162
    19  C    6.411899   4.951495   4.201567   4.733970   6.193860
    20  H    7.297414   6.087397   4.897889   5.651220   7.096469
    21  H    6.077760   5.093932   3.852818   4.725516   6.008435
    22  H    6.288161   5.035013   4.167702   5.323412   6.670320
    23  H    7.448830   6.006940   5.149611   5.606284   7.097481
    24  H    6.408529   4.884793   4.411712   5.210000   6.601846
    25  H    6.356478   4.943767   4.320138   4.580816   5.955771
    26  H    7.138396   6.093298   4.690178   4.541528   5.949497
    27  H    5.982405   5.049115   3.762604   3.198456   4.525588
    28  H    5.906528   5.128764   3.600750   3.301086   4.579779
    29  H    2.889741   2.178156   3.512952   4.089810   4.281087
    30  H    2.791876   2.199312   2.956145   2.862068   3.019565
    31  H    3.498562   2.168590   2.732856   3.331975   4.117593
    32  H    2.131892   2.732622   4.189710   4.896390   4.520344
    33  H    2.151491   2.874509   4.242208   4.414749   3.767903
    34  H    3.500437   4.750220   6.006067   6.226190   5.253251
    35  H    2.827569   4.218713   5.198092   5.539667   4.635437
    36  H    2.821942   4.296987   5.217846   5.090062   3.870930
    37  C    3.021111   2.582508   1.554963   2.527263   3.265904
    38  C    3.572481   3.050818   2.577562   3.898075   4.579021
    39  C    3.956897   3.858927   3.701378   4.908062   5.279571
    40  H    2.774867   2.923256   2.191355   2.682636   2.899258
    41  H    4.020265   3.495759   2.141229   2.755229   3.711422
    42  H    4.188746   3.304219   2.851281   4.308334   5.222019
    43  H    4.775105   4.597233   4.583193   5.892677   6.305147
    44  H    3.865313   4.167992   4.043414   4.998277   5.082710
                    6          7          8          9         10
     6  H    0.000000
     7  H    2.378571   0.000000
     8  H    4.024976   4.288354   0.000000
     9  H    4.123816   3.823208   1.753416   0.000000
    10  O    2.055070   3.389967   3.284340   3.010009   0.000000
    11  O    3.928042   5.112039   2.567131   2.777597   2.206805
    12  C    2.136891   2.860635   5.271791   4.659541   2.390594
    13  C    2.697425   4.194428   6.102097   5.744269   2.936112
    14  C    3.491636   2.149503   4.110899   2.822331   3.154121
    15  O    4.046110   2.658561   2.854902   2.545598   4.210595
    16  Si   5.564909   4.259977   3.406473   3.459795   5.670245
    17  C    6.257327   5.547947   2.870434   3.382105   5.915079
    18  C    6.144625   4.893576   4.613128   5.095848   6.772938
    19  C    6.826067   5.072508   4.868039   4.321177   6.783921
    20  H    7.213956   5.961744   5.330236   5.841488   7.748842
    21  H    5.805505   4.945055   4.401568   5.221579   6.561201
    22  H    6.171952   4.652353   5.310063   5.599114   7.030364
    23  H    7.812904   6.105587   5.584011   5.201832   7.775545
    24  H    6.818672   4.800226   5.505687   4.850788   6.993432
    25  H    6.923087   5.242876   4.800105   3.936208   6.579014
    26  H    7.312488   6.506498   3.922175   4.419054   7.010662
    27  H    6.339063   5.702346   2.698453   2.847992   5.648829
    28  H    5.950394   5.629866   2.468547   3.537741   5.671546
    29  H    3.813177   2.424091   5.156415   3.881279   3.677258
    30  H    3.828963   3.074247   3.911212   2.398680   2.850682
    31  H    4.306024   2.547137   4.248656   2.911678   4.064714
    32  H    2.513976   2.580549   5.873684   5.245468   3.335865
    33  H    3.040049   3.329676   5.454992   4.522557   2.611834
    34  H    3.715149   4.911917   7.117327   6.615900   3.910318
    35  H    2.522204   4.296898   6.278961   6.190894   3.369320
    36  H    3.024465   4.775053   5.857513   5.566095   2.620526
    37  C    2.641551   2.730794   2.676511   3.454904   3.495345
    38  C    3.007143   2.608654   4.149320   4.708883   4.487870
    39  C    3.112864   3.295363   5.166520   5.800015   4.954054
    40  H    2.169639   3.205466   2.795384   3.745682   3.024410
    41  H    3.676423   3.700149   2.472879   3.630878   4.256580
    42  H    3.822187   2.692806   4.582508   4.935054   5.183655
    43  H    3.969538   3.836921   6.180193   6.724810   5.899919
    44  H    2.847978   3.796078   5.214978   5.983298   4.689555
                   11         12         13         14         15
    11  O    0.000000
    12  C    4.575448   0.000000
    13  C    4.921948   1.531858   0.000000
    14  C    4.542040   3.027325   4.514628   0.000000
    15  O    4.817913   4.975502   6.276215   2.840521   0.000000
    16  Si   5.804526   6.649926   7.914071   4.389276   1.683995
    17  C    5.323581   7.464699   8.566720   5.378958   2.980335
    18  C    7.071381   7.540351   8.706305   5.708329   2.947143
    19  C    7.012178   7.459069   8.876008   4.707318   2.807941
    20  H    7.863479   8.604275   9.778971   6.639899   3.868243
    21  H    6.809159   7.441577   8.463384   6.000713   3.265764
    22  H    7.634580   7.446374   8.653553   5.668685   3.174788
    23  H    7.839825   8.536168   9.937244   5.799142   3.769806
    24  H    7.536966   7.311880   8.776905   4.587583   3.010069
    25  H    6.695922   7.323684   8.752356   4.413984   3.064293
    26  H    6.338591   8.535350   9.654553   6.349574   3.887590
    27  H    4.851568   7.316035   8.417810   5.128627   3.224442
    28  H    4.935332   7.388166   8.341341   5.702877   3.312039
    29  H    5.330600   2.788334   4.288250   1.092870   3.772963
    30  H    3.913646   3.223235   4.554964   1.094755   3.363701
    31  H    5.161745   4.075600   5.577967   1.090701   2.415668
    32  H    5.532374   1.097063   2.166571   3.166056   5.058114
    33  H    4.594371   1.094913   2.165451   2.738678   5.158597
    34  H    5.855758   2.174968   1.094087   5.103579   7.133501
    35  H    5.299653   2.181809   1.095796   5.085076   6.447745
    36  H    4.274116   2.177499   1.093186   4.821487   6.508017
    37  C    4.236418   4.468960   5.316536   3.954405   2.439903
    38  C    5.622027   4.742181   5.591629   4.446453   3.042623
    39  C    6.264684   4.887222   5.441440   5.321849   4.340850
    40  H    3.740603   4.204445   4.766251   4.361017   3.379311
    41  H    4.493519   5.508360   6.329566   4.704940   2.616559
    42  H    6.311253   5.270500   6.297381   4.461607   2.788202
    43  H    7.320816   5.506277   6.047865   5.963179   5.031418
    44  H    5.946652   4.756761   5.020716   5.689699   4.948291
                   16         17         18         19         20
    16  Si   0.000000
    17  C    1.887837   0.000000
    18  C    1.887463   3.075984   0.000000
    19  C    1.881220   3.089255   3.080236   0.000000
    20  H    2.482344   3.267971   1.096419   3.280544   0.000000
    21  H    2.519120   3.307766   1.094659   4.047777   1.766843
    22  H    2.504498   4.037679   1.095190   3.287474   1.767657
    23  H    2.491809   3.319419   3.275040   1.095725   3.098425
    24  H    2.494457   4.044580   3.310130   1.095019   3.615614
    25  H    2.496041   3.290866   4.038423   1.094993   4.277712
    26  H    2.474598   1.096489   3.268350   3.270539   3.081592
    27  H    2.511900   1.094596   4.041564   3.318452   4.278891
    28  H    2.521121   1.094991   3.294910   4.055803   3.568805
    29  H    5.319253   6.434231   6.510149   5.471892   7.457800
    30  H    4.791704   5.427744   6.306954   5.111189   7.185274
    31  H    3.739257   4.891319   5.132445   3.739375   5.979090
    32  H    6.729405   7.788939   7.453271   7.431625   8.529673
    33  H    6.816007   7.577550   7.924405   7.411205   8.949462
    34  H    8.799512   9.528709   9.608617   9.630401  10.686514
    35  H    8.036658   8.719722   8.606298   9.147949   9.688830
    36  H    8.088640   8.504949   8.997564   9.115613  10.039938
    37  C    3.424586   4.067604   3.711049   5.073412   4.728733
    38  C    3.956484   5.045912   3.675383   5.421246   4.734068
    39  C    5.282035   6.305966   4.821929   6.724220   5.830581
    40  H    4.413902   4.775474   4.736393   6.073806   5.715645
    41  H    3.034935   3.354278   3.156169   4.863334   4.051912
    42  H    3.499572   4.902376   3.014870   4.753571   4.071141
    43  H    5.886665   7.078969   5.192592   7.183110   6.149691
    44  H    5.959273   6.747445   5.633272   7.502141   6.627828
                   21         22         23         24         25
    21  H    0.000000
    22  H    1.770561   0.000000
    23  H    4.292398   3.558138   0.000000
    24  H    4.318949   3.144093   1.769914   0.000000
    25  H    4.918014   4.304859   1.770608   1.769753   0.000000
    26  H    3.596010   4.270070   3.125800   4.282255   3.558663
    27  H    4.321171   4.915470   3.642723   4.317982   3.147229
    28  H    3.153669   4.313252   4.321321   4.922403   4.313352
    29  H    6.821305   6.324228   6.562104   5.176341   5.184214
    30  H    6.569683   6.420914   6.166149   5.176238   4.627855
    31  H    5.602772   5.066741   4.827852   3.567851   3.430606
    32  H    7.404768   7.201209   8.507521   7.129410   7.389572
    33  H    7.944516   7.859465   8.500245   7.279217   7.123488
    34  H    9.416842   9.485641  10.709714   9.456549   9.467248
    35  H    8.252254   8.525520  10.180571   9.033915   9.147677
    36  H    8.717792   9.072306  10.157871   9.140644   8.918639
    37  C    3.242439   3.981126   5.875393   5.264951   5.442222
    38  C    3.204172   3.554235   6.194097   5.341689   5.977466
    39  C    4.228479   4.601824   7.485728   6.573117   7.287958
    40  H    4.154886   5.042221   6.884767   6.303060   6.350124
    41  H    2.535296   3.684430   5.509870   5.224033   5.311019
    42  H    2.783715   2.650239   5.482989   4.538863   5.427022
    43  H    4.658555   4.770647   7.902007   6.895327   7.828004
    44  H    4.941490   5.547349   8.285089   7.439046   7.984385
                   26         27         28         29         30
    26  H    0.000000
    27  H    1.767724   0.000000
    28  H    1.763815   1.772029   0.000000
    29  H    7.381938   6.199662   6.770167   0.000000
    30  H    6.417191   4.974081   5.731461   1.763017   0.000000
    31  H    5.761373   4.674771   5.397040   1.767027   1.771449
    32  H    8.821436   7.741995   7.775340   2.686926   3.668851
    33  H    8.638471   7.286955   7.615302   2.361925   2.691545
    34  H   10.613271   9.346783   9.359005   4.665969   5.143099
    35  H    9.791724   8.696083   8.397605   4.928413   5.266734
    36  H    9.601021   8.266873   8.220348   4.758048   4.626929
    37  C    5.019067   4.492178   3.671223   4.736200   4.402882
    38  C    5.867856   5.624292   4.759417   4.989067   5.168249
    39  C    7.114665   6.886222   5.913930   5.688291   6.048196
    40  H    5.755372   5.086577   4.218224   5.081682   4.654258
    41  H    4.216948   3.941924   2.794614   5.588760   5.064497
    42  H    5.617628   5.553867   4.814448   4.972681   5.303435
    43  H    7.815537   7.720600   6.753039   6.199207   6.792835
    44  H    7.606571   7.254456   6.224694   6.054901   6.280216
                   31         32         33         34         35
    31  H    0.000000
    32  H    4.085103   0.000000
    33  H    3.807646   1.760861   0.000000
    34  H    6.161878   2.510619   2.497096   0.000000
    35  H    6.090835   2.520120   3.082178   1.769116   0.000000
    36  H    5.899244   3.080110   2.530445   1.770556   1.770143
    37  C    4.165801   4.658598   5.095040   6.328661   5.125533
    38  C    4.588268   4.591675   5.505893   6.497611   5.229843
    39  C    5.622899   4.641696   5.819924   6.290782   4.842509
    40  H    4.796115   4.555815   4.922465   5.829530   4.486612
    41  H    4.746408   5.741386   6.071549   7.364261   6.135574
    42  H    4.364507   4.980158   5.925025   7.132490   6.021124
    43  H    6.197526   5.068489   6.448942   6.782628   5.392466
    44  H    6.150576   4.666936   5.761552   5.906395   4.295366
                   36         37         38         39         40
    36  H    0.000000
    37  C    5.500334   0.000000
    38  C    6.030439   1.504050   0.000000
    39  C    5.965927   2.515745   1.334294   0.000000
    40  H    4.829627   1.095677   2.138858   2.636454   0.000000
    41  H    6.418487   1.098623   2.140537   3.161417   1.746892
    42  H    6.808533   2.209761   1.088477   2.093955   3.091898
    43  H    6.695873   3.505740   2.116538   1.086060   3.719861
    44  H    5.446864   2.781825   2.119826   1.087944   2.447282
                   41         42         43         44
    41  H    0.000000
    42  H    2.614637   0.000000
    43  H    4.084662   2.435908   0.000000
    44  H    3.436164   3.076365   1.849397   0.000000
 Stoichiometry    C14H26O3Si
 Framework group  C1[X(C14H26O3Si)]
 Deg. of freedom   126
 Full point group                 C1      NOp   1
 Largest Abelian subgroup         C1      NOp   1
 Largest concise Abelian subgroup C1      NOp   1
                         Standard orientation:                         
 ---------------------------------------------------------------------
 Center     Atomic      Atomic             Coordinates (Angstroms)
 Number     Number       Type             X           Y           Z
 ---------------------------------------------------------------------
      1          6           0       -2.358478    0.222846    0.286580
      2          6           0       -0.990035    0.244894    0.981522
      3          6           0        0.119503   -0.008209   -0.076645
      4          6           0       -0.139176   -1.386923   -0.709060
      5          6           0       -1.582536   -1.695998   -1.076372
      6          1           0       -2.398606    1.039243   -0.442925
      7          1           0       -0.853182    1.268110    1.350643
      8          1           0        0.459337   -1.543927   -1.609040
      9          1           0        0.160526   -2.163428    0.003845
     10          8           0       -2.576852   -1.007795   -0.477223
     11          8           0       -1.871801   -2.594010   -1.839872
     12          6           0       -3.563114    0.361845    1.215796
     13          6           0       -4.887882    0.537623    0.467010
     14          6           0       -0.902851   -0.714386    2.179864
     15          8           0        1.362878   -0.005940    0.620013
     16         14           0        2.989446   -0.183557    0.221806
     17          6           0        3.284719   -1.493671   -1.104974
     18          6           0        3.731258    1.454820   -0.350866
     19          6           0        3.792162   -0.709738    1.839758
     20          1           0        4.808882    1.336155   -0.514509
     21          1           0        3.293049    1.808939   -1.289403
     22          1           0        3.596376    2.239674    0.400966
     23          1           0        4.877684   -0.804470    1.724515
     24          1           0        3.602528    0.023210    2.630892
     25          1           0        3.405037   -1.676340    2.178615
     26          1           0        4.364045   -1.623632   -1.247988
     27          1           0        2.869755   -2.465819   -0.820593
     28          1           0        2.860967   -1.214522   -2.075291
     29          1           0       -1.545782   -0.372859    2.994949
     30          1           0       -1.215294   -1.731065    1.920573
     31          1           0        0.121547   -0.755330    2.552101
     32          1           0       -3.382074    1.229038    1.862903
     33          1           0       -3.616461   -0.516147    1.867808
     34          1           0       -5.720578    0.633424    1.170192
     35          1           0       -4.872867    1.437384   -0.158268
     36          1           0       -5.087997   -0.319486   -0.181352
     37          6           0        0.135396    1.079321   -1.187921
     38          6           0        0.221855    2.494325   -0.685473
     39          6           0       -0.581632    3.487825   -1.069800
     40          1           0       -0.739182    0.970998   -1.838987
     41          1           0        1.004025    0.858679   -1.823353
     42          1           0        1.011723    2.697563    0.035349
     43          1           0       -0.463688    4.496765   -0.685541
     44          1           0       -1.380955    3.332150   -1.791236
 ---------------------------------------------------------------------
 Rotational constants (GHZ):      0.5592059      0.2449965      0.2197883
 Standard basis: def2TZVP (5D, 7F)
 There are   810 symmetry adapted cartesian basis functions of A   symmetry.
 There are   720 symmetry adapted basis functions of A   symmetry.
   720 basis functions,  1144 primitive gaussians,   810 cartesian basis functions
    74 alpha electrons       74 beta electrons
       nuclear repulsion energy      1620.7241564164 Hartrees.
 NAtoms=   44 NActive=   44 NUniq=   44 SFac= 1.00D+00 NAtFMM=   60 NAOKFM=F Big=F
 Integral buffers will be    131072 words long.
 Raffenetti 2 integral format.
 Two-electron integral symmetry is turned on.
 ------------------------------------------------------------------------------
 Polarizable Continuum Model (PCM)
 =================================
 Model                : PCM (using non-symmetric T matrix).
 Atomic radii         : UFF (Universal Force Field).
 Polarization charges : Total charges.
 Charge compensation  : None.
 Solution method      : On-the-fly selection.
 Cavity type          : Scaled VdW (van der Waals Surface) (Alpha=1.100).
 Cavity algorithm     : GePol (No added spheres)
                        Default sphere list used, NSphG=   44.
                        Lebedev-Laikov grids with approx.  5.0 points / Ang**2.
                        Smoothing algorithm: Karplus/York (Gamma=1.0000).
                        Polarization charges: spherical gaussians, with
                                              point-specific exponents (IZeta= 3).
                        Self-potential: point-specific (ISelfS= 7).
                        Self-field    : sphere-specific E.n sum rule (ISelfD= 2).
 Solvent              : Chloroform, Eps=   4.711300 Eps(inf)=   2.090627
 ------------------------------------------------------------------------------
 One-electron integrals computed using PRISM.
   1 Symmetry operations used in ECPInt.
 ECPInt:  NShTT=   46360 NPrTT=  137514 LenC2=   41877 LenP2D=   89805.
 LDataN:  DoStor=T MaxTD1= 6 Len=  172
 NBasis=   720 RedAO= T EigKep=  4.09D-05  NBF=   720
 NBsUse=   720 1.00D-06 EigRej= -1.00D+00 NBFU=   720
 ExpMin= 7.01D-02 ExpMax= 4.48D+04 ExpMxC= 1.53D+03 IAcc=3 IRadAn=         5 AccDes= 0.00D+00
 Harris functional with IExCor= 1009 and IRadAn=       5 diagonalized for initial guess.
 HarFok:  IExCor= 1009 AccDes= 0.00D+00 IRadAn=         5 IDoV= 1 UseB2=F ITyADJ=14
 ICtDFT=  3500011 ScaDFX=  1.000000  1.000000  1.000000  1.000000
 FoFCou: FMM=F IPFlag=           0 FMFlag=      100000 FMFlg1=           0
         NFxFlg=           0 DoJE=T BraDBF=F KetDBF=T FulRan=T
         wScrn=  0.000000 ICntrl=     500 IOpCl=  0 I1Cent=   200000004 NGrid=           0
         NMat0=    1 NMatS0=      1 NMatT0=    0 NMatD0=    1 NMtDS0=    0 NMtDT0=    0
 Petite list used in FoFCou.
 Requested convergence on RMS density matrix=1.00D-08 within 128 cycles.
 Requested convergence on MAX density matrix=1.00D-06.
 Requested convergence on             energy=1.00D-06.
 No special actions if energy rises.
 Inv3:  Mode=1 IEnd=    24986988.
 Iteration    1 A*A^-1 deviation from unit magnitude is 5.77D-15 for   2883.
 Iteration    1 A*A^-1 deviation from orthogonality  is 2.72D-15 for   2641   1231.
 Iteration    1 A^-1*A deviation from unit magnitude is 5.88D-15 for   2883.
 Iteration    1 A^-1*A deviation from orthogonality  is 2.63D-10 for   2694   2641.
 Iteration    2 A*A^-1 deviation from unit magnitude is 2.66D-15 for    792.
 Iteration    2 A*A^-1 deviation from orthogonality  is 2.23D-15 for   2670   1156.
 Iteration    2 A^-1*A deviation from unit magnitude is 8.88D-16 for    251.
 Iteration    2 A^-1*A deviation from orthogonality  is 3.33D-16 for    852    824.
 Error on total polarization charges =  0.01472
 SCF Done:  E(RM062X) =  -1064.34169532     A.U. after   14 cycles
            NFock= 14  Conv=0.16D-08     -V/T= 2.0047

 **********************************************************************

            Population analysis using the SCF density.

 **********************************************************************

 Orbital symmetries:
       Occupied  (A) (A) (A) (A) (A) (A) (A) (A) (A) (A) (A) (A)
                 (A) (A) (A) (A) (A) (A) (A) (A) (A) (A) (A) (A)
                 (A) (A) (A) (A) (A) (A) (A) (A) (A) (A) (A) (A)
                 (A) (A) (A) (A) (A) (A) (A) (A) (A) (A) (A) (A)
                 (A) (A) (A) (A) (A) (A) (A) (A) (A) (A) (A) (A)
                 (A) (A) (A) (A) (A) (A) (A) (A) (A) (A) (A) (A)
                 (A) (A)
       Virtual   (A) (A) (A) (A) (A) (A) (A) (A) (A) (A) (A) (A)
                 (A) (A) (A) (A) (A) (A) (A) (A) (A) (A) (A) (A)
                 (A) (A) (A) (A) (A) (A) (A) (A) (A) (A) (A) (A)
                 (A) (A) (A) (A) (A) (A) (A) (A) (A) (A) (A) (A)
                 (A) (A) (A) (A) (A) (A) (A) (A) (A) (A) (A) (A)
                 (A) (A) (A) (A) (A) (A) (A) (A) (A) (A) (A) (A)
                 (A) (A) (A) (A) (A) (A) (A) (A) (A) (A) (A) (A)
                 (A) (A) (A) (A) (A) (A) (A) (A) (A) (A) (A) (A)
                 (A) (A) (A) (A) (A) (A) (A) (A) (A) (A) (A) (A)
                 (A) (A) (A) (A) (A) (A) (A) (A) (A) (A) (A) (A)
                 (A) (A) (A) (A) (A) (A) (A) (A) (A) (A) (A) (A)
                 (A) (A) (A) (A) (A) (A) (A) (A) (A) (A) (A) (A)
                 (A) (A) (A) (A) (A) (A) (A) (A) (A) (A) (A) (A)
                 (A) (A) (A) (A) (A) (A) (A) (A) (A) (A) (A) (A)
                 (A) (A) (A) (A) (A) (A) (A) (A) (A) (A) (A) (A)
                 (A) (A) (A) (A) (A) (A) (A) (A) (A) (A) (A) (A)
                 (A) (A) (A) (A) (A) (A) (A) (A) (A) (A) (A) (A)
                 (A) (A) (A) (A) (A) (A) (A) (A) (A) (A) (A) (A)
                 (A) (A) (A) (A) (A) (A) (A) (A) (A) (A) (A) (A)
                 (A) (A) (A) (A) (A) (A) (A) (A) (A) (A) (A) (A)
                 (A) (A) (A) (A) (A) (A) (A) (A) (A) (A) (A) (A)
                 (A) (A) (A) (A) (A) (A) (A) (A) (A) (A) (A) (A)
                 (A) (A) (A) (A) (A) (A) (A) (A) (A) (A) (A) (A)
                 (A) (A) (A) (A) (A) (A) (A) (A) (A) (A) (A) (A)
                 (A) (A) (A) (A) (A) (A) (A) (A) (A) (A) (A) (A)
                 (A) (A) (A) (A) (A) (A) (A) (A) (A) (A) (A) (A)
                 (A) (A) (A) (A) (A) (A) (A) (A) (A) (A) (A) (A)
                 (A) (A) (A) (A) (A) (A) (A) (A) (A) (A) (A) (A)
                 (A) (A) (A) (A) (A) (A) (A) (A) (A) (A) (A) (A)
                 (A) (A) (A) (A) (A) (A) (A) (A) (A) (A) (A) (A)
                 (A) (A) (A) (A) (A) (A) (A) (A) (A) (A) (A) (A)
                 (A) (A) (A) (A) (A) (A) (A) (A) (A) (A) (A) (A)
                 (A) (A) (A) (A) (A) (A) (A) (A) (A) (A) (A) (A)
                 (A) (A) (A) (A) (A) (A) (A) (A) (A) (A) (A) (A)
                 (A) (A) (A) (A) (A) (A) (A) (A) (A) (A) (A) (A)
                 (A) (A) (A) (A) (A) (A) (A) (A) (A) (A) (A) (A)
                 (A) (A) (A) (A) (A) (A) (A) (A) (A) (A) (A) (A)
                 (A) (A) (A) (A) (A) (A) (A) (A) (A) (A) (A) (A)
                 (A) (A) (A) (A) (A) (A) (A) (A) (A) (A) (A) (A)
                 (A) (A) (A) (A) (A) (A) (A) (A) (A) (A) (A) (A)
                 (A) (A) (A) (A) (A) (A) (A) (A) (A) (A) (A) (A)
                 (A) (A) (A) (A) (A) (A) (A) (A) (A) (A) (A) (A)
                 (A) (A) (A) (A) (A) (A) (A) (A) (A) (A) (A) (A)
                 (A) (A) (A) (A) (A) (A) (A) (A) (A) (A) (A) (A)
                 (A) (A) (A) (A) (A) (A) (A) (A) (A) (A) (A) (A)
                 (A) (A) (A) (A) (A) (A) (A) (A) (A) (A) (A) (A)
                 (A) (A) (A) (A) (A) (A) (A) (A) (A) (A) (A) (A)
                 (A) (A) (A) (A) (A) (A) (A) (A) (A) (A) (A) (A)
                 (A) (A) (A) (A) (A) (A) (A) (A) (A) (A) (A) (A)
                 (A) (A) (A) (A) (A) (A) (A) (A) (A) (A) (A) (A)
                 (A) (A) (A) (A) (A) (A) (A) (A) (A) (A) (A) (A)
                 (A) (A) (A) (A) (A) (A) (A) (A) (A) (A) (A) (A)
                 (A) (A) (A) (A) (A) (A) (A) (A) (A) (A) (A) (A)
                 (A) (A) (A) (A) (A) (A) (A) (A) (A) (A)
 The electronic state is 1-A.
 Alpha  occ. eigenvalues --  -67.01754 -19.67248 -19.62027 -19.61631 -10.68281
 Alpha  occ. eigenvalues --  -10.62121 -10.60808 -10.55677 -10.55274 -10.55064
 Alpha  occ. eigenvalues --  -10.55010 -10.54073 -10.53809 -10.52775 -10.52523
 Alpha  occ. eigenvalues --  -10.51283 -10.51064 -10.50852  -5.55200  -3.86387
 Alpha  occ. eigenvalues --   -3.86244  -3.86230  -1.22885  -1.14210  -1.13403
 Alpha  occ. eigenvalues --   -0.93633  -0.90521  -0.88423  -0.84613  -0.80877
 Alpha  occ. eigenvalues --   -0.80243  -0.78292  -0.77057  -0.76831  -0.73299
 Alpha  occ. eigenvalues --   -0.70353  -0.68865  -0.65056  -0.60712  -0.59122
 Alpha  occ. eigenvalues --   -0.58727  -0.57284  -0.56483  -0.54235  -0.53326
 Alpha  occ. eigenvalues --   -0.52060  -0.50604  -0.50271  -0.49901  -0.49207
 Alpha  occ. eigenvalues --   -0.48164  -0.47844  -0.47126  -0.46604  -0.46309
 Alpha  occ. eigenvalues --   -0.45850  -0.45227  -0.44729  -0.44565  -0.44054
 Alpha  occ. eigenvalues --   -0.43583  -0.43211  -0.42378  -0.41698  -0.41328
 Alpha  occ. eigenvalues --   -0.40473  -0.39597  -0.38406  -0.36688  -0.36497
 Alpha  occ. eigenvalues --   -0.35660  -0.34650  -0.33702  -0.32169
 Alpha virt. eigenvalues --    0.02907   0.03510   0.04994   0.06684   0.07506
 Alpha virt. eigenvalues --    0.07602   0.08811   0.09594   0.09909   0.10325
 Alpha virt. eigenvalues --    0.10686   0.11265   0.11645   0.12110   0.12714
 Alpha virt. eigenvalues --    0.13085   0.13605   0.14246   0.14747   0.15357
 Alpha virt. eigenvalues --    0.15463   0.15810   0.16068   0.16326   0.16541
 Alpha virt. eigenvalues --    0.17076   0.17229   0.17454   0.17778   0.18236
 Alpha virt. eigenvalues --    0.18756   0.19403   0.19554   0.20321   0.20367
 Alpha virt. eigenvalues --    0.21477   0.21642   0.21825   0.22390   0.22552
 Alpha virt. eigenvalues --    0.23347   0.23900   0.24466   0.24747   0.25384
 Alpha virt. eigenvalues --    0.26019   0.26769   0.27150   0.27414   0.28536
 Alpha virt. eigenvalues --    0.29386   0.29441   0.29589   0.30134   0.30566
 Alpha virt. eigenvalues --    0.31195   0.31576   0.32827   0.33442   0.33674
 Alpha virt. eigenvalues --    0.33991   0.34803   0.35809   0.36162   0.36996
 Alpha virt. eigenvalues --    0.37643   0.37761   0.38120   0.38418   0.38834
 Alpha virt. eigenvalues --    0.39330   0.40354   0.40795   0.41119   0.41661
 Alpha virt. eigenvalues --    0.42192   0.42622   0.43299   0.43632   0.44175
 Alpha virt. eigenvalues --    0.44304   0.44708   0.45002   0.45963   0.46391
 Alpha virt. eigenvalues --    0.46902   0.47218   0.47462   0.47630   0.48356
 Alpha virt. eigenvalues --    0.48724   0.49062   0.49289   0.49397   0.49618
 Alpha virt. eigenvalues --    0.50273   0.50665   0.51123   0.51409   0.51568
 Alpha virt. eigenvalues --    0.51733   0.52401   0.53156   0.53301   0.54006
 Alpha virt. eigenvalues --    0.54522   0.54922   0.55008   0.55911   0.56424
 Alpha virt. eigenvalues --    0.56596   0.56853   0.57393   0.57722   0.58259
 Alpha virt. eigenvalues --    0.59336   0.59985   0.60212   0.60832   0.61848
 Alpha virt. eigenvalues --    0.62309   0.62635   0.63500   0.63611   0.64887
 Alpha virt. eigenvalues --    0.65311   0.66404   0.67705   0.68094   0.68886
 Alpha virt. eigenvalues --    0.69993   0.70892   0.71285   0.72544   0.73101
 Alpha virt. eigenvalues --    0.73918   0.75357   0.75477   0.76369   0.77457
 Alpha virt. eigenvalues --    0.78056   0.78535   0.79303   0.80624   0.81715
 Alpha virt. eigenvalues --    0.82675   0.83217   0.83906   0.84850   0.86078
 Alpha virt. eigenvalues --    0.87227   0.88015   0.88192   0.89277   0.89789
 Alpha virt. eigenvalues --    0.90756   0.91766   0.92562   0.92777   0.93777
 Alpha virt. eigenvalues --    0.94249   0.95687   0.96394   0.96951   0.97830
 Alpha virt. eigenvalues --    0.98522   0.99082   0.99571   0.99968   1.01302
 Alpha virt. eigenvalues --    1.02202   1.03074   1.03556   1.04354   1.04470
 Alpha virt. eigenvalues --    1.04769   1.05561   1.06113   1.06979   1.07352
 Alpha virt. eigenvalues --    1.07841   1.09138   1.10287   1.11163   1.11867
 Alpha virt. eigenvalues --    1.12325   1.12746   1.13461   1.15119   1.15520
 Alpha virt. eigenvalues --    1.16141   1.18034   1.18327   1.19028   1.19775
 Alpha virt. eigenvalues --    1.20879   1.21567   1.22611   1.23407   1.23802
 Alpha virt. eigenvalues --    1.25101   1.26143   1.27782   1.27921   1.29061
 Alpha virt. eigenvalues --    1.29636   1.30201   1.31648   1.32873   1.33511
 Alpha virt. eigenvalues --    1.34931   1.35144   1.36160   1.36752   1.37777
 Alpha virt. eigenvalues --    1.39280   1.40414   1.40910   1.41584   1.42241
 Alpha virt. eigenvalues --    1.43621   1.44825   1.45353   1.45908   1.46420
 Alpha virt. eigenvalues --    1.47900   1.48530   1.49596   1.49954   1.53780
 Alpha virt. eigenvalues --    1.54199   1.55259   1.55635   1.56256   1.56600
 Alpha virt. eigenvalues --    1.57271   1.57986   1.58072   1.58963   1.59040
 Alpha virt. eigenvalues --    1.59464   1.60509   1.60863   1.61091   1.61566
 Alpha virt. eigenvalues --    1.62466   1.62656   1.63522   1.63995   1.64399
 Alpha virt. eigenvalues --    1.65049   1.65373   1.65972   1.66301   1.66594
 Alpha virt. eigenvalues --    1.67442   1.67722   1.68124   1.69039   1.69240
 Alpha virt. eigenvalues --    1.70010   1.70139   1.72006   1.73123   1.73394
 Alpha virt. eigenvalues --    1.74216   1.74606   1.76154   1.76561   1.78464
 Alpha virt. eigenvalues --    1.79621   1.80838   1.81160   1.82260   1.83141
 Alpha virt. eigenvalues --    1.83647   1.84179   1.85199   1.86200   1.87604
 Alpha virt. eigenvalues --    1.87836   1.88279   1.91887   1.92883   1.93463
 Alpha virt. eigenvalues --    1.94110   1.95192   1.96046   1.97628   1.98176
 Alpha virt. eigenvalues --    1.99217   1.99838   2.00758   2.01021   2.02367
 Alpha virt. eigenvalues --    2.03899   2.04477   2.05239   2.06626   2.06719
 Alpha virt. eigenvalues --    2.06997   2.07379   2.08035   2.08941   2.09761
 Alpha virt. eigenvalues --    2.10371   2.12099   2.12324   2.12779   2.14238
 Alpha virt. eigenvalues --    2.15089   2.16050   2.17320   2.18109   2.18707
 Alpha virt. eigenvalues --    2.19795   2.20972   2.21867   2.23087   2.24927
 Alpha virt. eigenvalues --    2.25326   2.25547   2.26616   2.27287   2.29014
 Alpha virt. eigenvalues --    2.29488   2.30700   2.31684   2.32771   2.33302
 Alpha virt. eigenvalues --    2.33835   2.34471   2.35435   2.35813   2.37152
 Alpha virt. eigenvalues --    2.37572   2.38480   2.38783   2.39265   2.39808
 Alpha virt. eigenvalues --    2.40264   2.41050   2.41426   2.42120   2.42566
 Alpha virt. eigenvalues --    2.42954   2.43127   2.43861   2.44235   2.45092
 Alpha virt. eigenvalues --    2.45548   2.46232   2.46782   2.47435   2.48702
 Alpha virt. eigenvalues --    2.49829   2.51158   2.51661   2.54034   2.54446
 Alpha virt. eigenvalues --    2.55320   2.56912   2.57984   2.58175   2.58633
 Alpha virt. eigenvalues --    2.59175   2.59613   2.60516   2.60846   2.61034
 Alpha virt. eigenvalues --    2.61322   2.62708   2.62877   2.63550   2.63743
 Alpha virt. eigenvalues --    2.64694   2.65582   2.66823   2.67074   2.67803
 Alpha virt. eigenvalues --    2.68041   2.68960   2.69112   2.69474   2.70567
 Alpha virt. eigenvalues --    2.70716   2.71842   2.72622   2.72841   2.73862
 Alpha virt. eigenvalues --    2.74384   2.75131   2.77088   2.77533   2.78704
 Alpha virt. eigenvalues --    2.79910   2.81270   2.83034   2.84287   2.84860
 Alpha virt. eigenvalues --    2.85047   2.85989   2.86764   2.87196   2.87932
 Alpha virt. eigenvalues --    2.88893   2.90035   2.91648   2.92596   2.94207
 Alpha virt. eigenvalues --    2.95428   2.96715   2.97481   2.98609   3.00333
 Alpha virt. eigenvalues --    3.00714   3.02272   3.04376   3.04659   3.06963
 Alpha virt. eigenvalues --    3.07205   3.07465   3.09186   3.09561   3.10195
 Alpha virt. eigenvalues --    3.10857   3.11710   3.12248   3.12735   3.13720
 Alpha virt. eigenvalues --    3.14230   3.15037   3.15344   3.15630   3.16108
 Alpha virt. eigenvalues --    3.16366   3.16920   3.18235   3.19050   3.20532
 Alpha virt. eigenvalues --    3.21207   3.21884   3.22666   3.23518   3.24289
 Alpha virt. eigenvalues --    3.24358   3.25170   3.25555   3.25915   3.27019
 Alpha virt. eigenvalues --    3.27428   3.27758   3.28388   3.29570   3.29765
 Alpha virt. eigenvalues --    3.30387   3.31241   3.32006   3.32909   3.33019
 Alpha virt. eigenvalues --    3.33292   3.34057   3.34327   3.35050   3.36058
 Alpha virt. eigenvalues --    3.36659   3.36920   3.37738   3.38067   3.39004
 Alpha virt. eigenvalues --    3.39168   3.40782   3.41232   3.42671   3.42917
 Alpha virt. eigenvalues --    3.43473   3.43856   3.44100   3.44857   3.45811
 Alpha virt. eigenvalues --    3.46515   3.47641   3.48324   3.50522   3.51998
 Alpha virt. eigenvalues --    3.52114   3.52602   3.53067   3.54029   3.55390
 Alpha virt. eigenvalues --    3.55880   3.56581   3.57244   3.58719   3.58951
 Alpha virt. eigenvalues --    3.59951   3.60117   3.61192   3.62116   3.63094
 Alpha virt. eigenvalues --    3.63441   3.64188   3.64552   3.65150   3.65561
 Alpha virt. eigenvalues --    3.65968   3.66724   3.68410   3.69169   3.69445
 Alpha virt. eigenvalues --    3.70780   3.73000   3.74476   3.75779   3.76084
 Alpha virt. eigenvalues --    3.77663   3.78300   3.80535   3.80887   3.83453
 Alpha virt. eigenvalues --    3.84821   3.87713   3.90024   3.90282   3.91537
 Alpha virt. eigenvalues --    3.93733   3.94584   3.96250   3.98392   4.00646
 Alpha virt. eigenvalues --    4.01938   4.04481   4.06605   4.07613   4.11119
 Alpha virt. eigenvalues --    4.11995   4.12439   4.14703   4.15272   4.18941
 Alpha virt. eigenvalues --    4.21559   4.24602   4.24823   4.25293   4.26101
 Alpha virt. eigenvalues --    4.26811   4.27143   4.27890   4.28651   4.29461
 Alpha virt. eigenvalues --    4.30690   4.31314   4.33215   4.35458   4.35942
 Alpha virt. eigenvalues --    4.37112   4.37632   4.38299   4.38855   4.40325
 Alpha virt. eigenvalues --    4.41265   4.42924   4.45467   4.46834   4.48526
 Alpha virt. eigenvalues --    4.51625   4.52851   4.53859   4.55958   4.57188
 Alpha virt. eigenvalues --    4.61829   4.64738   4.66971   4.67219   4.69994
 Alpha virt. eigenvalues --    4.71047   4.74065   4.77223   4.79989   4.83126
 Alpha virt. eigenvalues --    4.84216   4.88472   4.92022   4.95232   4.99945
 Alpha virt. eigenvalues --    5.06596   5.12170   5.14019   5.17208   5.21567
 Alpha virt. eigenvalues --    5.24761   5.25385   5.27928   5.28825   5.38315
 Alpha virt. eigenvalues --    5.48184   5.49579   5.52487   5.60722   5.81260
 Alpha virt. eigenvalues --    5.85261   5.87186   5.89454   5.91524   6.01808
 Alpha virt. eigenvalues --    6.12428   6.17128   6.22534   6.36577   6.38620
 Alpha virt. eigenvalues --    6.51216   6.61193   6.63209   6.66138   6.67419
 Alpha virt. eigenvalues --    6.69521   6.76346   6.81495   6.84978   6.89212
 Alpha virt. eigenvalues --    6.91656   6.96759   7.04957   7.06776   7.15560
 Alpha virt. eigenvalues --    7.21483   7.34629   7.42065  12.16986  22.32089
 Alpha virt. eigenvalues --   22.37568  22.42573  22.43135  22.45424  22.52546
 Alpha virt. eigenvalues --   22.60990  22.65001  22.72444  22.76912  22.83611
 Alpha virt. eigenvalues --   22.86655  22.91864  23.43654  44.05454  44.48724
 Alpha virt. eigenvalues --   44.51019
          Condensed to atoms (all electrons):
               1          2          3          4          5          6
     1  C    5.483069   0.003734   0.009314  -0.008316  -0.039678   0.443292
     2  C    0.003734   5.891363  -0.016596   0.022412  -0.023754  -0.041638
     3  C    0.009314  -0.016596   5.865672  -0.230760   0.089855  -0.040213
     4  C   -0.008316   0.022412  -0.230760   6.193387   0.087305   0.002841
     5  C   -0.039678  -0.023754   0.089855   0.087305   4.430105  -0.004284
     6  H    0.443292  -0.041638  -0.040213   0.002841  -0.004284   0.534129
     7  H   -0.035624   0.435299  -0.040093   0.009238   0.000831   0.001043
     8  H   -0.002728   0.015513  -0.020480   0.370106  -0.009362   0.000357
     9  H    0.004728  -0.025454  -0.036647   0.407869  -0.007560  -0.000359
    10  O    0.136740   0.014199   0.021339  -0.164235   0.403493  -0.040427
    11  O    0.000455   0.000934   0.016507  -0.159222   0.741798   0.000273
    12  C    0.182481  -0.028907   0.015293  -0.002772   0.000772  -0.039208
    13  C   -0.043880   0.007555   0.000251  -0.000506   0.000440  -0.012651
    14  C   -0.029535   0.159440  -0.027291   0.010333  -0.006020   0.006503
    15  O    0.012696  -0.081374   0.173269  -0.020466  -0.002283  -0.000085
    16  Si  -0.001339   0.007733  -0.084030   0.005108  -0.000580   0.000065
    17  C    0.000299   0.000080   0.020082  -0.001677  -0.001231  -0.000019
    18  C    0.000075  -0.001735  -0.005429   0.000387  -0.000010  -0.000004
    19  C   -0.000051   0.000723  -0.000206   0.000051   0.000048   0.000000
    20  H   -0.000001   0.000017   0.000256  -0.000020  -0.000001   0.000000
    21  H    0.000003   0.000161  -0.004445   0.000396   0.000007   0.000001
    22  H    0.000008   0.000053   0.002255  -0.000055  -0.000002   0.000000
    23  H    0.000001  -0.000043   0.000028  -0.000011   0.000000   0.000000
    24  H    0.000015   0.000107   0.000046   0.000052  -0.000001   0.000000
    25  H   -0.000005   0.000007   0.000856  -0.000571   0.000013   0.000000
    26  H   -0.000002   0.000002  -0.000657   0.000398  -0.000021   0.000000
    27  H    0.000007  -0.000339  -0.003034   0.002291   0.000541   0.000000
    28  H   -0.000027   0.000087   0.005707  -0.006486  -0.000102  -0.000001
    29  H   -0.018798  -0.045099   0.010564  -0.001014   0.000162  -0.000069
    30  H    0.007792  -0.035007  -0.029237   0.021641  -0.004874   0.000208
    31  H    0.009608  -0.063294   0.016706  -0.009127   0.000076  -0.000151
    32  H   -0.074814   0.016871  -0.002181   0.000657   0.000098  -0.000061
    33  H   -0.022936  -0.019622  -0.001759   0.000305  -0.000877   0.006233
    34  H    0.013485  -0.000818   0.000063   0.000023   0.000009   0.000025
    35  H    0.001574   0.000295  -0.000124   0.000064  -0.000215   0.001986
    36  H   -0.019325   0.000729  -0.000364   0.000647   0.000875   0.001058
    37  C    0.047951  -0.101957   0.152744  -0.050983  -0.000578   0.012718
    38  C   -0.005503  -0.000698  -0.012613   0.001236   0.000983   0.004860
    39  C   -0.007787   0.005565  -0.011035  -0.000598   0.000080   0.003288
    40  H    0.004882  -0.024912  -0.003238  -0.002887  -0.000289  -0.013089
    41  H   -0.002870   0.017876  -0.070916   0.001974  -0.002088   0.001386
    42  H    0.001057  -0.004632   0.006542  -0.000405  -0.000038  -0.000113
    43  H    0.000020   0.000049  -0.000179   0.000028   0.000001  -0.000073
    44  H   -0.000270  -0.000412  -0.001076  -0.000059   0.000000   0.000334
               7          8          9         10         11         12
     1  C   -0.035624  -0.002728   0.004728   0.136740   0.000455   0.182481
     2  C    0.435299   0.015513  -0.025454   0.014199   0.000934  -0.028907
     3  C   -0.040093  -0.020480  -0.036647   0.021339   0.016507   0.015293
     4  C    0.009238   0.370106   0.407869  -0.164235  -0.159222  -0.002772
     5  C    0.000831  -0.009362  -0.007560   0.403493   0.741798   0.000772
     6  H    0.001043   0.000357  -0.000359  -0.040427   0.000273  -0.039208
     7  H    0.492742  -0.000022  -0.000367   0.002944   0.000035  -0.011276
     8  H   -0.000022   0.467541  -0.011140   0.006422   0.011077   0.000012
     9  H   -0.000367  -0.011140   0.440853   0.000513   0.002237   0.000179
    10  O    0.002944   0.006422   0.000513   7.999958  -0.103062  -0.038217
    11  O    0.000035   0.011077   0.002237  -0.103062   7.859995  -0.000076
    12  C   -0.011276   0.000012   0.000179  -0.038217  -0.000076   5.229667
    13  C   -0.000273  -0.000015   0.000030  -0.002967  -0.000065   0.252051
    14  C   -0.032590   0.000609  -0.004234  -0.005759  -0.000085   0.012077
    15  O    0.002595  -0.001059  -0.001181  -0.000315  -0.000216  -0.000386
    16  Si   0.000066  -0.000518  -0.000480  -0.000006  -0.000175   0.000028
    17  C    0.000068  -0.004443  -0.001622  -0.000039  -0.000169   0.000002
    18  C   -0.000209  -0.000198   0.000216  -0.000001  -0.000001  -0.000001
    19  C   -0.000009   0.000214  -0.000243   0.000000   0.000001   0.000002
    20  H    0.000002   0.000003  -0.000003   0.000000   0.000000   0.000000
    21  H   -0.000018  -0.000038  -0.000010   0.000000   0.000000   0.000000
    22  H    0.000028   0.000003  -0.000005   0.000000   0.000000   0.000000
    23  H    0.000000  -0.000003   0.000019   0.000000   0.000000   0.000000
    24  H    0.000028  -0.000007   0.000002   0.000000   0.000000   0.000000
    25  H   -0.000005   0.000000   0.000315   0.000000   0.000000   0.000000
    26  H   -0.000001   0.000378  -0.000006   0.000000  -0.000002   0.000000
    27  H    0.000003  -0.003160   0.000267   0.000002   0.000027  -0.000001
    28  H   -0.000003   0.001198   0.000028  -0.000001  -0.000017   0.000000
    29  H   -0.006695   0.000021   0.000350   0.000641  -0.000006   0.007425
    30  H    0.006276   0.000386  -0.006395   0.004602  -0.000038  -0.010448
    31  H   -0.003052  -0.000280   0.001294  -0.000230  -0.000004  -0.000466
    32  H   -0.000267  -0.000003  -0.000019   0.004708   0.000012   0.436264
    33  H    0.001453   0.000005  -0.000054  -0.000039  -0.000068   0.418555
    34  H   -0.000024   0.000000   0.000000   0.000218   0.000002  -0.053091
    35  H    0.000164   0.000000  -0.000001  -0.000869   0.000003  -0.046577
    36  H   -0.000057  -0.000006  -0.000007   0.008700   0.000297  -0.035506
    37  C   -0.014031  -0.014487   0.008909  -0.012289   0.001641  -0.002292
    38  C    0.002274   0.000278  -0.000543   0.001398   0.000018   0.000769
    39  C    0.000729   0.000035  -0.000015  -0.000026   0.000003   0.000436
    40  H    0.000895  -0.000654   0.000154   0.003463  -0.000588   0.000507
    41  H   -0.000077   0.003302  -0.000643  -0.000063  -0.000079   0.000036
    42  H    0.000746   0.000011   0.000013  -0.000005   0.000001  -0.000032
    43  H    0.000052   0.000000   0.000000   0.000000   0.000000   0.000014
    44  H    0.000141   0.000002   0.000001   0.000007  -0.000001  -0.000094
              13         14         15         16         17         18
     1  C   -0.043880  -0.029535   0.012696  -0.001339   0.000299   0.000075
     2  C    0.007555   0.159440  -0.081374   0.007733   0.000080  -0.001735
     3  C    0.000251  -0.027291   0.173269  -0.084030   0.020082  -0.005429
     4  C   -0.000506   0.010333  -0.020466   0.005108  -0.001677   0.000387
     5  C    0.000440  -0.006020  -0.002283  -0.000580  -0.001231  -0.000010
     6  H   -0.012651   0.006503  -0.000085   0.000065  -0.000019  -0.000004
     7  H   -0.000273  -0.032590   0.002595   0.000066   0.000068  -0.000209
     8  H   -0.000015   0.000609  -0.001059  -0.000518  -0.004443  -0.000198
     9  H    0.000030  -0.004234  -0.001181  -0.000480  -0.001622   0.000216
    10  O   -0.002967  -0.005759  -0.000315  -0.000006  -0.000039  -0.000001
    11  O   -0.000065  -0.000085  -0.000216  -0.000175  -0.000169  -0.000001
    12  C    0.252051   0.012077  -0.000386   0.000028   0.000002  -0.000001
    13  C    5.052159  -0.000331   0.000013  -0.000003   0.000000   0.000000
    14  C   -0.000331   5.166660  -0.012555   0.000261  -0.000416   0.000065
    15  O    0.000013  -0.012555   8.055130   0.398482  -0.029766  -0.026354
    16  Si  -0.000003   0.000261   0.398482  12.414506   0.327046   0.346584
    17  C    0.000000  -0.000416  -0.029766   0.327046   5.217419  -0.058287
    18  C    0.000000   0.000065  -0.026354   0.346584  -0.058287   5.186579
    19  C    0.000000   0.000946  -0.020919   0.396377  -0.048600  -0.045049
    20  H    0.000000   0.000001   0.001100  -0.026766   0.001385   0.386176
    21  H    0.000000  -0.000009   0.001134  -0.029996   0.001303   0.386607
    22  H    0.000000  -0.000017  -0.000428  -0.041546   0.003606   0.396943
    23  H    0.000000  -0.000024   0.001218  -0.043084   0.002377   0.002478
    24  H    0.000000  -0.000129   0.000977  -0.032534   0.003590   0.000294
    25  H    0.000000   0.000142   0.000973  -0.034518   0.000829   0.003453
    26  H    0.000000   0.000006   0.001081  -0.020528   0.380695   0.001480
    27  H    0.000000   0.000063   0.000340  -0.038306   0.394691   0.003452
    28  H    0.000000   0.000014   0.000382  -0.037614   0.393081   0.002200
    29  H    0.000351   0.431164   0.000598   0.000024  -0.000004   0.000005
    30  H   -0.000220   0.412506  -0.000333  -0.000160   0.000022  -0.000009
    31  H    0.000046   0.424489   0.006541  -0.002078   0.000357   0.000126
    32  H   -0.030935  -0.006433  -0.000011  -0.000002   0.000000   0.000000
    33  H   -0.034024   0.004808  -0.000003   0.000001   0.000000   0.000000
    34  H    0.423124   0.000023   0.000000   0.000000   0.000000   0.000000
    35  H    0.411576  -0.000007   0.000000   0.000000   0.000000   0.000000
    36  H    0.421162  -0.000081   0.000000   0.000000   0.000000   0.000000
    37  C   -0.000158   0.009073  -0.080992   0.026104  -0.015041   0.014852
    38  C    0.000238  -0.000161   0.016322  -0.009674   0.002330  -0.003830
    39  C    0.000015  -0.000279   0.003067  -0.000240   0.000045   0.000631
    40  H    0.000184  -0.000940   0.004029   0.000340   0.000006   0.000163
    41  H   -0.000003  -0.000202  -0.005962   0.002817   0.000365  -0.006055
    42  H    0.000005  -0.000393   0.005003  -0.001762   0.000414  -0.002157
    43  H   -0.000005   0.000002  -0.000007   0.000023  -0.000001   0.000022
    44  H    0.000044  -0.000030   0.000011  -0.000036   0.000003  -0.000016
              19         20         21         22         23         24
     1  C   -0.000051  -0.000001   0.000003   0.000008   0.000001   0.000015
     2  C    0.000723   0.000017   0.000161   0.000053  -0.000043   0.000107
     3  C   -0.000206   0.000256  -0.004445   0.002255   0.000028   0.000046
     4  C    0.000051  -0.000020   0.000396  -0.000055  -0.000011   0.000052
     5  C    0.000048  -0.000001   0.000007  -0.000002   0.000000  -0.000001
     6  H    0.000000   0.000000   0.000001   0.000000   0.000000   0.000000
     7  H   -0.000009   0.000002  -0.000018   0.000028   0.000000   0.000028
     8  H    0.000214   0.000003  -0.000038   0.000003  -0.000003  -0.000007
     9  H   -0.000243  -0.000003  -0.000010  -0.000005   0.000019   0.000002
    10  O    0.000000   0.000000   0.000000   0.000000   0.000000   0.000000
    11  O    0.000001   0.000000   0.000000   0.000000   0.000000   0.000000
    12  C    0.000002   0.000000   0.000000   0.000000   0.000000   0.000000
    13  C    0.000000   0.000000   0.000000   0.000000   0.000000   0.000000
    14  C    0.000946   0.000001  -0.000009  -0.000017  -0.000024  -0.000129
    15  O   -0.020919   0.001100   0.001134  -0.000428   0.001218   0.000977
    16  Si   0.396377  -0.026766  -0.029996  -0.041546  -0.043084  -0.032534
    17  C   -0.048600   0.001385   0.001303   0.003606   0.002377   0.003590
    18  C   -0.045049   0.386176   0.386607   0.396943   0.002478   0.000294
    19  C    5.113923   0.001053   0.002598   0.001421   0.394431   0.387812
    20  H    0.001053   0.499351  -0.016293  -0.015568   0.000175   0.000235
    21  H    0.002598  -0.016293   0.510512  -0.019306  -0.000121  -0.000125
    22  H    0.001421  -0.015568  -0.019306   0.507121   0.000262   0.000857
    23  H    0.394431   0.000175  -0.000121   0.000262   0.520139  -0.017506
    24  H    0.387812   0.000235  -0.000125   0.000857  -0.017506   0.515452
    25  H    0.389557  -0.000147  -0.000097  -0.000185  -0.018036  -0.018554
    26  H    0.000470   0.000480   0.000120  -0.000124   0.000255  -0.000144
    27  H    0.000830  -0.000132  -0.000165  -0.000088   0.000248  -0.000185
    28  H    0.003198   0.000149   0.000632  -0.000210  -0.000169  -0.000095
    29  H   -0.000019   0.000000   0.000000   0.000000   0.000000   0.000001
    30  H   -0.000016   0.000000   0.000000   0.000000   0.000000   0.000005
    31  H   -0.001420  -0.000005  -0.000004  -0.000001   0.000090   0.000155
    32  H    0.000000   0.000000   0.000000   0.000000   0.000000   0.000000
    33  H    0.000000   0.000000   0.000000   0.000000   0.000000   0.000000
    34  H    0.000000   0.000000   0.000000   0.000000   0.000000   0.000000
    35  H    0.000000   0.000000   0.000000   0.000000   0.000000   0.000000
    36  H    0.000000   0.000000   0.000000   0.000000   0.000000   0.000000
    37  C   -0.001554  -0.000605   0.005075  -0.002975   0.000066   0.000163
    38  C    0.000594   0.000414  -0.002136  -0.001076  -0.000023  -0.000072
    39  C    0.000026   0.000000   0.000992   0.000191  -0.000001   0.000000
    40  H    0.000009   0.000001   0.000095  -0.000026  -0.000001   0.000001
    41  H    0.000343   0.000189   0.000756   0.000215  -0.000009  -0.000014
    42  H    0.000039   0.000321  -0.002940   0.001345  -0.000004   0.000081
    43  H    0.000000  -0.000001   0.000014  -0.000022   0.000000   0.000000
    44  H    0.000000   0.000001  -0.000025   0.000005   0.000000   0.000000
              25         26         27         28         29         30
     1  C   -0.000005  -0.000002   0.000007  -0.000027  -0.018798   0.007792
     2  C    0.000007   0.000002  -0.000339   0.000087  -0.045099  -0.035007
     3  C    0.000856  -0.000657  -0.003034   0.005707   0.010564  -0.029237
     4  C   -0.000571   0.000398   0.002291  -0.006486  -0.001014   0.021641
     5  C    0.000013  -0.000021   0.000541  -0.000102   0.000162  -0.004874
     6  H    0.000000   0.000000   0.000000  -0.000001  -0.000069   0.000208
     7  H   -0.000005  -0.000001   0.000003  -0.000003  -0.006695   0.006276
     8  H    0.000000   0.000378  -0.003160   0.001198   0.000021   0.000386
     9  H    0.000315  -0.000006   0.000267   0.000028   0.000350  -0.006395
    10  O    0.000000   0.000000   0.000002  -0.000001   0.000641   0.004602
    11  O    0.000000  -0.000002   0.000027  -0.000017  -0.000006  -0.000038
    12  C    0.000000   0.000000  -0.000001   0.000000   0.007425  -0.010448
    13  C    0.000000   0.000000   0.000000   0.000000   0.000351  -0.000220
    14  C    0.000142   0.000006   0.000063   0.000014   0.431164   0.412506
    15  O    0.000973   0.001081   0.000340   0.000382   0.000598  -0.000333
    16  Si  -0.034518  -0.020528  -0.038306  -0.037614   0.000024  -0.000160
    17  C    0.000829   0.380695   0.394691   0.393081  -0.000004   0.000022
    18  C    0.003453   0.001480   0.003452   0.002200   0.000005  -0.000009
    19  C    0.389557   0.000470   0.000830   0.003198  -0.000019  -0.000016
    20  H   -0.000147   0.000480  -0.000132   0.000149   0.000000   0.000000
    21  H   -0.000097   0.000120  -0.000165   0.000632   0.000000   0.000000
    22  H   -0.000185  -0.000124  -0.000088  -0.000210   0.000000   0.000000
    23  H   -0.018036   0.000255   0.000248  -0.000169   0.000000   0.000000
    24  H   -0.018554  -0.000144  -0.000185  -0.000095   0.000001   0.000005
    25  H    0.517077   0.000251   0.000770  -0.000130   0.000008  -0.000023
    26  H    0.000251   0.493117  -0.015091  -0.014410   0.000000  -0.000001
    27  H    0.000770  -0.015091   0.503100  -0.020507   0.000000   0.000008
    28  H   -0.000130  -0.014410  -0.020507   0.506351   0.000000  -0.000003
    29  H    0.000008   0.000000   0.000000   0.000000   0.502496  -0.025230
    30  H   -0.000023  -0.000001   0.000008  -0.000003  -0.025230   0.512530
    31  H    0.000055  -0.000005   0.000003  -0.000010  -0.019134  -0.021978
    32  H    0.000000   0.000000   0.000000   0.000000  -0.001273   0.000716
    33  H    0.000000   0.000000   0.000000   0.000000  -0.007512   0.000316
    34  H    0.000000   0.000000   0.000000   0.000000   0.000009  -0.000008
    35  H    0.000000   0.000000   0.000000   0.000000  -0.000038   0.000007
    36  H    0.000000   0.000000   0.000000   0.000000  -0.000009   0.000014
    37  C    0.000075   0.000286   0.001370  -0.004049  -0.000331  -0.000110
    38  C   -0.000026  -0.000045  -0.000110   0.000406  -0.000062  -0.000066
    39  C   -0.000001  -0.000001  -0.000001   0.000005   0.000000   0.000004
    40  H    0.000000   0.000002   0.000001   0.000008   0.000000  -0.000021
    41  H   -0.000004  -0.000008  -0.000313   0.003154   0.000010   0.000010
    42  H   -0.000002  -0.000008  -0.000011   0.000004   0.000004   0.000004
    43  H    0.000000   0.000000   0.000000   0.000000   0.000000   0.000000
    44  H    0.000000   0.000000   0.000000   0.000001   0.000000   0.000000
              31         32         33         34         35         36
     1  C    0.009608  -0.074814  -0.022936   0.013485   0.001574  -0.019325
     2  C   -0.063294   0.016871  -0.019622  -0.000818   0.000295   0.000729
     3  C    0.016706  -0.002181  -0.001759   0.000063  -0.000124  -0.000364
     4  C   -0.009127   0.000657   0.000305   0.000023   0.000064   0.000647
     5  C    0.000076   0.000098  -0.000877   0.000009  -0.000215   0.000875
     6  H   -0.000151  -0.000061   0.006233   0.000025   0.001986   0.001058
     7  H   -0.003052  -0.000267   0.001453  -0.000024   0.000164  -0.000057
     8  H   -0.000280  -0.000003   0.000005   0.000000   0.000000  -0.000006
     9  H    0.001294  -0.000019  -0.000054   0.000000  -0.000001  -0.000007
    10  O   -0.000230   0.004708  -0.000039   0.000218  -0.000869   0.008700
    11  O   -0.000004   0.000012  -0.000068   0.000002   0.000003   0.000297
    12  C   -0.000466   0.436264   0.418555  -0.053091  -0.046577  -0.035506
    13  C    0.000046  -0.030935  -0.034024   0.423124   0.411576   0.421162
    14  C    0.424489  -0.006433   0.004808   0.000023  -0.000007  -0.000081
    15  O    0.006541  -0.000011  -0.000003   0.000000   0.000000   0.000000
    16  Si  -0.002078  -0.000002   0.000001   0.000000   0.000000   0.000000
    17  C    0.000357   0.000000   0.000000   0.000000   0.000000   0.000000
    18  C    0.000126   0.000000   0.000000   0.000000   0.000000   0.000000
    19  C   -0.001420   0.000000   0.000000   0.000000   0.000000   0.000000
    20  H   -0.000005   0.000000   0.000000   0.000000   0.000000   0.000000
    21  H   -0.000004   0.000000   0.000000   0.000000   0.000000   0.000000
    22  H   -0.000001   0.000000   0.000000   0.000000   0.000000   0.000000
    23  H    0.000090   0.000000   0.000000   0.000000   0.000000   0.000000
    24  H    0.000155   0.000000   0.000000   0.000000   0.000000   0.000000
    25  H    0.000055   0.000000   0.000000   0.000000   0.000000   0.000000
    26  H   -0.000005   0.000000   0.000000   0.000000   0.000000   0.000000
    27  H    0.000003   0.000000   0.000000   0.000000   0.000000   0.000000
    28  H   -0.000010   0.000000   0.000000   0.000000   0.000000   0.000000
    29  H   -0.019134  -0.001273  -0.007512   0.000009  -0.000038  -0.000009
    30  H   -0.021978   0.000716   0.000316  -0.000008   0.000007   0.000014
    31  H    0.488284  -0.000149   0.000380  -0.000002   0.000002  -0.000001
    32  H   -0.000149   0.524621  -0.023853  -0.003733  -0.004440   0.006146
    33  H    0.000380  -0.023853   0.516659  -0.004146   0.006187  -0.003096
    34  H   -0.000002  -0.003733  -0.004146   0.522282  -0.024760  -0.022979
    35  H    0.000002  -0.004440   0.006187  -0.024760   0.541594  -0.026721
    36  H   -0.000001   0.006146  -0.003096  -0.022979  -0.026721   0.510322
    37  C    0.001281   0.000355   0.000183  -0.000003   0.000055   0.000022
    38  C   -0.000108  -0.000031  -0.000025   0.000005  -0.000003  -0.000016
    39  C   -0.000010   0.000307  -0.000007  -0.000001  -0.000041   0.000008
    40  H   -0.000028  -0.000055  -0.000037   0.000002   0.000004  -0.000012
    41  H   -0.000071   0.000005   0.000002   0.000000   0.000002   0.000000
    42  H    0.000059  -0.000005   0.000000   0.000000   0.000001   0.000000
    43  H    0.000000   0.000006   0.000000   0.000000  -0.000004   0.000000
    44  H    0.000000  -0.000006   0.000001  -0.000001   0.000058  -0.000002
              37         38         39         40         41         42
     1  C    0.047951  -0.005503  -0.007787   0.004882  -0.002870   0.001057
     2  C   -0.101957  -0.000698   0.005565  -0.024912   0.017876  -0.004632
     3  C    0.152744  -0.012613  -0.011035  -0.003238  -0.070916   0.006542
     4  C   -0.050983   0.001236  -0.000598  -0.002887   0.001974  -0.000405
     5  C   -0.000578   0.000983   0.000080  -0.000289  -0.002088  -0.000038
     6  H    0.012718   0.004860   0.003288  -0.013089   0.001386  -0.000113
     7  H   -0.014031   0.002274   0.000729   0.000895  -0.000077   0.000746
     8  H   -0.014487   0.000278   0.000035  -0.000654   0.003302   0.000011
     9  H    0.008909  -0.000543  -0.000015   0.000154  -0.000643   0.000013
    10  O   -0.012289   0.001398  -0.000026   0.003463  -0.000063  -0.000005
    11  O    0.001641   0.000018   0.000003  -0.000588  -0.000079   0.000001
    12  C   -0.002292   0.000769   0.000436   0.000507   0.000036  -0.000032
    13  C   -0.000158   0.000238   0.000015   0.000184  -0.000003   0.000005
    14  C    0.009073  -0.000161  -0.000279  -0.000940  -0.000202  -0.000393
    15  O   -0.080992   0.016322   0.003067   0.004029  -0.005962   0.005003
    16  Si   0.026104  -0.009674  -0.000240   0.000340   0.002817  -0.001762
    17  C   -0.015041   0.002330   0.000045   0.000006   0.000365   0.000414
    18  C    0.014852  -0.003830   0.000631   0.000163  -0.006055  -0.002157
    19  C   -0.001554   0.000594   0.000026   0.000009   0.000343   0.000039
    20  H   -0.000605   0.000414   0.000000   0.000001   0.000189   0.000321
    21  H    0.005075  -0.002136   0.000992   0.000095   0.000756  -0.002940
    22  H   -0.002975  -0.001076   0.000191  -0.000026   0.000215   0.001345
    23  H    0.000066  -0.000023  -0.000001  -0.000001  -0.000009  -0.000004
    24  H    0.000163  -0.000072   0.000000   0.000001  -0.000014   0.000081
    25  H    0.000075  -0.000026  -0.000001   0.000000  -0.000004  -0.000002
    26  H    0.000286  -0.000045  -0.000001   0.000002  -0.000008  -0.000008
    27  H    0.001370  -0.000110  -0.000001   0.000001  -0.000313  -0.000011
    28  H   -0.004049   0.000406   0.000005   0.000008   0.003154   0.000004
    29  H   -0.000331  -0.000062   0.000000   0.000000   0.000010   0.000004
    30  H   -0.000110  -0.000066   0.000004  -0.000021   0.000010   0.000004
    31  H    0.001281  -0.000108  -0.000010  -0.000028  -0.000071   0.000059
    32  H    0.000355  -0.000031   0.000307  -0.000055   0.000005  -0.000005
    33  H    0.000183  -0.000025  -0.000007  -0.000037   0.000002   0.000000
    34  H   -0.000003   0.000005  -0.000001   0.000002   0.000000   0.000000
    35  H    0.000055  -0.000003  -0.000041   0.000004   0.000002   0.000001
    36  H    0.000022  -0.000016   0.000008  -0.000012   0.000000   0.000000
    37  C    5.509806   0.149500  -0.042594   0.407966   0.437352  -0.057962
    38  C    0.149500   5.276560   0.517308  -0.041638  -0.049490   0.411199
    39  C   -0.042594   0.517308   5.011547   0.003299  -0.004448  -0.012693
    40  H    0.407966  -0.041638   0.003299   0.472404  -0.010627   0.002219
    41  H    0.437352  -0.049490  -0.004448  -0.010627   0.487365   0.002339
    42  H   -0.057962   0.411199  -0.012693   0.002219   0.002339   0.470077
    43  H    0.006705  -0.050966   0.424915   0.000173  -0.000337  -0.006049
    44  H    0.005782  -0.075418   0.440753   0.000146   0.000754   0.003986
              43         44
     1  C    0.000020  -0.000270
     2  C    0.000049  -0.000412
     3  C   -0.000179  -0.001076
     4  C    0.000028  -0.000059
     5  C    0.000001   0.000000
     6  H   -0.000073   0.000334
     7  H    0.000052   0.000141
     8  H    0.000000   0.000002
     9  H    0.000000   0.000001
    10  O    0.000000   0.000007
    11  O    0.000000  -0.000001
    12  C    0.000014  -0.000094
    13  C   -0.000005   0.000044
    14  C    0.000002  -0.000030
    15  O   -0.000007   0.000011
    16  Si   0.000023  -0.000036
    17  C   -0.000001   0.000003
    18  C    0.000022  -0.000016
    19  C    0.000000   0.000000
    20  H   -0.000001   0.000001
    21  H    0.000014  -0.000025
    22  H   -0.000022   0.000005
    23  H    0.000000   0.000000
    24  H    0.000000   0.000000
    25  H    0.000000   0.000000
    26  H    0.000000   0.000000
    27  H    0.000000   0.000000
    28  H    0.000000   0.000001
    29  H    0.000000   0.000000
    30  H    0.000000   0.000000
    31  H    0.000000   0.000000
    32  H    0.000006  -0.000006
    33  H    0.000000   0.000001
    34  H    0.000000  -0.000001
    35  H   -0.000004   0.000058
    36  H    0.000000  -0.000002
    37  C    0.006705   0.005782
    38  C   -0.050966  -0.075418
    39  C    0.424915   0.440753
    40  H    0.000173   0.000146
    41  H   -0.000337   0.000754
    42  H   -0.006049   0.003986
    43  H    0.498828  -0.022358
    44  H   -0.022358   0.502732
 Mulliken charges:
               1
     1  C   -0.049799
     2  C   -0.084511
     3  C    0.235253
     4  C   -0.478577
     5  C    0.346352
     6  H    0.171846
     7  H    0.187039
     8  H    0.191134
     9  H    0.229010
    10  O   -0.240797
    11  O   -0.371441
    12  C   -0.287218
    13  C   -0.443210
    14  C   -0.511660
    15  O   -0.400265
    16  Si   0.480406
    17  C   -0.588782
    18  C   -0.583442
    19  C   -0.576581
    20  H    0.168232
    21  H    0.165320
    22  H    0.167322
    23  H    0.157247
    24  H    0.159495
    25  H    0.157922
    26  H    0.172033
    27  H    0.173429
    28  H    0.167229
    29  H    0.171461
    30  H    0.167128
    31  H    0.172057
    32  H    0.157505
    33  H    0.162967
    34  H    0.150294
    35  H    0.140230
    36  H    0.158202
    37  C   -0.397044
    38  C   -0.132359
    39  C   -0.333472
    40  H    0.198089
    41  H    0.194024
    42  H    0.183741
    43  H    0.149149
    44  H    0.145041
 Sum of Mulliken charges =   0.00000
 Mulliken charges with hydrogens summed into heavy atoms:
               1
     1  C    0.122046
     2  C    0.102528
     3  C    0.235253
     4  C   -0.058433
     5  C    0.346352
    10  O   -0.240797
    11  O   -0.371441
    12  C    0.033255
    13  C    0.005516
    14  C   -0.001015
    15  O   -0.400265
    16  Si   0.480406
    17  C   -0.076091
    18  C   -0.082568
    19  C   -0.101917
    37  C   -0.004931
    38  C    0.051382
    39  C   -0.039282
 Electronic spatial extent (au):  <R**2>=           5688.2123
 Charge=              0.0000 electrons
 Dipole moment (field-independent basis, Debye):
    X=              2.7241    Y=              3.9052    Z=              2.3968  Tot=              5.3307
 Quadrupole moment (field-independent basis, Debye-Ang):
   XX=           -118.7082   YY=           -128.1478   ZZ=           -124.2921
   XY=            -12.8060   XZ=             -9.2033   YZ=             -8.1157
 Traceless Quadrupole moment (field-independent basis, Debye-Ang):
   XX=              5.0079   YY=             -4.4318   ZZ=             -0.5761
   XY=            -12.8060   XZ=             -9.2033   YZ=             -8.1157
 Octapole moment (field-independent basis, Debye-Ang**2):
  XXX=             22.7201  YYY=             26.0464  ZZZ=              8.4441  XYY=             15.4285
  XXY=             20.2763  XXZ=             19.8095  XZZ=             -0.7801  YZZ=             14.7731
  YYZ=             29.8305  XYZ=             24.0000
 Hexadecapole moment (field-independent basis, Debye-Ang**3):
 XXXX=          -4854.1447 YYYY=          -1739.6343 ZZZZ=          -1127.9716 XXXY=            -62.5984
 XXXZ=            -70.8101 YYYX=            -68.6944 YYYZ=            -48.7350 ZZZX=            -23.0193
 ZZZY=             -6.8098 XXYY=          -1183.9665 XXZZ=          -1038.2685 YYZZ=           -532.4421
 XXYZ=            -26.2852 YYXZ=            -21.0746 ZZXY=            -30.4296
 N-N= 1.620724156416D+03 E-N=-5.734550222989D+03  KE= 1.059314688129D+03
 1\1\GINC-CPU-E-126\SP\RM062X\def2TZVP\C14H26O3Si1\KE291\26-Jun-2019\0\
 \# m062x/def2tzvp int=ultrafine scrf=(solvent=chloroform)\\IP1_4ginp00
 3\\0,1\C,0,-2.358478,0.222846,0.28658\C,0,-0.990035,0.244894,0.981522\
 C,0,0.119503,-0.008209,-0.076645\C,0,-0.139176,-1.386923,-0.70906\C,0,
 -1.582536,-1.695998,-1.076372\H,0,-2.398606,1.039243,-0.442925\H,0,-0.
 853182,1.26811,1.350643\H,0,0.459337,-1.543927,-1.60904\H,0,0.160526,-
 2.163428,0.003845\O,0,-2.576852,-1.007795,-0.477223\O,0,-1.871801,-2.5
 9401,-1.839872\C,0,-3.563114,0.361845,1.215796\C,0,-4.887882,0.537623,
 0.46701\C,0,-0.902851,-0.714386,2.179864\O,0,1.362878,-0.00594,0.62001
 3\Si,0,2.989446,-0.183557,0.221806\C,0,3.284719,-1.493671,-1.104974\C,
 0,3.731258,1.45482,-0.350866\C,0,3.792162,-0.709738,1.839758\H,0,4.808
 882,1.336155,-0.514509\H,0,3.293049,1.808939,-1.289403\H,0,3.596376,2.
 239674,0.400966\H,0,4.877684,-0.80447,1.724515\H,0,3.602528,0.02321,2.
 630892\H,0,3.405037,-1.67634,2.178615\H,0,4.364045,-1.623632,-1.247988
 \H,0,2.869755,-2.465819,-0.820593\H,0,2.860967,-1.214522,-2.075291\H,0
 ,-1.545782,-0.372859,2.994949\H,0,-1.215294,-1.731065,1.920573\H,0,0.1
 21547,-0.75533,2.552101\H,0,-3.382074,1.229038,1.862903\H,0,-3.616461,
 -0.516147,1.867808\H,0,-5.720578,0.633424,1.170192\H,0,-4.872867,1.437
 384,-0.158268\H,0,-5.087997,-0.319486,-0.181352\C,0,0.135396,1.079321,
 -1.187921\C,0,0.221855,2.494325,-0.685473\C,0,-0.581632,3.487825,-1.06
 98\H,0,-0.739182,0.970998,-1.838987\H,0,1.004025,0.858679,-1.823353\H,
 0,1.011723,2.697563,0.035349\H,0,-0.463688,4.496765,-0.685541\H,0,-1.3
 80955,3.33215,-1.791236\\Version=ES64L-G09RevD.01\State=1-A\HF=-1064.3
 416953\RMSD=1.597e-09\Dipole=1.0717487,1.5364208,0.9429913\Quadrupole=
 3.7232259,-3.2949308,-0.4282952,-9.5209643,-6.8424204,-6.0338279\PG=C0
 1 [X(C14H26O3Si1)]\\@


 THERE IS NO SCIENCE WITHOUT FANCY, NOR ART WITHOUT FACTS.
     -- VLADIMIR NABAKOV
 Job cpu time:       0 days  2 hours 25 minutes 36.5 seconds.
 File lengths (MBytes):  RWF=    409 Int=      0 D2E=      0 Chk=     21 Scr=      1
 Normal termination of Gaussian 09 at Wed Jun 26 13:55:34 2019.
