 Entering Gaussian System, Link 0=/usr/local/Cluster-Apps/gaussian/g09/g09
 Initial command:
 /usr/local/Cluster-Apps/gaussian/g09/l1.exe "/home/ke291/rds/hpc-work/26Jun1304IP1NMR/Gau-379034.inp" -scrdir="/home/ke291/rds/hpc-work/26Jun1304IP1NMR/"
 Entering Link 1 = /usr/local/Cluster-Apps/gaussian/g09/l1.exe PID=    379101.
  
 Copyright (c) 1988,1990,1992,1993,1995,1998,2003,2009,2013,
            Gaussian, Inc.  All Rights Reserved.
  
 This is part of the Gaussian(R) 09 program.  It is based on
 the Gaussian(R) 03 system (copyright 2003, Gaussian, Inc.),
 the Gaussian(R) 98 system (copyright 1998, Gaussian, Inc.),
 the Gaussian(R) 94 system (copyright 1995, Gaussian, Inc.),
 the Gaussian 92(TM) system (copyright 1992, Gaussian, Inc.),
 the Gaussian 90(TM) system (copyright 1990, Gaussian, Inc.),
 the Gaussian 88(TM) system (copyright 1988, Gaussian, Inc.),
 the Gaussian 86(TM) system (copyright 1986, Carnegie Mellon
 University), and the Gaussian 82(TM) system (copyright 1983,
 Carnegie Mellon University). Gaussian is a federally registered
 trademark of Gaussian, Inc.
  
 This software contains proprietary and confidential information,
 including trade secrets, belonging to Gaussian, Inc.
  
 This software is provided under written license and may be
 used, copied, transmitted, or stored only in accord with that
 written license.
  
 The following legend is applicable only to US Government
 contracts under FAR:
  
                    RESTRICTED RIGHTS LEGEND
  
 Use, reproduction and disclosure by the US Government is
 subject to restrictions as set forth in subparagraphs (a)
 and (c) of the Commercial Computer Software - Restricted
 Rights clause in FAR 52.227-19.
  
 Gaussian, Inc.
 340 Quinnipiac St., Bldg. 40, Wallingford CT 06492
  
  
 ---------------------------------------------------------------
 Warning -- This program may not be used in any manner that
 competes with the business of Gaussian, Inc. or will provide
 assistance to any competitor of Gaussian, Inc.  The licensee
 of this program is prohibited from giving any competitor of
 Gaussian, Inc. access to this program.  By using this program,
 the user acknowledges that Gaussian, Inc. is engaged in the
 business of creating and licensing software in the field of
 computational chemistry and represents and warrants to the
 licensee that it is not a competitor of Gaussian, Inc. and that
 it will not use this program in any manner prohibited above.
 ---------------------------------------------------------------
  

 Cite this work as:
 Gaussian 09, Revision D.01,
 M. J. Frisch, G. W. Trucks, H. B. Schlegel, G. E. Scuseria, 
 M. A. Robb, J. R. Cheeseman, G. Scalmani, V. Barone, B. Mennucci, 
 G. A. Petersson, H. Nakatsuji, M. Caricato, X. Li, H. P. Hratchian, 
 A. F. Izmaylov, J. Bloino, G. Zheng, J. L. Sonnenberg, M. Hada, 
 M. Ehara, K. Toyota, R. Fukuda, J. Hasegawa, M. Ishida, T. Nakajima, 
 Y. Honda, O. Kitao, H. Nakai, T. Vreven, J. A. Montgomery, Jr., 
 J. E. Peralta, F. Ogliaro, M. Bearpark, J. J. Heyd, E. Brothers, 
 K. N. Kudin, V. N. Staroverov, T. Keith, R. Kobayashi, J. Normand, 
 K. Raghavachari, A. Rendell, J. C. Burant, S. S. Iyengar, J. Tomasi, 
 M. Cossi, N. Rega, J. M. Millam, M. Klene, J. E. Knox, J. B. Cross, 
 V. Bakken, C. Adamo, J. Jaramillo, R. Gomperts, R. E. Stratmann, 
 O. Yazyev, A. J. Austin, R. Cammi, C. Pomelli, J. W. Ochterski, 
 R. L. Martin, K. Morokuma, V. G. Zakrzewski, G. A. Voth, 
 P. Salvador, J. J. Dannenberg, S. Dapprich, A. D. Daniels, 
 O. Farkas, J. B. Foresman, J. V. Ortiz, J. Cioslowski, 
 and D. J. Fox, Gaussian, Inc., Wallingford CT, 2013.
 
 ******************************************
 Gaussian 09:  ES64L-G09RevD.01 24-Apr-2013
                26-Jun-2019 
 ******************************************
 %nprocshared=5
 Will use up to    5 processors via shared memory.
 %mem=6000MB
 %chk=IP1_4ginp009.chk
 --------------------------------------------------------
 # m062x/def2tzvp int=ultrafine scrf=(solvent=chloroform)
 --------------------------------------------------------
 1/38=1/1;
 2/12=2,17=6,18=5,40=1/2;
 3/5=44,7=101,11=2,16=1,25=1,30=1,70=2201,72=7,74=-55,75=-5/1,2,3;
 4//1;
 5/5=2,38=5,53=7/2;
 6/7=2,8=2,9=2,10=2,28=1/1;
 99/5=1,9=1/99;
 ------------
 IP1_4ginp009
 ------------
 Symbolic Z-matrix:
 Charge =  0 Multiplicity = 1
 C                     2.27008   0.47171  -0.50849 
 C                     0.98035   1.19092  -0.96645 
 C                    -0.25729   0.77843  -0.13192 
 C                     0.07582   1.05793   1.34065 
 C                     1.41064   0.52989   1.81968 
 H                     3.11262   1.0831   -0.85385 
 H                     1.14419   2.25248  -0.74013 
 H                     0.09887   2.14346   1.49906 
 H                    -0.69223   0.661     2.00605 
 O                     2.43505   0.47197   0.94465 
 O                     1.61842   0.245     2.98197 
 C                     2.50459  -0.96356  -0.99644 
 C                     3.89296  -1.49483  -0.6248 
 C                     0.78466   1.06296  -2.48341 
 O                    -0.46383  -0.62102  -0.32436 
 Si                   -1.69529  -1.72183   0.01001 
 C                    -3.07897  -1.60231  -1.26842 
 C                    -0.84834  -3.39528  -0.13285 
 C                    -2.41187  -1.51416   1.74453 
 H                    -1.56738  -4.2084    0.01738 
 H                    -0.39539  -3.52828  -1.12085 
 H                    -0.05776  -3.50446   0.61674 
 H                    -3.13563  -2.31582   1.93423 
 H                    -1.63551  -1.58319   2.51364 
 H                    -2.93991  -0.56407   1.87777 
 H                    -3.6369   -0.66336  -1.19961 
 H                    -2.68505  -1.68675  -2.28694 
 H                    -3.79235  -2.4217   -1.12082 
 H                     1.7233    1.25156  -3.01453 
 H                     0.43193   0.06561  -2.75581 
 H                     0.0557    1.79071  -2.84943 
 H                     2.39185  -0.97616  -2.0857 
 H                     1.72326  -1.60987  -0.59135 
 H                     4.0289   -2.51404  -0.9996 
 H                     4.68661  -0.87319  -1.05582 
 H                     4.03205  -1.51059   0.45921 
 C                    -1.53954   1.55853  -0.54141 
 C                    -1.42827   3.05984  -0.53963 
 C                    -2.06178   3.86806   0.31285 
 H                    -2.34187   1.26012   0.14348 
 H                    -1.82704   1.21119  -1.54027 
 H                    -0.79256   3.50373  -1.30522 
 H                    -1.95427   4.94744   0.26165 
 H                    -2.71674   3.47898   1.08909 
 
                          Input orientation:                          
 ---------------------------------------------------------------------
 Center     Atomic      Atomic             Coordinates (Angstroms)
 Number     Number       Type             X           Y           Z
 ---------------------------------------------------------------------
      1          6           0        2.270076    0.471706   -0.508489
      2          6           0        0.980352    1.190918   -0.966450
      3          6           0       -0.257287    0.778432   -0.131918
      4          6           0        0.075822    1.057926    1.340652
      5          6           0        1.410635    0.529885    1.819683
      6          1           0        3.112625    1.083101   -0.853846
      7          1           0        1.144193    2.252480   -0.740129
      8          1           0        0.098872    2.143465    1.499056
      9          1           0       -0.692229    0.661003    2.006051
     10          8           0        2.435052    0.471967    0.944653
     11          8           0        1.618418    0.244999    2.981969
     12          6           0        2.504586   -0.963559   -0.996436
     13          6           0        3.892956   -1.494830   -0.624795
     14          6           0        0.784662    1.062955   -2.483410
     15          8           0       -0.463830   -0.621024   -0.324359
     16         14           0       -1.695288   -1.721833    0.010006
     17          6           0       -3.078971   -1.602314   -1.268421
     18          6           0       -0.848342   -3.395284   -0.132848
     19          6           0       -2.411868   -1.514159    1.744526
     20          1           0       -1.567384   -4.208398    0.017384
     21          1           0       -0.395388   -3.528284   -1.120846
     22          1           0       -0.057759   -3.504459    0.616737
     23          1           0       -3.135632   -2.315816    1.934232
     24          1           0       -1.635506   -1.583190    2.513644
     25          1           0       -2.939906   -0.564066    1.877774
     26          1           0       -3.636898   -0.663360   -1.199605
     27          1           0       -2.685052   -1.686751   -2.286940
     28          1           0       -3.792352   -2.421695   -1.120822
     29          1           0        1.723297    1.251561   -3.014531
     30          1           0        0.431928    0.065605   -2.755808
     31          1           0        0.055704    1.790711   -2.849431
     32          1           0        2.391849   -0.976155   -2.085704
     33          1           0        1.723262   -1.609871   -0.591346
     34          1           0        4.028899   -2.514042   -0.999602
     35          1           0        4.686614   -0.873194   -1.055824
     36          1           0        4.032049   -1.510593    0.459207
     37          6           0       -1.539541    1.558527   -0.541407
     38          6           0       -1.428271    3.059838   -0.539627
     39          6           0       -2.061777    3.868062    0.312845
     40          1           0       -2.341867    1.260121    0.143479
     41          1           0       -1.827037    1.211191   -1.540272
     42          1           0       -0.792557    3.503727   -1.305217
     43          1           0       -1.954268    4.947442    0.261649
     44          1           0       -2.716735    3.478984    1.089087
 ---------------------------------------------------------------------
                    Distance matrix (angstroms):
                    1          2          3          4          5
     1  C    0.000000
     2  C    1.546086   0.000000
     3  C    2.573606   1.548657   0.000000
     4  C    2.928776   2.481649   1.535429   0.000000
     5  C    2.482420   2.895625   2.579241   1.513282   0.000000
     6  H    1.096797   2.137965   3.459814   3.746816   3.217231
     7  H    2.119534   1.097715   2.122942   2.626409   3.096928
     8  H    3.396931   2.786229   2.156442   1.097278   2.104083
     9  H    3.890244   3.451681   2.184920   1.090966   2.115174
    10  O    1.462477   2.507061   2.915753   2.462951   1.348504
    11  O    3.557998   4.109976   3.674114   2.394655   1.214596
    12  C    1.533973   2.639310   3.377849   3.930302   3.370108
    13  C    2.552358   3.976586   4.757643   4.995003   4.029499
    14  C    2.540934   1.534874   2.587687   3.889207   4.380938
    15  O    2.949950   2.404387   1.427645   2.425358   3.071665
    16  Si   4.561202   4.073897   2.887787   3.554506   4.241689
    17  C    5.787172   4.936743   3.862835   4.882300   5.851429
    18  C    4.981892   5.007221   4.215359   4.780833   4.931765
    19  C    5.562404   5.116052   3.663227   3.601019   4.335354
    20  H    6.075032   6.050744   5.158209   5.673212   5.879473
    21  H    4.845575   4.918065   4.420956   5.226312   5.327022
    22  H    4.742872   5.062679   4.352408   4.621391   4.458609
    23  H    6.554300   6.136160   4.704064   4.695520   5.364670
    24  H    5.348781   5.162310   3.804700   3.358578   3.771690
    25  H    5.823314   5.151505   3.610763   3.466118   4.486347
    26  H    6.054615   4.981135   3.826289   4.816640   6.001460
    27  H    5.689914   4.843538   4.076186   5.321194   6.209064
    28  H    6.745351   5.987780   4.869849   5.755813   6.665543
    29  H    2.680930   2.179514   3.529309   4.660396   4.897775
    30  H    2.931578   2.183781   2.804985   4.229952   4.701972
    31  H    3.481842   2.181821   2.916770   4.253725   5.022564
    32  H    2.144467   2.818024   3.730118   4.608837   4.299184
    33  H    2.153795   2.921821   3.136501   3.682909   3.238727
    34  H    3.499906   4.798069   5.473998   5.819155   4.906034
    35  H    2.819218   4.243221   5.293735   5.543620   4.579215
    36  H    2.823206   4.317814   4.897700   4.798538   3.589743
    37  C    3.961748   2.581794   1.555765   2.530246   3.916170
    38  C    4.514108   3.078393   2.596583   3.131357   4.475086
    39  C    5.565499   4.249499   3.605525   3.677306   5.046943
    40  H    4.724053   3.503408   2.157161   2.705425   4.174228
    41  H    4.289260   2.865504   2.152872   3.456022   4.715506
    42  H    4.382653   2.933778   3.015025   3.706298   4.843841
    43  H    6.202452   4.922570   4.518328   4.518169   5.767569
    44  H    6.038564   4.809255   3.851327   3.704481   5.125050
                    6          7          8          9         10
     6  H    0.000000
     7  H    2.292401   0.000000
     8  H    3.967774   2.473566   0.000000
     9  H    4.778503   3.666981   1.755158   0.000000
    10  O    2.016727   2.770385   2.925578   3.307898   0.000000
    11  O    4.201017   4.255453   2.848197   2.542551   2.206595
    12  C    2.139827   3.501324   4.654948   4.676939   2.415243
    13  C    2.703166   4.648799   5.669480   5.709018   2.908082
    14  C    2.841707   2.140855   4.183043   4.743209   3.850282
    15  O    3.996927   3.318980   3.359148   2.669564   3.347915
    16  Si   5.632932   4.941712   4.514068   3.266226   4.769280
    17  C    6.761596   5.742268   5.638127   4.641261   6.293233
    18  C    6.022045   6.019653   5.851330   4.588325   5.186262
    19  C    6.634555   5.745141   4.443229   2.785118   5.298785
    20  H    7.117688   7.047654   6.731859   5.332144   6.227772
    21  H    5.800200   5.994371   6.267130   5.236003   5.317865
    22  H    5.767119   6.035571   5.718572   4.436645   4.704636
    23  H    7.639812   6.807234   5.525991   3.851860   6.307418
    24  H    6.402644   5.746836   4.233841   2.486730   4.822328
    25  H    6.841640   5.609475   4.087582   2.563065   5.552860
    26  H    6.980382   5.618903   5.396018   4.549862   6.538760
    27  H    6.583228   5.707301   6.062553   5.283282   6.427964
    28  H    7.748134   6.808988   6.545691   5.375046   7.170776
    29  H    2.574329   2.551491   4.879213   5.602657   4.097499
    30  H    3.440769   3.058219   4.746820   4.928847   4.227416
    31  H    3.718580   2.418097   4.362985   5.040967   4.668560
    32  H    2.505499   3.713664   5.276389   5.379060   3.358867
    33  H    3.041601   3.908352   4.593033   4.211643   2.683279
    34  H    3.714868   5.577507   6.586408   6.434587   3.903425
    35  H    2.518993   4.734791   6.055990   6.376581   3.298621
    36  H    3.049049   4.892733   5.468392   5.424699   2.591641
    37  C    4.686822   2.779117   2.681425   2.830729   4.380226
    38  C    4.962455   2.703627   2.707053   3.574443   4.881130
    39  C    5.990961   3.741270   3.008278   3.876575   5.670460
    40  H    5.547745   3.730704   2.928326   2.559184   4.907344
    41  H    4.988772   3.248495   3.716958   3.763895   4.988658
    42  H    4.616667   2.374014   3.241744   4.365277   4.966985
    43  H    6.469224   4.226918   3.689017   4.796795   6.305751
    44  H    6.595201   4.444897   3.143140   3.588936   5.966902
                   11         12         13         14         15
    11  O    0.000000
    12  C    4.251307   0.000000
    13  C    4.605353   1.532298   0.000000
    14  C    5.588790   3.045651   4.433757   0.000000
    15  O    4.002194   3.062762   4.453693   3.009322   0.000000
    16  Si   4.866378   4.384843   5.628763   4.485791   1.685250
    17  C    6.598776   5.626552   7.002398   4.848455   2.948414
    18  C    5.388752   4.230981   5.131632   5.297899   2.807320
    19  C    4.568272   5.655754   6.735344   5.893621   2.978729
    20  H    6.226624   5.304503   6.131163   6.290728   3.768802
    21  H    5.926734   3.873389   4.771886   4.932400   3.015168
    22  H    4.739444   3.952735   4.603060   5.584072   3.060188
    23  H    5.500592   6.498421   7.524871   6.804437   3.887426
    24  H    3.761599   5.463055   6.357790   6.150597   3.217584
    25  H    4.759428   6.169536   7.336019   5.961504   3.314149
    26  H    6.777096   6.152172   7.597398   4.917165   3.291840
    27  H    7.071981   5.396364   6.787470   4.431523   3.149814
    28  H    7.295244   6.464755   7.756873   5.911725   3.867277
    29  H    6.081297   3.096753   4.238033   1.094850   3.940447
    30  H    5.861913   2.906971   4.353721   1.092396   2.680632
    31  H    6.231896   4.125120   5.519809   1.093151   3.530208
    32  H    5.269793   1.095159   2.157916   2.626631   3.373923
    33  H    4.027420   1.091918   2.172999   3.406593   2.415051
    34  H    5.410696   2.174290   1.094419   5.051897   4.921797
    35  H    5.193068   2.184706   1.096408   4.583874   5.208234
    36  H    3.907947   2.179744   1.093003   5.082093   4.649542
    37  C    4.910421   4.787790   6.232332   3.069021   2.440227
    38  C    5.441256   5.644800   7.004835   3.558498   3.811198
    39  C    5.813316   6.775725   8.068372   4.877487   4.807427
    40  H    4.977083   5.452730   6.859520   4.088350   2.699000
    41  H    5.766745   4.877320   6.393666   2.780729   2.587236
    42  H    5.900176   5.560858   6.884953   3.135782   4.252495
    43  H    6.502092   7.510266   8.745209   5.488745   5.794189
    44  H    5.730202   7.165737   8.447735   5.555152   4.887072
                   16         17         18         19         20
    16  Si   0.000000
    17  C    1.887654   0.000000
    18  C    1.881001   3.078957   0.000000
    19  C    1.888167   3.087175   3.083468   0.000000
    20  H    2.489863   3.275647   1.095785   3.309848   0.000000
    21  H    2.496364   3.306472   1.094987   4.041441   1.769660
    22  H    2.495472   4.037288   1.094906   3.282534   1.770232
    23  H    2.475894   3.281658   3.266461   1.096575   3.116982
    24  H    2.508186   4.048206   3.302610   1.095009   3.623213
    25  H    2.525481   3.315998   4.053768   1.095105   4.315788
    26  H    2.520590   1.094373   4.046903   3.300373   4.281500
    27  H    2.501365   1.095300   3.306464   4.044396   3.594133
    28  H    2.483195   1.096396   3.254407   3.307503   3.072182
    29  H    5.447533   5.852801   6.042400   6.884578   7.059196
    30  H    3.920422   4.161813   4.527335   5.553002   5.473111
    31  H    4.855957   4.882458   5.923822   6.173777   6.844147
    32  H    4.653249   5.566857   4.490509   6.167318   5.526835
    33  H    3.472844   4.849735   3.164027   4.750238   4.236891
    34  H    5.866278   7.171145   5.031434   7.072021   5.934938
    35  H    6.525707   7.802636   6.152118   7.657757   7.168532
    36  H    5.748808   7.318450   5.265055   6.570854   6.231132
    37  C    3.330026   3.590169   5.018458   3.927829   5.794001
    38  C    4.820557   4.999161   6.493873   5.206368   7.290876
    39  C    5.610076   5.784471   7.377483   5.580374   8.096970
    40  H    3.054166   3.275716   4.896914   3.203885   5.524529
    41  H    3.320143   3.091448   4.915109   4.308069   5.644967
    42  H    5.463626   5.594703   6.998136   6.091164   7.862983
    43  H    6.679044   6.819485   8.424950   6.645345   9.167265
    44  H    5.408906   5.613256   7.227695   5.045198   7.846362
                   21         22         23         24         25
    21  H    0.000000
    22  H    1.770242   0.000000
    23  H    4.279313   3.552741   0.000000
    24  H    4.304742   3.127110   1.767155   0.000000
    25  H    4.924722   4.306146   1.763554   1.773247   0.000000
    26  H    4.326821   4.917436   3.578102   4.317392   3.156884
    27  H    3.161262   4.317183   4.291508   4.915066   4.320904
    28  H    3.572661   4.258952   3.126635   4.308645   3.628915
    29  H    5.560736   6.243236   7.799078   7.062442   6.998329
    30  H    4.034054   4.935505   6.355716   5.895755   5.765053
    31  H    5.610989   6.329772   7.066231   6.557894   6.071665
    32  H    3.900385   4.438027   6.964741   6.143458   6.656319
    33  H    2.906778   2.867222   5.521391   4.574166   5.379163
    34  H    4.540672   4.504914   7.744494   6.730146   7.787550
    35  H    5.734150   5.677155   8.497595   7.294820   8.177124
    36  H    5.115647   4.552675   7.362047   6.028861   7.177493
    37  C    5.245997   5.401000   4.866912   4.383256   3.509823
    38  C    6.693879   6.804813   6.158954   5.560856   4.611025
    39  C    7.716104   7.646078   6.482469   5.894181   4.781618
    40  H    5.321289   5.304936   4.077277   3.768427   2.587100
    41  H    4.968718   5.479086   5.120974   4.927422   4.009121
    42  H    7.045631   7.304006   7.060532   6.416462   5.593700
    43  H    8.728077   8.669340   7.546395   6.915363   5.827526
    44  H    7.705470   7.487439   5.871069   5.368801   4.125298
                   26         27         28         29         30
    26  H    0.000000
    27  H    1.770773   0.000000
    28  H    1.766951   1.768074   0.000000
    29  H    5.974326   5.347580   6.892121   0.000000
    30  H    4.416843   3.606404   5.167628   1.772304   0.000000
    31  H    4.730719   4.463281   5.961542   1.760343   1.768135
    32  H    6.101541   5.130338   6.423778   2.504476   2.318533
    33  H    5.476968   4.723789   5.600125   3.749616   3.026493
    34  H    7.888566   6.886130   7.822735   4.853401   4.762041
    35  H    8.327398   7.517911   8.619452   4.139126   4.676927
    36  H    7.891908   7.258912   8.034168   5.002668   5.077558
    37  C    3.125526   3.858874   4.610103   4.105689   3.319500
    38  C    4.379019   5.211786   5.997822   4.396293   4.163800
    39  C    5.030139   6.164682   6.679172   5.678406   5.485788
    40  H    2.679694   3.835201   4.154291   5.147685   4.186487
    41  H    2.627849   3.113161   4.151658   3.844469   2.809416
    42  H    5.046389   5.611273   6.644050   3.784644   3.927373
    43  H    6.037185   7.144359   7.719712   6.157709   6.215409
    44  H    4.821185   6.171173   6.392078   6.443212   6.028968
                   31         32         33         34         35
    31  H    0.000000
    32  H    3.700865   0.000000
    33  H    4.409496   1.755480   0.000000
    34  H    6.143211   2.494924   2.510012   0.000000
    35  H    5.635490   2.517380   3.088671   1.768653   0.000000
    36  H    6.136531   3.074484   2.538506   1.770605   1.769195
    37  C    2.815260   4.925981   4.548310   6.913992   6.703946
    38  C    3.024576   5.768268   5.633917   7.814117   7.288828
    39  C    4.335793   7.003875   6.719511   8.919086   8.360236
    40  H    3.871354   5.690189   5.030119   7.492503   7.442372
    41  H    2.365260   4.783406   4.632869   6.961442   6.856165
    42  H    2.457350   5.551481   5.743504   7.717084   7.017190
    43  H    4.866596   7.712833   7.566385   9.646905   8.928429
    44  H    5.103784   7.484998   6.959445   9.261888   8.851648
                   36         37         38         39         40
    36  H    0.000000
    37  C    6.439203   0.000000
    38  C    7.190383   1.505430   0.000000
    39  C    8.129334   2.517226   1.334640   0.000000
    40  H    6.957251   1.096286   2.130792   2.628401   0.000000
    41  H    6.762759   1.095914   2.139580   3.247785   1.761381
    42  H    7.178678   2.219278   1.089632   2.088488   3.087531
    43  H    8.808021   3.507370   2.117018   1.085928   3.709519
    44  H    8.416574   2.780729   2.118616   1.087614   2.440912
                   41         42         43         44
    41  H    0.000000
    42  H    2.526088   0.000000
    43  H    4.150022   2.426717   0.000000
    44  H    3.584407   3.071769   1.849967   0.000000
 Stoichiometry    C14H26O3Si
 Framework group  C1[X(C14H26O3Si)]
 Deg. of freedom   126
 Full point group                 C1      NOp   1
 Largest Abelian subgroup         C1      NOp   1
 Largest concise Abelian subgroup C1      NOp   1
                         Standard orientation:                         
 ---------------------------------------------------------------------
 Center     Atomic      Atomic             Coordinates (Angstroms)
 Number     Number       Type             X           Y           Z
 ---------------------------------------------------------------------
      1          6           0        2.270076    0.471706   -0.508489
      2          6           0        0.980352    1.190918   -0.966450
      3          6           0       -0.257287    0.778432   -0.131918
      4          6           0        0.075822    1.057926    1.340652
      5          6           0        1.410635    0.529885    1.819683
      6          1           0        3.112625    1.083102   -0.853846
      7          1           0        1.144193    2.252480   -0.740129
      8          1           0        0.098872    2.143465    1.499056
      9          1           0       -0.692229    0.661003    2.006051
     10          8           0        2.435052    0.471967    0.944653
     11          8           0        1.618418    0.244999    2.981969
     12          6           0        2.504586   -0.963559   -0.996436
     13          6           0        3.892956   -1.494829   -0.624795
     14          6           0        0.784662    1.062955   -2.483410
     15          8           0       -0.463830   -0.621024   -0.324359
     16         14           0       -1.695288   -1.721833    0.010006
     17          6           0       -3.078971   -1.602315   -1.268421
     18          6           0       -0.848341   -3.395284   -0.132848
     19          6           0       -2.411868   -1.514160    1.744526
     20          1           0       -1.567383   -4.208398    0.017384
     21          1           0       -0.395387   -3.528284   -1.120846
     22          1           0       -0.057758   -3.504459    0.616737
     23          1           0       -3.135632   -2.315817    1.934232
     24          1           0       -1.635506   -1.583190    2.513644
     25          1           0       -2.939906   -0.564067    1.877774
     26          1           0       -3.636898   -0.663361   -1.199605
     27          1           0       -2.685052   -1.686752   -2.286940
     28          1           0       -3.792352   -2.421696   -1.120822
     29          1           0        1.723297    1.251561   -3.014531
     30          1           0        0.431928    0.065605   -2.755808
     31          1           0        0.055704    1.790711   -2.849431
     32          1           0        2.391849   -0.976155   -2.085704
     33          1           0        1.723262   -1.609871   -0.591346
     34          1           0        4.028899   -2.514041   -0.999602
     35          1           0        4.686614   -0.873193   -1.055824
     36          1           0        4.032049   -1.510592    0.459207
     37          6           0       -1.539541    1.558527   -0.541407
     38          6           0       -1.428272    3.059838   -0.539627
     39          6           0       -2.061778    3.868062    0.312845
     40          1           0       -2.341867    1.260120    0.143479
     41          1           0       -1.827037    1.211191   -1.540272
     42          1           0       -0.792558    3.503727   -1.305217
     43          1           0       -1.954269    4.947442    0.261649
     44          1           0       -2.716736    3.478983    1.089087
 ---------------------------------------------------------------------
 Rotational constants (GHZ):      0.3876536      0.3381340      0.2678524
 Standard basis: def2TZVP (5D, 7F)
 There are   810 symmetry adapted cartesian basis functions of A   symmetry.
 There are   720 symmetry adapted basis functions of A   symmetry.
   720 basis functions,  1144 primitive gaussians,   810 cartesian basis functions
    74 alpha electrons       74 beta electrons
       nuclear repulsion energy      1646.9420823229 Hartrees.
 NAtoms=   44 NActive=   44 NUniq=   44 SFac= 1.00D+00 NAtFMM=   60 NAOKFM=F Big=F
 Integral buffers will be    131072 words long.
 Raffenetti 2 integral format.
 Two-electron integral symmetry is turned on.
 ------------------------------------------------------------------------------
 Polarizable Continuum Model (PCM)
 =================================
 Model                : PCM (using non-symmetric T matrix).
 Atomic radii         : UFF (Universal Force Field).
 Polarization charges : Total charges.
 Charge compensation  : None.
 Solution method      : On-the-fly selection.
 Cavity type          : Scaled VdW (van der Waals Surface) (Alpha=1.100).
 Cavity algorithm     : GePol (No added spheres)
                        Default sphere list used, NSphG=   44.
                        Lebedev-Laikov grids with approx.  5.0 points / Ang**2.
                        Smoothing algorithm: Karplus/York (Gamma=1.0000).
                        Polarization charges: spherical gaussians, with
                                              point-specific exponents (IZeta= 3).
                        Self-potential: point-specific (ISelfS= 7).
                        Self-field    : sphere-specific E.n sum rule (ISelfD= 2).
 Solvent              : Chloroform, Eps=   4.711300 Eps(inf)=   2.090627
 ------------------------------------------------------------------------------
 One-electron integrals computed using PRISM.
   1 Symmetry operations used in ECPInt.
 ECPInt:  NShTT=   46360 NPrTT=  137514 LenC2=   42581 LenP2D=   91415.
 LDataN:  DoStor=T MaxTD1= 6 Len=  172
 NBasis=   720 RedAO= T EigKep=  5.49D-05  NBF=   720
 NBsUse=   720 1.00D-06 EigRej= -1.00D+00 NBFU=   720
 ExpMin= 7.01D-02 ExpMax= 4.48D+04 ExpMxC= 1.53D+03 IAcc=3 IRadAn=         5 AccDes= 0.00D+00
 Harris functional with IExCor= 1009 and IRadAn=       5 diagonalized for initial guess.
 HarFok:  IExCor= 1009 AccDes= 0.00D+00 IRadAn=         5 IDoV= 1 UseB2=F ITyADJ=14
 ICtDFT=  3500011 ScaDFX=  1.000000  1.000000  1.000000  1.000000
 FoFCou: FMM=F IPFlag=           0 FMFlag=      100000 FMFlg1=           0
         NFxFlg=           0 DoJE=T BraDBF=F KetDBF=T FulRan=T
         wScrn=  0.000000 ICntrl=     500 IOpCl=  0 I1Cent=   200000004 NGrid=           0
         NMat0=    1 NMatS0=      1 NMatT0=    0 NMatD0=    1 NMtDS0=    0 NMtDT0=    0
 Petite list used in FoFCou.
 Requested convergence on RMS density matrix=1.00D-08 within 128 cycles.
 Requested convergence on MAX density matrix=1.00D-06.
 Requested convergence on             energy=1.00D-06.
 No special actions if energy rises.
 Inv3:  Mode=1 IEnd=    24865923.
 Iteration    1 A*A^-1 deviation from unit magnitude is 4.00D-15 for   2872.
 Iteration    1 A*A^-1 deviation from orthogonality  is 3.85D-15 for   2865    141.
 Iteration    1 A^-1*A deviation from unit magnitude is 3.77D-15 for    492.
 Iteration    1 A^-1*A deviation from orthogonality  is 9.87D-13 for   2737   2572.
 Error on total polarization charges =  0.01456
 SCF Done:  E(RM062X) =  -1064.34012038     A.U. after   14 cycles
            NFock= 14  Conv=0.15D-08     -V/T= 2.0047

 **********************************************************************

            Population analysis using the SCF density.

 **********************************************************************

 Orbital symmetries:
       Occupied  (A) (A) (A) (A) (A) (A) (A) (A) (A) (A) (A) (A)
                 (A) (A) (A) (A) (A) (A) (A) (A) (A) (A) (A) (A)
                 (A) (A) (A) (A) (A) (A) (A) (A) (A) (A) (A) (A)
                 (A) (A) (A) (A) (A) (A) (A) (A) (A) (A) (A) (A)
                 (A) (A) (A) (A) (A) (A) (A) (A) (A) (A) (A) (A)
                 (A) (A) (A) (A) (A) (A) (A) (A) (A) (A) (A) (A)
                 (A) (A)
       Virtual   (A) (A) (A) (A) (A) (A) (A) (A) (A) (A) (A) (A)
                 (A) (A) (A) (A) (A) (A) (A) (A) (A) (A) (A) (A)
                 (A) (A) (A) (A) (A) (A) (A) (A) (A) (A) (A) (A)
                 (A) (A) (A) (A) (A) (A) (A) (A) (A) (A) (A) (A)
                 (A) (A) (A) (A) (A) (A) (A) (A) (A) (A) (A) (A)
                 (A) (A) (A) (A) (A) (A) (A) (A) (A) (A) (A) (A)
                 (A) (A) (A) (A) (A) (A) (A) (A) (A) (A) (A) (A)
                 (A) (A) (A) (A) (A) (A) (A) (A) (A) (A) (A) (A)
                 (A) (A) (A) (A) (A) (A) (A) (A) (A) (A) (A) (A)
                 (A) (A) (A) (A) (A) (A) (A) (A) (A) (A) (A) (A)
                 (A) (A) (A) (A) (A) (A) (A) (A) (A) (A) (A) (A)
                 (A) (A) (A) (A) (A) (A) (A) (A) (A) (A) (A) (A)
                 (A) (A) (A) (A) (A) (A) (A) (A) (A) (A) (A) (A)
                 (A) (A) (A) (A) (A) (A) (A) (A) (A) (A) (A) (A)
                 (A) (A) (A) (A) (A) (A) (A) (A) (A) (A) (A) (A)
                 (A) (A) (A) (A) (A) (A) (A) (A) (A) (A) (A) (A)
                 (A) (A) (A) (A) (A) (A) (A) (A) (A) (A) (A) (A)
                 (A) (A) (A) (A) (A) (A) (A) (A) (A) (A) (A) (A)
                 (A) (A) (A) (A) (A) (A) (A) (A) (A) (A) (A) (A)
                 (A) (A) (A) (A) (A) (A) (A) (A) (A) (A) (A) (A)
                 (A) (A) (A) (A) (A) (A) (A) (A) (A) (A) (A) (A)
                 (A) (A) (A) (A) (A) (A) (A) (A) (A) (A) (A) (A)
                 (A) (A) (A) (A) (A) (A) (A) (A) (A) (A) (A) (A)
                 (A) (A) (A) (A) (A) (A) (A) (A) (A) (A) (A) (A)
                 (A) (A) (A) (A) (A) (A) (A) (A) (A) (A) (A) (A)
                 (A) (A) (A) (A) (A) (A) (A) (A) (A) (A) (A) (A)
                 (A) (A) (A) (A) (A) (A) (A) (A) (A) (A) (A) (A)
                 (A) (A) (A) (A) (A) (A) (A) (A) (A) (A) (A) (A)
                 (A) (A) (A) (A) (A) (A) (A) (A) (A) (A) (A) (A)
                 (A) (A) (A) (A) (A) (A) (A) (A) (A) (A) (A) (A)
                 (A) (A) (A) (A) (A) (A) (A) (A) (A) (A) (A) (A)
                 (A) (A) (A) (A) (A) (A) (A) (A) (A) (A) (A) (A)
                 (A) (A) (A) (A) (A) (A) (A) (A) (A) (A) (A) (A)
                 (A) (A) (A) (A) (A) (A) (A) (A) (A) (A) (A) (A)
                 (A) (A) (A) (A) (A) (A) (A) (A) (A) (A) (A) (A)
                 (A) (A) (A) (A) (A) (A) (A) (A) (A) (A) (A) (A)
                 (A) (A) (A) (A) (A) (A) (A) (A) (A) (A) (A) (A)
                 (A) (A) (A) (A) (A) (A) (A) (A) (A) (A) (A) (A)
                 (A) (A) (A) (A) (A) (A) (A) (A) (A) (A) (A) (A)
                 (A) (A) (A) (A) (A) (A) (A) (A) (A) (A) (A) (A)
                 (A) (A) (A) (A) (A) (A) (A) (A) (A) (A) (A) (A)
                 (A) (A) (A) (A) (A) (A) (A) (A) (A) (A) (A) (A)
                 (A) (A) (A) (A) (A) (A) (A) (A) (A) (A) (A) (A)
                 (A) (A) (A) (A) (A) (A) (A) (A) (A) (A) (A) (A)
                 (A) (A) (A) (A) (A) (A) (A) (A) (A) (A) (A) (A)
                 (A) (A) (A) (A) (A) (A) (A) (A) (A) (A) (A) (A)
                 (A) (A) (A) (A) (A) (A) (A) (A) (A) (A) (A) (A)
                 (A) (A) (A) (A) (A) (A) (A) (A) (A) (A) (A) (A)
                 (A) (A) (A) (A) (A) (A) (A) (A) (A) (A) (A) (A)
                 (A) (A) (A) (A) (A) (A) (A) (A) (A) (A) (A) (A)
                 (A) (A) (A) (A) (A) (A) (A) (A) (A) (A) (A) (A)
                 (A) (A) (A) (A) (A) (A) (A) (A) (A) (A) (A) (A)
                 (A) (A) (A) (A) (A) (A) (A) (A) (A) (A) (A) (A)
                 (A) (A) (A) (A) (A) (A) (A) (A) (A) (A)
 The electronic state is 1-A.
 Alpha  occ. eigenvalues --  -67.01680 -19.66711 -19.61984 -19.61283 -10.67812
 Alpha  occ. eigenvalues --  -10.62057 -10.60684 -10.55584 -10.55291 -10.55247
 Alpha  occ. eigenvalues --  -10.54955 -10.54045 -10.53425 -10.53196 -10.52110
 Alpha  occ. eigenvalues --  -10.51187 -10.51007 -10.50770  -5.55126  -3.86313
 Alpha  occ. eigenvalues --   -3.86170  -3.86156  -1.22473  -1.13856  -1.13236
 Alpha  occ. eigenvalues --   -0.93520  -0.90518  -0.87839  -0.84798  -0.80659
 Alpha  occ. eigenvalues --   -0.80058  -0.78721  -0.76984  -0.76741  -0.73149
 Alpha  occ. eigenvalues --   -0.70100  -0.68777  -0.64455  -0.62200  -0.59658
 Alpha  occ. eigenvalues --   -0.57563  -0.56005  -0.55181  -0.54170  -0.53492
 Alpha  occ. eigenvalues --   -0.51760  -0.50916  -0.50379  -0.49464  -0.48559
 Alpha  occ. eigenvalues --   -0.47873  -0.47463  -0.47349  -0.47048  -0.46527
 Alpha  occ. eigenvalues --   -0.46182  -0.45241  -0.44962  -0.44498  -0.43862
 Alpha  occ. eigenvalues --   -0.43686  -0.43370  -0.42543  -0.41227  -0.40666
 Alpha  occ. eigenvalues --   -0.40169  -0.39350  -0.38498  -0.36871  -0.35774
 Alpha  occ. eigenvalues --   -0.35120  -0.34605  -0.34012  -0.31923
 Alpha virt. eigenvalues --    0.02770   0.04279   0.04831   0.06341   0.07366
 Alpha virt. eigenvalues --    0.07544   0.08810   0.09592   0.09931   0.10470
 Alpha virt. eigenvalues --    0.10631   0.11218   0.11504   0.12429   0.12579
 Alpha virt. eigenvalues --    0.13228   0.14243   0.14436   0.14733   0.15233
 Alpha virt. eigenvalues --    0.15456   0.15898   0.16072   0.16255   0.16607
 Alpha virt. eigenvalues --    0.16769   0.17186   0.17575   0.17869   0.18399
 Alpha virt. eigenvalues --    0.18779   0.19269   0.19842   0.20258   0.20819
 Alpha virt. eigenvalues --    0.21393   0.21767   0.22372   0.22778   0.23142
 Alpha virt. eigenvalues --    0.23897   0.24100   0.24418   0.24908   0.25264
 Alpha virt. eigenvalues --    0.26234   0.26599   0.27008   0.28192   0.28637
 Alpha virt. eigenvalues --    0.28907   0.29299   0.29657   0.30052   0.31538
 Alpha virt. eigenvalues --    0.31686   0.31984   0.32143   0.33884   0.34148
 Alpha virt. eigenvalues --    0.34616   0.35010   0.35995   0.36423   0.36965
 Alpha virt. eigenvalues --    0.37650   0.38043   0.38478   0.38635   0.39525
 Alpha virt. eigenvalues --    0.40531   0.40663   0.41099   0.41809   0.41899
 Alpha virt. eigenvalues --    0.42391   0.42849   0.43450   0.43928   0.44610
 Alpha virt. eigenvalues --    0.44707   0.45100   0.45629   0.46167   0.46485
 Alpha virt. eigenvalues --    0.46970   0.47023   0.47542   0.47844   0.48069
 Alpha virt. eigenvalues --    0.48197   0.48596   0.49073   0.49907   0.49922
 Alpha virt. eigenvalues --    0.50284   0.50625   0.50775   0.51115   0.51470
 Alpha virt. eigenvalues --    0.51818   0.52306   0.52546   0.52785   0.53630
 Alpha virt. eigenvalues --    0.54079   0.54641   0.55024   0.55220   0.55917
 Alpha virt. eigenvalues --    0.56302   0.57646   0.57781   0.58241   0.59518
 Alpha virt. eigenvalues --    0.59814   0.60888   0.61650   0.61837   0.62292
 Alpha virt. eigenvalues --    0.63009   0.63540   0.63999   0.64564   0.66112
 Alpha virt. eigenvalues --    0.66464   0.67539   0.67606   0.68185   0.68509
 Alpha virt. eigenvalues --    0.69479   0.70434   0.71585   0.72795   0.73058
 Alpha virt. eigenvalues --    0.74060   0.74218   0.75291   0.76600   0.77363
 Alpha virt. eigenvalues --    0.78317   0.78708   0.79415   0.80344   0.81679
 Alpha virt. eigenvalues --    0.83118   0.83897   0.84686   0.86196   0.86711
 Alpha virt. eigenvalues --    0.87253   0.87467   0.89039   0.89693   0.90131
 Alpha virt. eigenvalues --    0.91646   0.91907   0.92777   0.93617   0.93800
 Alpha virt. eigenvalues --    0.94665   0.95212   0.95832   0.97125   0.97644
 Alpha virt. eigenvalues --    0.98122   0.98492   0.99458   1.00002   1.01213
 Alpha virt. eigenvalues --    1.02517   1.02753   1.04074   1.04701   1.05157
 Alpha virt. eigenvalues --    1.05499   1.06163   1.06649   1.07598   1.08032
 Alpha virt. eigenvalues --    1.08290   1.09352   1.10492   1.11001   1.11130
 Alpha virt. eigenvalues --    1.12166   1.12985   1.13512   1.14610   1.14894
 Alpha virt. eigenvalues --    1.15726   1.16566   1.17441   1.19214   1.19915
 Alpha virt. eigenvalues --    1.21816   1.21925   1.23652   1.24065   1.25090
 Alpha virt. eigenvalues --    1.25951   1.27038   1.28065   1.28362   1.29949
 Alpha virt. eigenvalues --    1.30682   1.31141   1.31444   1.33206   1.35106
 Alpha virt. eigenvalues --    1.35868   1.36273   1.36691   1.38163   1.39045
 Alpha virt. eigenvalues --    1.39419   1.40422   1.41139   1.41832   1.42853
 Alpha virt. eigenvalues --    1.43114   1.44342   1.45170   1.45678   1.47895
 Alpha virt. eigenvalues --    1.48337   1.49106   1.50227   1.50346   1.52834
 Alpha virt. eigenvalues --    1.53369   1.54151   1.55894   1.55995   1.56990
 Alpha virt. eigenvalues --    1.57462   1.58091   1.58609   1.59241   1.59822
 Alpha virt. eigenvalues --    1.60026   1.60874   1.60980   1.61878   1.61955
 Alpha virt. eigenvalues --    1.62275   1.63347   1.63585   1.63961   1.64828
 Alpha virt. eigenvalues --    1.65100   1.66319   1.66720   1.66882   1.67465
 Alpha virt. eigenvalues --    1.68167   1.68439   1.68907   1.69787   1.70247
 Alpha virt. eigenvalues --    1.70472   1.71221   1.72018   1.72549   1.72878
 Alpha virt. eigenvalues --    1.73359   1.75133   1.76544   1.77978   1.79165
 Alpha virt. eigenvalues --    1.79872   1.80347   1.81769   1.82069   1.83061
 Alpha virt. eigenvalues --    1.83516   1.85378   1.86790   1.86896   1.88149
 Alpha virt. eigenvalues --    1.89801   1.90727   1.91150   1.92824   1.93276
 Alpha virt. eigenvalues --    1.94339   1.94999   1.96255   1.96341   1.97048
 Alpha virt. eigenvalues --    1.98248   1.99472   2.00522   2.01051   2.02008
 Alpha virt. eigenvalues --    2.02289   2.03344   2.05015   2.05170   2.06746
 Alpha virt. eigenvalues --    2.07587   2.08138   2.08780   2.09075   2.09967
 Alpha virt. eigenvalues --    2.12091   2.12311   2.13106   2.13468   2.13918
 Alpha virt. eigenvalues --    2.14679   2.16701   2.18243   2.19458   2.19951
 Alpha virt. eigenvalues --    2.20979   2.21064   2.22014   2.22856   2.24194
 Alpha virt. eigenvalues --    2.24753   2.25802   2.26881   2.27030   2.28794
 Alpha virt. eigenvalues --    2.29453   2.30540   2.32198   2.33171   2.34297
 Alpha virt. eigenvalues --    2.34484   2.35693   2.36194   2.37155   2.37837
 Alpha virt. eigenvalues --    2.38562   2.38641   2.39186   2.39467   2.40092
 Alpha virt. eigenvalues --    2.40431   2.41065   2.41632   2.42073   2.42226
 Alpha virt. eigenvalues --    2.42373   2.43462   2.44036   2.44184   2.46297
 Alpha virt. eigenvalues --    2.46924   2.47394   2.47612   2.50049   2.50755
 Alpha virt. eigenvalues --    2.51583   2.52613   2.53888   2.54172   2.54437
 Alpha virt. eigenvalues --    2.55683   2.57045   2.57665   2.58165   2.58679
 Alpha virt. eigenvalues --    2.59575   2.60296   2.61106   2.61462   2.62042
 Alpha virt. eigenvalues --    2.62310   2.62810   2.63105   2.64502   2.64766
 Alpha virt. eigenvalues --    2.65122   2.65608   2.66793   2.67326   2.67811
 Alpha virt. eigenvalues --    2.68889   2.69222   2.69631   2.70317   2.70562
 Alpha virt. eigenvalues --    2.71184   2.72671   2.72949   2.73361   2.74105
 Alpha virt. eigenvalues --    2.74289   2.74688   2.75836   2.76949   2.79549
 Alpha virt. eigenvalues --    2.80252   2.80867   2.81723   2.82796   2.83354
 Alpha virt. eigenvalues --    2.85388   2.86083   2.86659   2.87454   2.88090
 Alpha virt. eigenvalues --    2.88956   2.89979   2.90792   2.92714   2.93217
 Alpha virt. eigenvalues --    2.95954   2.96877   2.97556   2.98980   3.01276
 Alpha virt. eigenvalues --    3.01662   3.02439   3.03327   3.03976   3.05709
 Alpha virt. eigenvalues --    3.06702   3.07873   3.08399   3.09568   3.10233
 Alpha virt. eigenvalues --    3.10808   3.11085   3.12676   3.13411   3.14024
 Alpha virt. eigenvalues --    3.14239   3.15201   3.15873   3.16008   3.16787
 Alpha virt. eigenvalues --    3.17749   3.18984   3.19328   3.19633   3.20111
 Alpha virt. eigenvalues --    3.20808   3.21513   3.22213   3.23568   3.24153
 Alpha virt. eigenvalues --    3.24486   3.24814   3.25110   3.25688   3.26432
 Alpha virt. eigenvalues --    3.26977   3.28016   3.29111   3.29777   3.30192
 Alpha virt. eigenvalues --    3.30590   3.31471   3.32327   3.32710   3.33027
 Alpha virt. eigenvalues --    3.33272   3.33861   3.34872   3.35510   3.36055
 Alpha virt. eigenvalues --    3.36779   3.36844   3.37765   3.38065   3.39201
 Alpha virt. eigenvalues --    3.40403   3.41064   3.42317   3.42636   3.43028
 Alpha virt. eigenvalues --    3.43727   3.44746   3.45190   3.45328   3.46111
 Alpha virt. eigenvalues --    3.46799   3.48405   3.48757   3.49139   3.51306
 Alpha virt. eigenvalues --    3.51861   3.52178   3.53289   3.54978   3.55750
 Alpha virt. eigenvalues --    3.56200   3.56980   3.57738   3.58487   3.58989
 Alpha virt. eigenvalues --    3.59634   3.60479   3.61309   3.62635   3.62931
 Alpha virt. eigenvalues --    3.63997   3.64523   3.65219   3.65737   3.66282
 Alpha virt. eigenvalues --    3.67035   3.67375   3.68175   3.69539   3.70994
 Alpha virt. eigenvalues --    3.71178   3.72835   3.74026   3.75914   3.77191
 Alpha virt. eigenvalues --    3.78981   3.80718   3.81046   3.82185   3.83996
 Alpha virt. eigenvalues --    3.84418   3.88220   3.88345   3.90127   3.91180
 Alpha virt. eigenvalues --    3.93320   3.96047   3.96254   3.97102   4.01840
 Alpha virt. eigenvalues --    4.03980   4.04595   4.06793   4.08166   4.09251
 Alpha virt. eigenvalues --    4.11002   4.13627   4.14979   4.18471   4.20117
 Alpha virt. eigenvalues --    4.21486   4.22963   4.24364   4.25431   4.25609
 Alpha virt. eigenvalues --    4.26845   4.27508   4.28716   4.29420   4.30220
 Alpha virt. eigenvalues --    4.31308   4.32364   4.32846   4.36338   4.36931
 Alpha virt. eigenvalues --    4.37827   4.37986   4.38529   4.39009   4.41132
 Alpha virt. eigenvalues --    4.41829   4.43972   4.45508   4.46788   4.47658
 Alpha virt. eigenvalues --    4.51801   4.53381   4.55524   4.57255   4.58112
 Alpha virt. eigenvalues --    4.59777   4.61711   4.65227   4.66298   4.69809
 Alpha virt. eigenvalues --    4.71144   4.74445   4.77258   4.80731   4.85278
 Alpha virt. eigenvalues --    4.86215   4.88748   4.93928   5.00496   5.01257
 Alpha virt. eigenvalues --    5.03086   5.07834   5.09994   5.19784   5.22763
 Alpha virt. eigenvalues --    5.24367   5.25940   5.28444   5.28633   5.36115
 Alpha virt. eigenvalues --    5.48906   5.50606   5.53271   5.60337   5.81774
 Alpha virt. eigenvalues --    5.85837   5.87691   5.88472   5.92792   6.00269
 Alpha virt. eigenvalues --    6.12698   6.18815   6.22886   6.36595   6.39874
 Alpha virt. eigenvalues --    6.51687   6.62688   6.64243   6.65935   6.67420
 Alpha virt. eigenvalues --    6.70960   6.75332   6.81885   6.86473   6.89004
 Alpha virt. eigenvalues --    6.96487   6.97764   7.04320   7.05918   7.15523
 Alpha virt. eigenvalues --    7.19219   7.36453   7.40847  12.18043  22.29333
 Alpha virt. eigenvalues --   22.38122  22.42119  22.43517  22.47245  22.53215
 Alpha virt. eigenvalues --   22.65468  22.67983  22.68967  22.72753  22.80108
 Alpha virt. eigenvalues --   22.87536  22.94525  23.43862  44.07425  44.48599
 Alpha virt. eigenvalues --   44.56422
          Condensed to atoms (all electrons):
               1          2          3          4          5          6
     1  C    5.312973   0.198549  -0.058621   0.018094  -0.027697   0.452113
     2  C    0.198549   5.609520   0.091717  -0.037964  -0.022722  -0.039878
     3  C   -0.058621   0.091717   5.786198  -0.094682   0.052539   0.014714
     4  C    0.018094  -0.037964  -0.094682   6.028420   0.144330  -0.005025
     5  C   -0.027697  -0.022722   0.052539   0.144330   4.415359   0.001117
     6  H    0.452113  -0.039878   0.014714  -0.005025   0.001117   0.506931
     7  H   -0.058896   0.443037  -0.032545   0.000539   0.001079  -0.009561
     8  H    0.002929  -0.016004  -0.028469   0.393028  -0.014049   0.000173
     9  H   -0.000824   0.012918  -0.020611   0.380930  -0.021654   0.000086
    10  O    0.139331  -0.012008   0.028866  -0.154098   0.381164  -0.033920
    11  O    0.000266   0.001186   0.014947  -0.144486   0.715061  -0.000012
    12  C    0.189140  -0.026146  -0.008846  -0.004224  -0.001761  -0.063028
    13  C   -0.053018   0.011150  -0.002111   0.000810  -0.000304  -0.009274
    14  C   -0.037551   0.173559  -0.040996   0.000905   0.001814  -0.009129
    15  O    0.019935  -0.066382   0.155154  -0.053368   0.016622  -0.000490
    16  Si   0.001140   0.007087  -0.076603  -0.004664  -0.002085  -0.000089
    17  C    0.000160   0.000394  -0.007927  -0.000165   0.000243   0.000001
    18  C   -0.000245  -0.000708   0.004894   0.000272  -0.000403  -0.000002
    19  C   -0.000308  -0.000155   0.017450   0.006019  -0.002346   0.000000
    20  H   -0.000009   0.000007  -0.000142  -0.000014   0.000020   0.000000
    21  H   -0.000201   0.000218  -0.000059   0.000013   0.000015  -0.000001
    22  H    0.000176   0.000105   0.000325  -0.000420   0.000415   0.000002
    23  H   -0.000001   0.000023  -0.000655   0.000196   0.000031   0.000000
    24  H    0.000097  -0.000192  -0.002718  -0.000597   0.000657  -0.000001
    25  H    0.000007   0.000028   0.004482  -0.004094   0.000455   0.000000
    26  H   -0.000021   0.000066  -0.003651   0.000227  -0.000016   0.000000
    27  H   -0.000012  -0.000026   0.003078   0.000000  -0.000005   0.000000
    28  H   -0.000001  -0.000013   0.000186   0.000021  -0.000004   0.000000
    29  H    0.015552  -0.068887   0.011313  -0.000852   0.000121   0.001624
    30  H   -0.024970  -0.049851   0.017584   0.000305   0.000077   0.000580
    31  H    0.010875  -0.019212  -0.032152   0.000279  -0.000252  -0.000296
    32  H   -0.053324  -0.007719   0.001091  -0.000681   0.000557   0.002904
    33  H   -0.024949   0.001985   0.009522  -0.001621  -0.001043   0.005515
    34  H    0.013177  -0.000839  -0.000078   0.000065   0.000017  -0.000183
    35  H    0.001548   0.001256   0.000172  -0.000016  -0.000245   0.002466
    36  H   -0.016463  -0.000720  -0.000085   0.000588   0.001387   0.001219
    37  C    0.018136  -0.056287   0.062019  -0.035928  -0.004398  -0.000204
    38  C   -0.001435   0.007190  -0.010977  -0.004220   0.003635  -0.000004
    39  C   -0.000088   0.000401  -0.008279  -0.004463   0.000159   0.000002
    40  H   -0.000243   0.011011  -0.039790  -0.020224   0.000268   0.000012
    41  H   -0.001640  -0.016918  -0.058036   0.007576   0.000030  -0.000029
    42  H    0.000935   0.009351  -0.012352  -0.000422   0.000025   0.000002
    43  H    0.000000  -0.000013   0.000201  -0.000052   0.000003   0.000000
    44  H    0.000001   0.000363  -0.003866  -0.000195  -0.000030   0.000000
               7          8          9         10         11         12
     1  C   -0.058896   0.002929  -0.000824   0.139331   0.000266   0.189140
     2  C    0.443037  -0.016004   0.012918  -0.012008   0.001186  -0.026146
     3  C   -0.032545  -0.028469  -0.020611   0.028866   0.014947  -0.008846
     4  C    0.000539   0.393028   0.380930  -0.154098  -0.144486  -0.004224
     5  C    0.001079  -0.014049  -0.021654   0.381164   0.715061  -0.001761
     6  H   -0.009561   0.000173   0.000086  -0.033920  -0.000012  -0.063028
     7  H    0.502113   0.000161  -0.000055   0.001304  -0.000055   0.009418
     8  H    0.000161   0.454728  -0.009527   0.002585   0.002502   0.000054
     9  H   -0.000055  -0.009527   0.474466   0.006341   0.010638   0.000046
    10  O    0.001304   0.002585   0.006341   8.018560  -0.100957  -0.023089
    11  O   -0.000055   0.002502   0.010638  -0.100957   7.883335  -0.000405
    12  C    0.009418   0.000054   0.000046  -0.023089  -0.000405   5.255711
    13  C   -0.000286  -0.000030  -0.000005  -0.005638   0.000026   0.259639
    14  C   -0.023489  -0.000139   0.000029   0.004558   0.000046   0.014298
    15  O    0.004500   0.004981  -0.005307  -0.003983  -0.000012  -0.013520
    16  Si  -0.000260   0.000884  -0.002385  -0.000938   0.001259  -0.000537
    17  C    0.000013   0.000038   0.000006  -0.000008  -0.000001  -0.000241
    18  C    0.000001  -0.000012   0.000356   0.000073  -0.000064   0.001410
    19  C    0.000003  -0.000435  -0.004659   0.000073  -0.001444   0.000021
    20  H    0.000000   0.000000  -0.000007   0.000000   0.000000  -0.000047
    21  H    0.000001   0.000000  -0.000008   0.000005   0.000000   0.000238
    22  H    0.000001   0.000002   0.000023  -0.000030   0.000018  -0.000732
    23  H    0.000000   0.000005   0.000660   0.000000   0.000002   0.000002
    24  H    0.000005   0.000232  -0.002364  -0.000022   0.001902   0.000002
    25  H    0.000001  -0.000082  -0.000643  -0.000008  -0.000014  -0.000003
    26  H    0.000000   0.000002  -0.000061   0.000000   0.000000   0.000010
    27  H    0.000000  -0.000001  -0.000003   0.000000   0.000000   0.000025
    28  H    0.000000  -0.000001   0.000001   0.000000   0.000000   0.000007
    29  H   -0.002682   0.000023   0.000012   0.000023   0.000000  -0.011892
    30  H    0.005064  -0.000045  -0.000025  -0.000014   0.000000   0.007069
    31  H   -0.007417  -0.000021  -0.000013  -0.000175  -0.000001   0.000179
    32  H   -0.000641   0.000007  -0.000010   0.005120  -0.000013   0.429728
    33  H   -0.000398   0.000025   0.000090  -0.004136  -0.000136   0.392140
    34  H    0.000016   0.000000  -0.000001   0.000153   0.000005  -0.050250
    35  H   -0.000027   0.000001   0.000000  -0.000643   0.000000  -0.051991
    36  H   -0.000035  -0.000004  -0.000016   0.007221   0.000451  -0.034336
    37  C   -0.026625  -0.007381  -0.008683  -0.002007  -0.001054  -0.001648
    38  C    0.009096   0.003532  -0.001864  -0.000077   0.000116   0.000234
    39  C    0.001401  -0.000789   0.000149  -0.000005  -0.000021   0.000000
    40  H   -0.000648   0.000885   0.002134   0.000027   0.000011  -0.000041
    41  H    0.002619  -0.000081   0.000059   0.000020   0.000008   0.000210
    42  H   -0.006373   0.000375   0.000030   0.000010   0.000005   0.000003
    43  H    0.000007   0.000015   0.000006   0.000000   0.000000   0.000000
    44  H   -0.000041  -0.000009   0.000092   0.000000   0.000002   0.000001
              13         14         15         16         17         18
     1  C   -0.053018  -0.037551   0.019935   0.001140   0.000160  -0.000245
     2  C    0.011150   0.173559  -0.066382   0.007087   0.000394  -0.000708
     3  C   -0.002111  -0.040996   0.155154  -0.076603  -0.007927   0.004894
     4  C    0.000810   0.000905  -0.053368  -0.004664  -0.000165   0.000272
     5  C   -0.000304   0.001814   0.016622  -0.002085   0.000243  -0.000403
     6  H   -0.009274  -0.009129  -0.000490  -0.000089   0.000001  -0.000002
     7  H   -0.000286  -0.023489   0.004500  -0.000260   0.000013   0.000001
     8  H   -0.000030  -0.000139   0.004981   0.000884   0.000038  -0.000012
     9  H   -0.000005   0.000029  -0.005307  -0.002385   0.000006   0.000356
    10  O   -0.005638   0.004558  -0.003983  -0.000938  -0.000008   0.000073
    11  O    0.000026   0.000046  -0.000012   0.001259  -0.000001  -0.000064
    12  C    0.259639   0.014298  -0.013520  -0.000537  -0.000241   0.001410
    13  C    5.053049  -0.000907   0.001881   0.000041   0.000004   0.000237
    14  C   -0.000907   5.182358  -0.007840   0.000540  -0.000412   0.000119
    15  O    0.001881  -0.007840   8.085319   0.385142  -0.018774  -0.021651
    16  Si   0.000041   0.000540   0.385142  12.451006   0.354413   0.382171
    17  C    0.000004  -0.000412  -0.018774   0.354413   5.148794  -0.044292
    18  C    0.000237   0.000119  -0.021651   0.382171  -0.044292   5.141008
    19  C    0.000015  -0.000071  -0.026558   0.324742  -0.053806  -0.042791
    20  H    0.000005   0.000000   0.001128  -0.037495   0.001145   0.392522
    21  H    0.000084  -0.000146   0.000684  -0.037217   0.000749   0.391315
    22  H    0.000030   0.000013   0.000945  -0.036077   0.003364   0.392008
    23  H    0.000000   0.000001   0.001176  -0.022202   0.001645  -0.000066
    24  H    0.000003   0.000005   0.000537  -0.036727   0.003319   0.000681
    25  H    0.000000   0.000006   0.000367  -0.040679   0.002083   0.003093
    26  H    0.000000   0.000055   0.001045  -0.035798   0.393470   0.002647
    27  H    0.000001  -0.000211  -0.000558  -0.038514   0.393910   0.001380
    28  H    0.000000   0.000008   0.001160  -0.032064   0.387013   0.001360
    29  H   -0.000174   0.434751   0.000212   0.000113  -0.000006  -0.000003
    30  H    0.000470   0.429651   0.004772  -0.002102  -0.000125   0.000064
    31  H    0.000038   0.404406   0.000298  -0.000233   0.000082  -0.000010
    32  H   -0.032680  -0.003811  -0.000875  -0.000217   0.000013   0.000076
    33  H   -0.039539  -0.004415  -0.000555  -0.002247   0.000300  -0.005292
    34  H    0.421701   0.000091   0.000001  -0.000014   0.000000   0.000034
    35  H    0.413442  -0.000153  -0.000068  -0.000011   0.000000  -0.000009
    36  H    0.421514  -0.000087   0.000027   0.000020   0.000000   0.000019
    37  C    0.000060   0.018267  -0.068424   0.013210   0.010759  -0.001420
    38  C    0.000000  -0.008955   0.008011  -0.000928   0.000809   0.000013
    39  C    0.000000  -0.000432  -0.000199   0.000355  -0.000063   0.000000
    40  H   -0.000001   0.000731  -0.003881   0.005652  -0.004308   0.000223
    41  H   -0.000001  -0.004762   0.002825  -0.003404  -0.005436   0.000207
    42  H    0.000002  -0.000526  -0.000087   0.000102  -0.000021   0.000001
    43  H    0.000000   0.000022   0.000006   0.000002   0.000001   0.000000
    44  H    0.000000  -0.000023  -0.000032   0.000134  -0.000007   0.000000
              19         20         21         22         23         24
     1  C   -0.000308  -0.000009  -0.000201   0.000176  -0.000001   0.000097
     2  C   -0.000155   0.000007   0.000218   0.000105   0.000023  -0.000192
     3  C    0.017450  -0.000142  -0.000059   0.000325  -0.000655  -0.002718
     4  C    0.006019  -0.000014   0.000013  -0.000420   0.000196  -0.000597
     5  C   -0.002346   0.000020   0.000015   0.000415   0.000031   0.000657
     6  H    0.000000   0.000000  -0.000001   0.000002   0.000000  -0.000001
     7  H    0.000003   0.000000   0.000001   0.000001   0.000000   0.000005
     8  H   -0.000435   0.000000   0.000000   0.000002   0.000005   0.000232
     9  H   -0.004659  -0.000007  -0.000008   0.000023   0.000660  -0.002364
    10  O    0.000073   0.000000   0.000005  -0.000030   0.000000  -0.000022
    11  O   -0.001444   0.000000   0.000000   0.000018   0.000002   0.001902
    12  C    0.000021  -0.000047   0.000238  -0.000732   0.000002   0.000002
    13  C    0.000015   0.000005   0.000084   0.000030   0.000000   0.000003
    14  C   -0.000071   0.000000  -0.000146   0.000013   0.000001   0.000005
    15  O   -0.026558   0.001128   0.000684   0.000945   0.001176   0.000537
    16  Si   0.324742  -0.037495  -0.037217  -0.036077  -0.022202  -0.036727
    17  C   -0.053806   0.001145   0.000749   0.003364   0.001645   0.003319
    18  C   -0.042791   0.392522   0.391315   0.392008  -0.000066   0.000681
    19  C    5.207199   0.001054   0.003463   0.001087   0.381989   0.393088
    20  H    0.001054   0.508612  -0.015052  -0.015409   0.000434   0.000255
    21  H    0.003463  -0.015052   0.513613  -0.020203  -0.000141  -0.000179
    22  H    0.001087  -0.015409  -0.020203   0.507606   0.000244   0.000816
    23  H    0.381989   0.000434  -0.000141   0.000244   0.493275  -0.014150
    24  H    0.393088   0.000255  -0.000179   0.000816  -0.014150   0.499295
    25  H    0.395028  -0.000139  -0.000097  -0.000144  -0.014776  -0.020578
    26  H    0.001696  -0.000119  -0.000151  -0.000100   0.000192  -0.000143
    27  H    0.003267   0.000252   0.000908  -0.000174  -0.000139  -0.000089
    28  H    0.002840   0.000328   0.000235  -0.000151   0.000140  -0.000165
    29  H    0.000001   0.000000   0.000003   0.000000   0.000000   0.000000
    30  H    0.000121   0.000001   0.000229  -0.000002  -0.000002  -0.000004
    31  H    0.000000   0.000000  -0.000001   0.000000   0.000000   0.000000
    32  H    0.000003   0.000000  -0.000004   0.000051   0.000000  -0.000003
    33  H    0.000005   0.000263  -0.001285  -0.000238  -0.000008   0.000027
    34  H    0.000000   0.000000   0.000015   0.000026   0.000000   0.000000
    35  H    0.000000   0.000000  -0.000001  -0.000001   0.000000   0.000000
    36  H    0.000001   0.000001   0.000000   0.000019   0.000000  -0.000002
    37  C   -0.014376   0.000026   0.000104   0.000051   0.000371   0.000965
    38  C    0.000809  -0.000001   0.000004   0.000000  -0.000011  -0.000033
    39  C   -0.000199   0.000000   0.000000   0.000000   0.000002   0.000008
    40  H    0.000027  -0.000006  -0.000013   0.000002   0.000041  -0.000437
    41  H    0.000943  -0.000003  -0.000002  -0.000012  -0.000019  -0.000032
    42  H   -0.000007   0.000000   0.000000   0.000000   0.000000   0.000000
    43  H    0.000000   0.000000   0.000000   0.000000   0.000000   0.000000
    44  H   -0.000048   0.000000   0.000000   0.000000   0.000001   0.000001
              25         26         27         28         29         30
     1  C    0.000007  -0.000021  -0.000012  -0.000001   0.015552  -0.024970
     2  C    0.000028   0.000066  -0.000026  -0.000013  -0.068887  -0.049851
     3  C    0.004482  -0.003651   0.003078   0.000186   0.011313   0.017584
     4  C   -0.004094   0.000227   0.000000   0.000021  -0.000852   0.000305
     5  C    0.000455  -0.000016  -0.000005  -0.000004   0.000121   0.000077
     6  H    0.000000   0.000000   0.000000   0.000000   0.001624   0.000580
     7  H    0.000001   0.000000   0.000000   0.000000  -0.002682   0.005064
     8  H   -0.000082   0.000002  -0.000001  -0.000001   0.000023  -0.000045
     9  H   -0.000643  -0.000061  -0.000003   0.000001   0.000012  -0.000025
    10  O   -0.000008   0.000000   0.000000   0.000000   0.000023  -0.000014
    11  O   -0.000014   0.000000   0.000000   0.000000   0.000000   0.000000
    12  C   -0.000003   0.000010   0.000025   0.000007  -0.011892   0.007069
    13  C    0.000000   0.000000   0.000001   0.000000  -0.000174   0.000470
    14  C    0.000006   0.000055  -0.000211   0.000008   0.434751   0.429651
    15  O    0.000367   0.001045  -0.000558   0.001160   0.000212   0.004772
    16  Si  -0.040679  -0.035798  -0.038514  -0.032064   0.000113  -0.002102
    17  C    0.002083   0.393470   0.393910   0.387013  -0.000006  -0.000125
    18  C    0.003093   0.002647   0.001380   0.001360  -0.000003   0.000064
    19  C    0.395028   0.001696   0.003267   0.002840   0.000001   0.000121
    20  H   -0.000139  -0.000119   0.000252   0.000328   0.000000   0.000001
    21  H   -0.000097  -0.000151   0.000908   0.000235   0.000003   0.000229
    22  H   -0.000144  -0.000100  -0.000174  -0.000151   0.000000  -0.000002
    23  H   -0.014776   0.000192  -0.000139   0.000140   0.000000  -0.000002
    24  H   -0.020578  -0.000143  -0.000089  -0.000165   0.000000  -0.000004
    25  H    0.508947   0.000533  -0.000198   0.000188   0.000000  -0.000004
    26  H    0.000533   0.513136  -0.019229  -0.018038   0.000000  -0.000025
    27  H   -0.000198  -0.019229   0.510186  -0.016200   0.000002   0.000514
    28  H    0.000188  -0.018038  -0.016200   0.509019   0.000000   0.000001
    29  H    0.000000   0.000000   0.000002   0.000000   0.492518  -0.027087
    30  H   -0.000004  -0.000025   0.000514   0.000001  -0.027087   0.496091
    31  H   -0.000001   0.000012   0.000014  -0.000001  -0.017910  -0.022948
    32  H    0.000000   0.000000  -0.000004  -0.000001  -0.001002  -0.007823
    33  H   -0.000006  -0.000008   0.000013  -0.000015   0.000681  -0.000508
    34  H    0.000000   0.000000   0.000000   0.000000  -0.000003  -0.000001
    35  H    0.000000   0.000000   0.000000   0.000000   0.000123   0.000010
    36  H    0.000000   0.000000   0.000000   0.000000  -0.000009  -0.000027
    37  C   -0.003952   0.003819  -0.003190  -0.000351  -0.001657  -0.010519
    38  C    0.000055   0.000707  -0.000059  -0.000004   0.000347   0.001480
    39  C    0.000034   0.000019   0.000001   0.000000   0.000017  -0.000003
    40  H    0.003981   0.000187   0.000140   0.000064   0.000007  -0.000238
    41  H    0.000065  -0.003383   0.000689   0.000433   0.000366   0.001859
    42  H    0.000003   0.000005   0.000000   0.000000  -0.000064  -0.000021
    43  H   -0.000003   0.000000   0.000000   0.000000   0.000000  -0.000001
    44  H    0.000100   0.000018   0.000000   0.000000   0.000000   0.000001
              31         32         33         34         35         36
     1  C    0.010875  -0.053324  -0.024949   0.013177   0.001548  -0.016463
     2  C   -0.019212  -0.007719   0.001985  -0.000839   0.001256  -0.000720
     3  C   -0.032152   0.001091   0.009522  -0.000078   0.000172  -0.000085
     4  C    0.000279  -0.000681  -0.001621   0.000065  -0.000016   0.000588
     5  C   -0.000252   0.000557  -0.001043   0.000017  -0.000245   0.001387
     6  H   -0.000296   0.002904   0.005515  -0.000183   0.002466   0.001219
     7  H   -0.007417  -0.000641  -0.000398   0.000016  -0.000027  -0.000035
     8  H   -0.000021   0.000007   0.000025   0.000000   0.000001  -0.000004
     9  H   -0.000013  -0.000010   0.000090  -0.000001   0.000000  -0.000016
    10  O   -0.000175   0.005120  -0.004136   0.000153  -0.000643   0.007221
    11  O   -0.000001  -0.000013  -0.000136   0.000005   0.000000   0.000451
    12  C    0.000179   0.429728   0.392140  -0.050250  -0.051991  -0.034336
    13  C    0.000038  -0.032680  -0.039539   0.421701   0.413442   0.421514
    14  C    0.404406  -0.003811  -0.004415   0.000091  -0.000153  -0.000087
    15  O    0.000298  -0.000875  -0.000555   0.000001  -0.000068   0.000027
    16  Si  -0.000233  -0.000217  -0.002247  -0.000014  -0.000011   0.000020
    17  C    0.000082   0.000013   0.000300   0.000000   0.000000   0.000000
    18  C   -0.000010   0.000076  -0.005292   0.000034  -0.000009   0.000019
    19  C    0.000000   0.000003   0.000005   0.000000   0.000000   0.000001
    20  H    0.000000   0.000000   0.000263   0.000000   0.000000   0.000001
    21  H   -0.000001  -0.000004  -0.001285   0.000015  -0.000001   0.000000
    22  H    0.000000   0.000051  -0.000238   0.000026  -0.000001   0.000019
    23  H    0.000000   0.000000  -0.000008   0.000000   0.000000   0.000000
    24  H    0.000000  -0.000003   0.000027   0.000000   0.000000  -0.000002
    25  H   -0.000001   0.000000  -0.000006   0.000000   0.000000   0.000000
    26  H    0.000012   0.000000  -0.000008   0.000000   0.000000   0.000000
    27  H    0.000014  -0.000004   0.000013   0.000000   0.000000   0.000000
    28  H   -0.000001  -0.000001  -0.000015   0.000000   0.000000   0.000000
    29  H   -0.017910  -0.001002   0.000681  -0.000003   0.000123  -0.000009
    30  H   -0.022948  -0.007823  -0.000508  -0.000001   0.000010  -0.000027
    31  H    0.509372   0.000848  -0.000093   0.000000  -0.000005   0.000002
    32  H    0.000848   0.544001  -0.024986  -0.004926  -0.004348   0.006801
    33  H   -0.000093  -0.024986   0.550132  -0.005389   0.008799  -0.005603
    34  H    0.000000  -0.004926  -0.005389   0.527242  -0.025148  -0.023444
    35  H   -0.000005  -0.004348   0.008799  -0.025148   0.543300  -0.027560
    36  H    0.000002   0.006801  -0.005603  -0.023444  -0.027560   0.512124
    37  C    0.025682   0.000236   0.000640  -0.000002   0.000004   0.000004
    38  C   -0.008400  -0.000011  -0.000039   0.000000   0.000000   0.000000
    39  C   -0.000084   0.000000  -0.000001   0.000000   0.000000   0.000000
    40  H    0.000513   0.000008  -0.000011   0.000000   0.000000   0.000000
    41  H   -0.008507  -0.000051  -0.000052   0.000000   0.000000   0.000000
    42  H    0.001865   0.000002  -0.000004   0.000000   0.000000   0.000000
    43  H   -0.000005   0.000000   0.000000   0.000000   0.000000   0.000000
    44  H   -0.000008   0.000000   0.000000   0.000000   0.000000   0.000000
              37         38         39         40         41         42
     1  C    0.018136  -0.001435  -0.000088  -0.000243  -0.001640   0.000935
     2  C   -0.056287   0.007190   0.000401   0.011011  -0.016918   0.009351
     3  C    0.062019  -0.010977  -0.008279  -0.039790  -0.058036  -0.012352
     4  C   -0.035928  -0.004220  -0.004463  -0.020224   0.007576  -0.000422
     5  C   -0.004398   0.003635   0.000159   0.000268   0.000030   0.000025
     6  H   -0.000204  -0.000004   0.000002   0.000012  -0.000029   0.000002
     7  H   -0.026625   0.009096   0.001401  -0.000648   0.002619  -0.006373
     8  H   -0.007381   0.003532  -0.000789   0.000885  -0.000081   0.000375
     9  H   -0.008683  -0.001864   0.000149   0.002134   0.000059   0.000030
    10  O   -0.002007  -0.000077  -0.000005   0.000027   0.000020   0.000010
    11  O   -0.001054   0.000116  -0.000021   0.000011   0.000008   0.000005
    12  C   -0.001648   0.000234   0.000000  -0.000041   0.000210   0.000003
    13  C    0.000060   0.000000   0.000000  -0.000001  -0.000001   0.000002
    14  C    0.018267  -0.008955  -0.000432   0.000731  -0.004762  -0.000526
    15  O   -0.068424   0.008011  -0.000199  -0.003881   0.002825  -0.000087
    16  Si   0.013210  -0.000928   0.000355   0.005652  -0.003404   0.000102
    17  C    0.010759   0.000809  -0.000063  -0.004308  -0.005436  -0.000021
    18  C   -0.001420   0.000013   0.000000   0.000223   0.000207   0.000001
    19  C   -0.014376   0.000809  -0.000199   0.000027   0.000943  -0.000007
    20  H    0.000026  -0.000001   0.000000  -0.000006  -0.000003   0.000000
    21  H    0.000104   0.000004   0.000000  -0.000013  -0.000002   0.000000
    22  H    0.000051   0.000000   0.000000   0.000002  -0.000012   0.000000
    23  H    0.000371  -0.000011   0.000002   0.000041  -0.000019   0.000000
    24  H    0.000965  -0.000033   0.000008  -0.000437  -0.000032   0.000000
    25  H   -0.003952   0.000055   0.000034   0.003981   0.000065   0.000003
    26  H    0.003819   0.000707   0.000019   0.000187  -0.003383   0.000005
    27  H   -0.003190  -0.000059   0.000001   0.000140   0.000689   0.000000
    28  H   -0.000351  -0.000004   0.000000   0.000064   0.000433   0.000000
    29  H   -0.001657   0.000347   0.000017   0.000007   0.000366  -0.000064
    30  H   -0.010519   0.001480  -0.000003  -0.000238   0.001859  -0.000021
    31  H    0.025682  -0.008400  -0.000084   0.000513  -0.008507   0.001865
    32  H    0.000236  -0.000011   0.000000   0.000008  -0.000051   0.000002
    33  H    0.000640  -0.000039  -0.000001  -0.000011  -0.000052  -0.000004
    34  H   -0.000002   0.000000   0.000000   0.000000   0.000000   0.000000
    35  H    0.000004   0.000000   0.000000   0.000000   0.000000   0.000000
    36  H    0.000004   0.000000   0.000000   0.000000   0.000000   0.000000
    37  C    5.549444   0.172858  -0.039769   0.438899   0.442654  -0.040040
    38  C    0.172858   5.204897   0.537651  -0.034912  -0.029287   0.414477
    39  C   -0.039769   0.537651   4.997046  -0.001614  -0.001757  -0.020973
    40  H    0.438899  -0.034912  -0.001614   0.468005  -0.015052   0.002155
    41  H    0.442654  -0.029287  -0.001757  -0.015052   0.463383  -0.001073
    42  H   -0.040040   0.414477  -0.020973   0.002155  -0.001073   0.492241
    43  H    0.005291  -0.049848   0.424207   0.000332  -0.000251  -0.006117
    44  H    0.011207  -0.070180   0.434334  -0.001909   0.000452   0.004064
              43         44
     1  C    0.000000   0.000001
     2  C   -0.000013   0.000363
     3  C    0.000201  -0.003866
     4  C   -0.000052  -0.000195
     5  C    0.000003  -0.000030
     6  H    0.000000   0.000000
     7  H    0.000007  -0.000041
     8  H    0.000015  -0.000009
     9  H    0.000006   0.000092
    10  O    0.000000   0.000000
    11  O    0.000000   0.000002
    12  C    0.000000   0.000001
    13  C    0.000000   0.000000
    14  C    0.000022  -0.000023
    15  O    0.000006  -0.000032
    16  Si   0.000002   0.000134
    17  C    0.000001  -0.000007
    18  C    0.000000   0.000000
    19  C    0.000000  -0.000048
    20  H    0.000000   0.000000
    21  H    0.000000   0.000000
    22  H    0.000000   0.000000
    23  H    0.000000   0.000001
    24  H    0.000000   0.000001
    25  H   -0.000003   0.000100
    26  H    0.000000   0.000018
    27  H    0.000000   0.000000
    28  H    0.000000   0.000000
    29  H    0.000000   0.000000
    30  H   -0.000001   0.000001
    31  H   -0.000005  -0.000008
    32  H    0.000000   0.000000
    33  H    0.000000   0.000000
    34  H    0.000000   0.000000
    35  H    0.000000   0.000000
    36  H    0.000000   0.000000
    37  C    0.005291   0.011207
    38  C   -0.049848  -0.070180
    39  C    0.424207   0.434334
    40  H    0.000332  -0.001909
    41  H   -0.000251   0.000452
    42  H   -0.006117   0.004064
    43  H    0.497602  -0.022555
    44  H   -0.022555   0.502112
 Mulliken charges:
               1
     1  C   -0.034619
     2  C   -0.138478
     3  C    0.267800
     4  C   -0.410143
     5  C    0.361819
     6  H    0.181665
     7  H    0.189658
     8  H    0.209915
     9  H    0.189654
    10  O   -0.253676
    11  O   -0.383108
    12  C   -0.266848
    13  C   -0.440233
    14  C   -0.522178
    15  O   -0.404162
    16  Si   0.485483
    17  C   -0.567136
    18  C   -0.599215
    19  C   -0.593741
    20  H    0.162390
    21  H    0.162865
    22  H    0.166363
    23  H    0.171740
    24  H    0.176539
    25  H    0.165968
    26  H    0.162899
    27  H    0.164233
    28  H    0.164006
    29  H    0.174415
    30  H    0.180405
    31  H    0.163280
    32  H    0.151684
    33  H    0.152440
    34  H    0.147734
    35  H    0.139104
    36  H    0.156992
    37  C   -0.446789
    38  C   -0.144674
    39  C   -0.317047
    40  H    0.188011
    41  H    0.225387
    42  H    0.162429
    43  H    0.151150
    44  H    0.146020
 Sum of Mulliken charges =   0.00000
 Mulliken charges with hydrogens summed into heavy atoms:
               1
     1  C    0.147047
     2  C    0.051180
     3  C    0.267800
     4  C   -0.010573
     5  C    0.361819
    10  O   -0.253676
    11  O   -0.383108
    12  C    0.037276
    13  C    0.003597
    14  C   -0.004078
    15  O   -0.404162
    16  Si   0.485483
    17  C   -0.075999
    18  C   -0.107597
    19  C   -0.079495
    37  C   -0.033392
    38  C    0.017755
    39  C   -0.019877
 Electronic spatial extent (au):  <R**2>=           5104.9756
 Charge=              0.0000 electrons
 Dipole moment (field-independent basis, Debye):
    X=             -3.3300    Y=              1.3771    Z=             -5.0720  Tot=              6.2218
 Quadrupole moment (field-independent basis, Debye-Ang):
   XX=           -122.3371   YY=           -111.8273   ZZ=           -133.1083
   XY=              2.0276   XZ=            -14.6237   YZ=             -1.0345
 Traceless Quadrupole moment (field-independent basis, Debye-Ang):
   XX=              0.0871   YY=             10.5969   ZZ=            -10.6841
   XY=              2.0276   XZ=            -14.6237   YZ=             -1.0345
 Octapole moment (field-independent basis, Debye-Ang**2):
  XXX=             -1.2009  YYY=             17.2632  ZZZ=            -49.7310  XYY=             -3.3266
  XXY=             -6.1090  XXZ=            -16.3155  XZZ=            -20.0962  YZZ=              0.3136
  YYZ=              6.3598  XYZ=             -7.1912
 Hexadecapole moment (field-independent basis, Debye-Ang**3):
 XXXX=          -3108.7679 YYYY=          -2480.4551 ZZZZ=          -1556.5045 XXXY=             47.0704
 XXXZ=            -78.5742 YYYX=             19.1944 YYYZ=              9.8356 ZZZX=            -75.3487
 ZZZY=             -4.7782 XXYY=           -914.3640 XXZZ=           -797.1095 YYZZ=           -652.0625
 XXYZ=              6.1257 YYXZ=            -21.2776 ZZXY=             -4.4946
 N-N= 1.646942082323D+03 E-N=-5.787235481114D+03  KE= 1.059312612725D+03
 1\1\GINC-CPU-E-273\SP\RM062X\def2TZVP\C14H26O3Si1\KE291\26-Jun-2019\0\
 \# m062x/def2tzvp int=ultrafine scrf=(solvent=chloroform)\\IP1_4ginp00
 9\\0,1\C,0,2.270076,0.471706,-0.508489\C,0,0.980352,1.190918,-0.96645\
 C,0,-0.257287,0.778432,-0.131918\C,0,0.075822,1.057926,1.340652\C,0,1.
 410635,0.529885,1.819683\H,0,3.112625,1.083101,-0.853846\H,0,1.144193,
 2.25248,-0.740129\H,0,0.098872,2.143465,1.499056\H,0,-0.692229,0.66100
 3,2.006051\O,0,2.435052,0.471967,0.944653\O,0,1.618418,0.244999,2.9819
 69\C,0,2.504586,-0.963559,-0.996436\C,0,3.892956,-1.49483,-0.624795\C,
 0,0.784662,1.062955,-2.48341\O,0,-0.46383,-0.621024,-0.324359\Si,0,-1.
 695288,-1.721833,0.010006\C,0,-3.078971,-1.602314,-1.268421\C,0,-0.848
 342,-3.395284,-0.132848\C,0,-2.411868,-1.514159,1.744526\H,0,-1.567384
 ,-4.208398,0.017384\H,0,-0.395388,-3.528284,-1.120846\H,0,-0.057759,-3
 .504459,0.616737\H,0,-3.135632,-2.315816,1.934232\H,0,-1.635506,-1.583
 19,2.513644\H,0,-2.939906,-0.564066,1.877774\H,0,-3.636898,-0.66336,-1
 .199605\H,0,-2.685052,-1.686751,-2.28694\H,0,-3.792352,-2.421695,-1.12
 0822\H,0,1.723297,1.251561,-3.014531\H,0,0.431928,0.065605,-2.755808\H
 ,0,0.055704,1.790711,-2.849431\H,0,2.391849,-0.976155,-2.085704\H,0,1.
 723262,-1.609871,-0.591346\H,0,4.028899,-2.514042,-0.999602\H,0,4.6866
 14,-0.873194,-1.055824\H,0,4.032049,-1.510593,0.459207\C,0,-1.539541,1
 .558527,-0.541407\C,0,-1.428271,3.059838,-0.539627\C,0,-2.061777,3.868
 062,0.312845\H,0,-2.341867,1.260121,0.143479\H,0,-1.827037,1.211191,-1
 .540272\H,0,-0.792557,3.503727,-1.305217\H,0,-1.954268,4.947442,0.2616
 49\H,0,-2.716735,3.478984,1.089087\\Version=ES64L-G09RevD.01\State=1-A
 \HF=-1064.3401204\RMSD=1.462e-09\Dipole=-1.3101249,0.5418069,-1.995477
 6\Quadrupole=0.0647863,7.8785546,-7.9433409,1.5074354,-10.872383,-0.76
 91428\PG=C01 [X(C14H26O3Si1)]\\@


 NO SCIENCE HAS EVER MADE MORE RAPID PROGRESS IN A
 SHORTER TIME THAN CHEMISTRY.
   -- MARTIN HEINRICH KLOPROTH, 1791
 (FIRST PROFESSOR OF CHEMISTRY AT THE UNIVERSITY OF BERLIN)
 Job cpu time:       0 days  2 hours 31 minutes 49.0 seconds.
 File lengths (MBytes):  RWF=    408 Int=      0 D2E=      0 Chk=     21 Scr=      1
 Normal termination of Gaussian 09 at Wed Jun 26 13:49:32 2019.
