 Entering Gaussian System, Link 0=/usr/local/Cluster-Apps/gaussian/g09/g09
 Initial command:
 /usr/local/Cluster-Apps/gaussian/g09/l1.exe "/home/ke291/rds/hpc-work/26Jun1304IP1NMR/Gau-330972.inp" -scrdir="/home/ke291/rds/hpc-work/26Jun1304IP1NMR/"
 Entering Link 1 = /usr/local/Cluster-Apps/gaussian/g09/l1.exe PID=    330982.
  
 Copyright (c) 1988,1990,1992,1993,1995,1998,2003,2009,2013,
            Gaussian, Inc.  All Rights Reserved.
  
 This is part of the Gaussian(R) 09 program.  It is based on
 the Gaussian(R) 03 system (copyright 2003, Gaussian, Inc.),
 the Gaussian(R) 98 system (copyright 1998, Gaussian, Inc.),
 the Gaussian(R) 94 system (copyright 1995, Gaussian, Inc.),
 the Gaussian 92(TM) system (copyright 1992, Gaussian, Inc.),
 the Gaussian 90(TM) system (copyright 1990, Gaussian, Inc.),
 the Gaussian 88(TM) system (copyright 1988, Gaussian, Inc.),
 the Gaussian 86(TM) system (copyright 1986, Carnegie Mellon
 University), and the Gaussian 82(TM) system (copyright 1983,
 Carnegie Mellon University). Gaussian is a federally registered
 trademark of Gaussian, Inc.
  
 This software contains proprietary and confidential information,
 including trade secrets, belonging to Gaussian, Inc.
  
 This software is provided under written license and may be
 used, copied, transmitted, or stored only in accord with that
 written license.
  
 The following legend is applicable only to US Government
 contracts under FAR:
  
                    RESTRICTED RIGHTS LEGEND
  
 Use, reproduction and disclosure by the US Government is
 subject to restrictions as set forth in subparagraphs (a)
 and (c) of the Commercial Computer Software - Restricted
 Rights clause in FAR 52.227-19.
  
 Gaussian, Inc.
 340 Quinnipiac St., Bldg. 40, Wallingford CT 06492
  
  
 ---------------------------------------------------------------
 Warning -- This program may not be used in any manner that
 competes with the business of Gaussian, Inc. or will provide
 assistance to any competitor of Gaussian, Inc.  The licensee
 of this program is prohibited from giving any competitor of
 Gaussian, Inc. access to this program.  By using this program,
 the user acknowledges that Gaussian, Inc. is engaged in the
 business of creating and licensing software in the field of
 computational chemistry and represents and warrants to the
 licensee that it is not a competitor of Gaussian, Inc. and that
 it will not use this program in any manner prohibited above.
 ---------------------------------------------------------------
  

 Cite this work as:
 Gaussian 09, Revision D.01,
 M. J. Frisch, G. W. Trucks, H. B. Schlegel, G. E. Scuseria, 
 M. A. Robb, J. R. Cheeseman, G. Scalmani, V. Barone, B. Mennucci, 
 G. A. Petersson, H. Nakatsuji, M. Caricato, X. Li, H. P. Hratchian, 
 A. F. Izmaylov, J. Bloino, G. Zheng, J. L. Sonnenberg, M. Hada, 
 M. Ehara, K. Toyota, R. Fukuda, J. Hasegawa, M. Ishida, T. Nakajima, 
 Y. Honda, O. Kitao, H. Nakai, T. Vreven, J. A. Montgomery, Jr., 
 J. E. Peralta, F. Ogliaro, M. Bearpark, J. J. Heyd, E. Brothers, 
 K. N. Kudin, V. N. Staroverov, T. Keith, R. Kobayashi, J. Normand, 
 K. Raghavachari, A. Rendell, J. C. Burant, S. S. Iyengar, J. Tomasi, 
 M. Cossi, N. Rega, J. M. Millam, M. Klene, J. E. Knox, J. B. Cross, 
 V. Bakken, C. Adamo, J. Jaramillo, R. Gomperts, R. E. Stratmann, 
 O. Yazyev, A. J. Austin, R. Cammi, C. Pomelli, J. W. Ochterski, 
 R. L. Martin, K. Morokuma, V. G. Zakrzewski, G. A. Voth, 
 P. Salvador, J. J. Dannenberg, S. Dapprich, A. D. Daniels, 
 O. Farkas, J. B. Foresman, J. V. Ortiz, J. Cioslowski, 
 and D. J. Fox, Gaussian, Inc., Wallingford CT, 2013.
 
 ******************************************
 Gaussian 09:  ES64L-G09RevD.01 24-Apr-2013
                26-Jun-2019 
 ******************************************
 %nprocshared=4
 Will use up to    4 processors via shared memory.
 %mem=6000MB
 %chk=IP1_2ginp016.chk
 --------------------------------------------------------
 # m062x/def2tzvp int=ultrafine scrf=(solvent=chloroform)
 --------------------------------------------------------
 1/38=1/1;
 2/12=2,17=6,18=5,40=1/2;
 3/5=44,7=101,11=2,16=1,25=1,30=1,70=2201,72=7,74=-55,75=-5/1,2,3;
 4//1;
 5/5=2,38=5,53=7/2;
 6/7=2,8=2,9=2,10=2,28=1/1;
 99/5=1,9=1/99;
 ------------
 IP1_2ginp016
 ------------
 Symbolic Z-matrix:
 Charge =  0 Multiplicity = 1
 C                    -2.30628   0.027    -0.40337 
 C                    -0.82627   0.06242  -0.80867 
 C                     0.05781   0.43891   0.4152 
 C                    -0.16327  -0.67727   1.4511 
 C                    -1.61778  -0.9659    1.777 
 H                    -2.6383    1.05353  -0.20594 
 H                    -0.52222  -0.95797  -1.07388 
 H                     0.24771  -1.61881   1.06747 
 H                     0.34717  -0.46518   2.39321 
 O                    -2.5537   -0.70452   0.84194 
 O                    -1.9624   -1.47496   2.82303 
 C                    -3.2649   -0.58894  -1.42947 
 C                    -2.95174  -2.0321   -1.83547 
 C                    -0.62291   0.93896  -2.05289 
 O                     1.42382   0.52127   0.02315 
 Si                    2.69846  -0.55673  -0.19959 
 C                     2.21466  -2.03187  -1.27584 
 C                     4.00142   0.48016  -1.07321 
 C                     3.37083  -1.16258   1.45617 
 H                     4.91218  -0.10355  -1.24747 
 H                     3.64186   0.83814  -2.0435 
 H                     4.27441   1.35452  -0.47328 
 H                     4.28783  -1.74253   1.29906 
 H                     3.61973  -0.31997   2.11012 
 H                     2.66353  -1.8046    1.9902 
 H                     3.10211  -2.64279  -1.47945 
 H                     1.47541  -2.68526  -0.80026 
 H                     1.80847  -1.70778  -2.23969 
 H                     0.44363   1.07849  -2.2406 
 H                    -1.05999   0.46314  -2.93537 
 H                    -1.07518   1.92654  -1.9363 
 H                    -3.28399   0.06062  -2.31117 
 H                    -4.26875  -0.54193  -0.99293 
 H                    -3.74175  -2.42329  -2.48325 
 H                    -2.00881  -2.1116   -2.38573 
 H                    -2.88856  -2.68123  -0.95699 
 C                    -0.27513   1.79781   1.09179 
 C                    -0.04005   3.0393    0.2761 
 C                    -0.88793   4.06636   0.19514 
 H                     0.37713   1.84252   1.97522 
 H                    -1.30355   1.78987   1.47036 
 H                     0.91766   3.08985  -0.23792 
 H                    -0.64768   4.959    -0.37509 
 H                    -1.8511    4.05666   0.70093 
 
                          Input orientation:                          
 ---------------------------------------------------------------------
 Center     Atomic      Atomic             Coordinates (Angstroms)
 Number     Number       Type             X           Y           Z
 ---------------------------------------------------------------------
      1          6           0       -2.306276    0.026995   -0.403372
      2          6           0       -0.826266    0.062418   -0.808665
      3          6           0        0.057813    0.438912    0.415204
      4          6           0       -0.163274   -0.677266    1.451095
      5          6           0       -1.617779   -0.965902    1.776996
      6          1           0       -2.638301    1.053533   -0.205944
      7          1           0       -0.522220   -0.957973   -1.073881
      8          1           0        0.247707   -1.618809    1.067469
      9          1           0        0.347168   -0.465175    2.393206
     10          8           0       -2.553700   -0.704520    0.841935
     11          8           0       -1.962399   -1.474964    2.823031
     12          6           0       -3.264902   -0.588935   -1.429465
     13          6           0       -2.951736   -2.032103   -1.835466
     14          6           0       -0.622905    0.938957   -2.052889
     15          8           0        1.423817    0.521271    0.023150
     16         14           0        2.698461   -0.556730   -0.199588
     17          6           0        2.214662   -2.031870   -1.275838
     18          6           0        4.001424    0.480162   -1.073213
     19          6           0        3.370828   -1.162577    1.456172
     20          1           0        4.912182   -0.103545   -1.247469
     21          1           0        3.641864    0.838135   -2.043498
     22          1           0        4.274410    1.354519   -0.473279
     23          1           0        4.287831   -1.742532    1.299064
     24          1           0        3.619729   -0.319968    2.110119
     25          1           0        2.663532   -1.804604    1.990200
     26          1           0        3.102107   -2.642790   -1.479446
     27          1           0        1.475412   -2.685259   -0.800261
     28          1           0        1.808468   -1.707779   -2.239688
     29          1           0        0.443627    1.078495   -2.240597
     30          1           0       -1.059990    0.463135   -2.935368
     31          1           0       -1.075182    1.926538   -1.936302
     32          1           0       -3.283990    0.060616   -2.311166
     33          1           0       -4.268745   -0.541933   -0.992931
     34          1           0       -3.741746   -2.423289   -2.483245
     35          1           0       -2.008805   -2.111599   -2.385727
     36          1           0       -2.888556   -2.681231   -0.956986
     37          6           0       -0.275133    1.797809    1.091794
     38          6           0       -0.040050    3.039299    0.276099
     39          6           0       -0.887933    4.066356    0.195140
     40          1           0        0.377132    1.842523    1.975215
     41          1           0       -1.303554    1.789871    1.470360
     42          1           0        0.917659    3.089854   -0.237917
     43          1           0       -0.647681    4.958996   -0.375090
     44          1           0       -1.851097    4.056665    0.700928
 ---------------------------------------------------------------------
                    Distance matrix (angstroms):
                    1          2          3          4          5
     1  C    0.000000
     2  C    1.534909   0.000000
     3  C    2.535480   1.556020   0.000000
     4  C    2.920186   2.468442   1.538767   0.000000
     5  C    2.492765   2.893022   2.575964   1.518258   0.000000
     6  H    1.096813   2.151523   2.834187   3.444881   3.008593
     7  H    2.145367   1.097261   2.122522   2.565764   3.054147
     8  H    3.375629   2.738580   2.166962   1.096621   2.099941
     9  H    3.886367   3.450693   2.193990   1.092294   2.119306
    10  O    1.465306   2.509323   2.882627   2.466973   1.348558
    11  O    3.575445   4.104090   3.679920   2.399038   1.213300
    12  C    1.533362   2.599346   3.936967   4.233855   3.624432
    13  C    2.589864   3.155782   4.497646   4.518029   3.995761
    14  C    2.527117   1.535503   2.608621   3.886044   4.391615
    15  O    3.786796   2.442404   1.423537   2.448341   3.813000
    16  Si   5.042782   3.630154   2.888303   3.305875   4.764896
    17  C    5.043709   3.721765   3.690039   3.863379   5.014348
    18  C    6.359334   4.852946   4.215347   5.005645   6.464537
    19  C    6.091182   4.923992   3.824193   3.567272   5.002780
    20  H    7.268815   5.757593   5.159810   5.776821   7.247858
    21  H    6.223209   4.700078   4.364632   5.384022   6.746449
    22  H    6.713616   5.272467   4.405386   5.246371   6.720564
    23  H    7.036459   5.818449   4.840760   4.579328   5.975601
    24  H    6.446360   5.332203   4.016949   3.856564   5.287692
    25  H    5.812309   4.847485   3.782030   3.090689   4.367894
    26  H    6.126687   4.816660   4.728035   4.807709   5.974420
    27  H    4.670654   3.584344   3.639696   3.433064   4.377930
    28  H    4.828314   3.481845   3.836864   4.309478   5.331351
    29  H    3.470305   2.166903   2.758840   4.132749   4.956814
    30  H    2.855600   2.176710   3.532195   4.620138   4.955769
    31  H    2.733812   2.192822   3.004378   4.368733   4.738059
    32  H    2.143999   2.880611   4.329417   4.943475   4.532446
    33  H    2.126627   3.499979   4.654461   4.779798   3.857443
    34  H    3.519991   4.181265   5.570444   5.597597   4.978440
    35  H    2.931178   2.934599   4.315232   4.492716   4.335180
    36  H    2.824894   3.435498   4.505473   4.152336   3.468701
    37  C    3.081695   2.631933   1.554100   2.503519   3.148063
    38  C    3.830331   3.264455   2.605943   3.899828   4.558899
    39  C    4.322771   4.128310   3.755158   4.960293   5.325276
    40  H    4.019266   3.516664   2.122669   2.629844   3.450538
    41  H    2.761169   2.899285   2.189010   2.717973   2.790528
    42  H    4.449971   3.540112   2.862411   4.267595   5.190133
    43  H    5.203496   4.918979   4.642569   5.944498   6.377851
    44  H    4.202964   4.391259   4.100453   5.081496   5.141842
                    6          7          8          9         10
     6  H    0.000000
     7  H    3.045861   0.000000
     8  H    4.134251   2.369572   0.000000
     9  H    4.239703   3.608237   1.760211   0.000000
    10  O    2.048404   2.803837   2.955448   3.298297   0.000000
    11  O    4.003103   4.186564   2.826174   2.557054   2.206346
    12  C    2.141806   2.790149   4.430998   5.260720   2.382945
    13  C    3.503532   2.763388   4.339848   5.587459   3.014861
    14  C    2.736084   2.137039   4.127562   4.762393   3.848245
    15  O    4.103241   2.679310   2.655895   2.783777   4.241888
    16  Si   5.574407   3.361275   2.956288   3.501363   5.356473
    17  C    5.849413   2.946959   3.087170   4.404992   5.383688
    18  C    6.720629   4.746745   4.804018   5.124774   6.931155
    19  C    6.616903   4.647457   3.180114   3.241438   5.973871
    20  H    7.709306   5.503899   5.423310   5.850183   7.776000
    21  H    6.547020   4.637430   5.218715   5.677850   7.006463
    22  H    6.924423   5.358731   5.237263   5.191460   7.252070
    23  H    7.619339   5.420608   4.048647   4.284578   6.934910
    24  H    6.812752   5.263140   3.760936   3.287990   6.314063
    25  H    6.411040   4.500488   2.592713   2.705924   5.454192
    26  H    6.945279   4.017317   3.960166   5.227727   6.413568
    27  H    5.590565   2.654980   2.476488   4.049684   4.780573
    28  H    5.615578   2.711719   3.658029   5.014296   5.434284
    29  H    3.693063   2.537969   4.272837   4.885115   4.654580
    30  H    3.207708   2.402890   4.697581   5.588878   4.226418
    31  H    2.489903   3.061036   4.831373   5.146650   4.102083
    32  H    2.415524   3.193082   5.168029   5.965977   3.325778
    33  H    2.413132   3.770423   5.079690   5.725248   2.516853
    34  H    4.300230   3.807730   5.400972   6.658318   3.927142
    35  H    3.894327   2.293846   4.154425   5.576694   3.562946
    36  H    3.817742   2.929647   3.881147   5.157965   2.693628
    37  C    2.796897   3.513621   3.456477   2.683660   3.393516
    38  C    3.305532   4.246542   4.733608   4.112593   4.544754
    39  C    3.507386   5.195002   5.862741   5.185725   5.094544
    40  H    3.804313   4.236579   3.580722   2.345439   4.044939
    41  H    2.265775   3.825479   3.766674   2.943087   2.860030
    42  H    4.097862   4.376870   4.931975   4.459428   5.254873
    43  H    4.386778   5.959410   6.793395   6.170480   6.098317
    44  H    3.234333   5.482924   6.062206   5.305018   4.814812
                   11         12         13         14         15
    11  O    0.000000
    12  C    4.534896   0.000000
    13  C    4.794871   1.531549   0.000000
    14  C    5.603200   3.115006   3.781260   0.000000
    15  O    4.826049   5.032567   5.396261   2.945076   0.000000
    16  Si   5.630541   6.088952   6.064450   4.086964   1.684166
    17  C    5.878666   5.668446   5.196619   4.181077   2.971756
    18  C    7.387179   7.353188   7.432290   4.749176   2.801385
    19  C    5.514454   7.258711   7.180931   5.716630   2.946141
    20  H    8.106147   8.193499   8.118268   5.689701   3.764779
    21  H    7.774400   7.079335   7.194241   4.265971   3.048142
    22  H    7.600620   7.844267   8.095798   5.162514   3.011084
    23  H    6.438901   8.112918   7.894331   6.522369   3.867213
    24  H    5.744773   7.745911   7.853865   6.075810   3.144066
    25  H    4.711848   6.951136   6.798434   5.888494   3.288750
    26  H    6.747173   6.690263   6.094974   5.199371   3.884036
    27  H    5.139222   5.221211   4.593245   4.371150   3.310967
    28  H    6.317022   5.258075   4.788332   3.598844   3.199540
    29  H    6.160312   4.146257   4.622601   1.091877   2.528996
    30  H    6.142453   2.869884   3.318840   1.093718   3.863354
    31  H    5.916808   3.373331   4.382061   1.092457   3.472639
    32  H    5.519473   1.095298   2.171671   2.814172   5.274911
    33  H    4.555364   1.095660   2.159858   4.075377   5.879463
    34  H    5.676439   2.168568   1.093965   4.606199   6.452557
    35  H    5.247725   2.193336   1.094635   3.367104   4.951524
    36  H    4.074479   2.177745   1.094114   4.409075   5.460151
    37  C    4.068795   4.581704   5.513736   3.278354   2.378651
    38  C    5.528188   5.145163   6.217374   3.189881   2.923586
    39  C    6.226276   5.473669   6.750840   3.860634   4.235729
    40  H    4.147037   5.546913   6.373020   4.247603   2.579111
    41  H    3.594850   4.232563   5.315306   3.687902   3.338011
    42  H    6.204974   5.696235   6.615045   3.208398   2.630964
    43  H    7.304266   6.224234   7.504454   4.356184   4.913563
    44  H    5.925760   5.302737   6.687137   4.337288   4.866565
                   16         17         18         19         20
    16  Si   0.000000
    17  C    1.889024   0.000000
    18  C    1.880446   3.089317   0.000000
    19  C    1.886974   3.091322   3.081239   0.000000
    20  H    2.490781   3.316000   1.095700   3.287400   0.000000
    21  H    2.497131   3.295927   1.094934   4.040297   1.770348
    22  H    2.492267   4.044044   1.094962   3.297729   1.769767
    23  H    2.485595   3.318413   3.263448   1.096324   3.092074
    24  H    2.497907   4.045927   3.304467   1.095257   3.604257
    25  H    2.520631   3.304563   4.049026   1.094373   4.293312
    26  H    2.480446   1.096466   3.275153   3.298650   3.126971
    27  H    2.527309   1.095254   4.058957   3.317025   4.321647
    28  H    2.505795   1.095005   3.310107   4.049394   3.631956
    29  H    3.453108   3.706979   3.791927   5.220825   4.727738
    30  H    4.759262   4.438743   5.393127   6.446760   6.231931
    31  H    4.839750   5.189247   5.348725   6.388937   6.359580
    32  H    6.374135   5.973740   7.401743   7.744394   8.266537
    33  H    7.012244   6.658417   8.333476   8.046514   9.194911
    34  H    7.083459   6.090143   8.388975   8.227825   9.044270
    35  H    5.418042   4.367595   6.675535   6.678419   7.295750
    36  H    6.025107   5.154238   7.581539   6.878192   8.220727
    37  C    4.006717   5.145017   4.971156   4.710593   5.999628
    38  C    4.545013   5.762724   4.970245   5.539172   6.059978
    39  C    5.864380   6.998445   6.194782   6.860684   7.287697
    40  H    3.984313   5.381151   4.927924   4.273435   5.894027
    41  H    4.930658   5.875811   6.027262   5.528743   7.043223
    42  H    4.058362   5.384381   4.125266   5.193375   5.212793
    43  H    6.453735   7.607665   6.493189   7.548218   7.569838
    44  H    6.541622   7.583420   7.084557   7.421548   8.175912
                   21         22         23         24         25
    21  H    0.000000
    22  H    1.769846   0.000000
    23  H    4.271983   3.568348   0.000000
    24  H    4.312102   3.147453   1.768575   0.000000
    25  H    4.920561   4.317837   1.766315   1.769982   0.000000
    26  H    3.567398   4.285457   3.152225   4.306787   3.596296
    27  H    4.318965   4.925557   3.633951   4.320070   3.158141
    28  H    3.143487   4.310306   4.321020   4.911976   4.316534
    29  H    3.213307   4.227825   5.938459   5.565254   5.580312
    30  H    4.800363   5.942413   7.169001   6.926035   6.577878
    31  H    4.842173   5.575462   7.258896   6.592610   6.581552
    32  H    6.974499   7.885520   8.580069   8.206945   7.573230
    33  H    8.098519   8.766531   8.939221   8.479753   7.651789
    34  H    8.083809   9.086834   8.901876   8.928285   7.837223
    35  H    6.383425   7.426320   7.304897   7.423137   6.408878
    36  H    7.497522   8.235857   7.580993   7.572349   6.346657
    37  C    5.108218   4.831594   5.779067   4.548837   4.735004
    38  C    4.876694   4.691974   6.530155   5.295497   5.806108
    39  C    5.995996   5.869466   7.858140   6.574648   7.092483
    40  H    5.274213   4.628396   5.348211   3.899872   4.304577
    41  H    6.140860   5.922917   6.615950   5.394389   5.378499
    42  H    3.968835   3.786101   6.088705   4.943819   5.654051
    43  H    6.177805   6.101547   8.489555   7.228728   7.893352
    44  H    6.932779   6.797219   8.466102   7.146375   7.509898
                   26         27         28         29         30
    26  H    0.000000
    27  H    1.763302   0.000000
    28  H    1.767969   1.771537   0.000000
    29  H    4.636252   4.159927   3.102598   0.000000
    30  H    5.393471   4.571579   3.663999   1.766986   0.000000
    31  H    6.207835   5.391177   4.649273   1.765943   1.771980
    32  H    6.984440   5.698646   5.391239   3.864736   2.344744
    33  H    7.679828   6.134029   6.312378   5.137013   3.883212
    34  H    6.920558   5.488151   5.601442   5.462483   3.965813
    35  H    5.217751   3.870731   3.841350   4.026436   2.798501
    36  H    6.013525   4.366783   4.965377   5.185233   4.140614
    37  C    6.142959   5.171284   5.265863   3.484086   4.314555
    38  C    6.726160   6.018782   5.681633   3.226834   4.241511
    39  C    7.983564   7.222225   6.821994   4.078380   4.776284
    40  H    6.283168   5.423126   5.693749   4.285001   5.299232
    41  H    6.910838   5.736302   5.973499   4.162920   4.607601
    42  H    6.259107   5.829172   5.274269   2.877672   4.252880
    43  H    8.547962   7.944994   7.345426   4.441774   5.190163
    44  H    8.612256   7.666340   7.434276   4.773659   5.173196
                   31         32         33         34         35
    31  H    0.000000
    32  H    2.915651   0.000000
    33  H    4.145135   1.752299   0.000000
    34  H    5.131345   2.531588   2.457288   0.000000
    35  H    4.168955   2.519955   3.084001   1.763447   0.000000
    36  H    5.047665   3.083488   2.546136   1.767465   1.771932
    37  C    3.134647   4.863250   5.076358   6.528091   5.512009
    38  C    2.684111   5.107802   5.684850   7.152370   6.123158
    39  C    3.026042   5.297982   5.837613   7.578488   6.788546
    40  H    4.173277   5.912027   6.006638   7.418906   6.351818
    41  H    3.417042   4.605691   4.505271   6.271084   5.530665
    42  H    2.865176   5.579292   6.376418   7.559517   6.342901
    43  H    3.437432   5.890046   6.614685   8.277420   7.475870
    44  H    3.477710   5.205219   5.464548   7.463465   6.899260
                   36         37         38         39         40
    36  H    0.000000
    37  C    5.575776   0.000000
    38  C    6.508375   1.503968   0.000000
    39  C    7.131607   2.515118   1.334281   0.000000
    40  H    6.302926   1.099037   2.119743   3.116808   0.000000
    41  H    5.328695   1.095913   2.140975   2.642217   1.755664
    42  H    6.950522   2.204601   1.088106   2.097917   2.597298
    43  H    7.983307   3.504803   2.116246   1.086135   4.035663
    44  H    7.015999   2.781882   2.120237   1.087934   3.389873
                   41         42         43         44
    41  H    0.000000
    42  H    3.089005   0.000000
    43  H    3.725481   2.441884   0.000000
    44  H    2.455643   3.079312   1.849385   0.000000
 Stoichiometry    C14H26O3Si
 Framework group  C1[X(C14H26O3Si)]
 Deg. of freedom   126
 Full point group                 C1      NOp   1
 Largest Abelian subgroup         C1      NOp   1
 Largest concise Abelian subgroup C1      NOp   1
                         Standard orientation:                         
 ---------------------------------------------------------------------
 Center     Atomic      Atomic             Coordinates (Angstroms)
 Number     Number       Type             X           Y           Z
 ---------------------------------------------------------------------
      1          6           0       -2.306276    0.026995   -0.403372
      2          6           0       -0.826266    0.062418   -0.808665
      3          6           0        0.057813    0.438912    0.415204
      4          6           0       -0.163274   -0.677266    1.451095
      5          6           0       -1.617779   -0.965902    1.776996
      6          1           0       -2.638301    1.053533   -0.205944
      7          1           0       -0.522220   -0.957973   -1.073881
      8          1           0        0.247707   -1.618809    1.067469
      9          1           0        0.347168   -0.465175    2.393206
     10          8           0       -2.553700   -0.704520    0.841935
     11          8           0       -1.962399   -1.474964    2.823031
     12          6           0       -3.264902   -0.588935   -1.429465
     13          6           0       -2.951736   -2.032103   -1.835466
     14          6           0       -0.622905    0.938957   -2.052889
     15          8           0        1.423817    0.521271    0.023150
     16         14           0        2.698461   -0.556730   -0.199588
     17          6           0        2.214662   -2.031870   -1.275838
     18          6           0        4.001424    0.480162   -1.073213
     19          6           0        3.370828   -1.162577    1.456172
     20          1           0        4.912182   -0.103545   -1.247469
     21          1           0        3.641864    0.838135   -2.043498
     22          1           0        4.274410    1.354519   -0.473279
     23          1           0        4.287831   -1.742532    1.299064
     24          1           0        3.619729   -0.319968    2.110119
     25          1           0        2.663532   -1.804604    1.990200
     26          1           0        3.102107   -2.642790   -1.479446
     27          1           0        1.475412   -2.685259   -0.800261
     28          1           0        1.808468   -1.707779   -2.239688
     29          1           0        0.443627    1.078495   -2.240597
     30          1           0       -1.059990    0.463135   -2.935368
     31          1           0       -1.075182    1.926538   -1.936302
     32          1           0       -3.283990    0.060616   -2.311166
     33          1           0       -4.268745   -0.541933   -0.992931
     34          1           0       -3.741746   -2.423289   -2.483245
     35          1           0       -2.008805   -2.111599   -2.385727
     36          1           0       -2.888556   -2.681231   -0.956986
     37          6           0       -0.275133    1.797809    1.091794
     38          6           0       -0.040050    3.039299    0.276099
     39          6           0       -0.887933    4.066356    0.195140
     40          1           0        0.377132    1.842523    1.975215
     41          1           0       -1.303554    1.789871    1.470360
     42          1           0        0.917659    3.089854   -0.237917
     43          1           0       -0.647681    4.958996   -0.375090
     44          1           0       -1.851097    4.056665    0.700928
 ---------------------------------------------------------------------
 Rotational constants (GHZ):      0.4407172      0.2803524      0.2536897
 Standard basis: def2TZVP (5D, 7F)
 There are   810 symmetry adapted cartesian basis functions of A   symmetry.
 There are   720 symmetry adapted basis functions of A   symmetry.
   720 basis functions,  1144 primitive gaussians,   810 cartesian basis functions
    74 alpha electrons       74 beta electrons
       nuclear repulsion energy      1632.1667698649 Hartrees.
 NAtoms=   44 NActive=   44 NUniq=   44 SFac= 1.00D+00 NAtFMM=   60 NAOKFM=F Big=F
 Integral buffers will be    131072 words long.
 Raffenetti 2 integral format.
 Two-electron integral symmetry is turned on.
 ------------------------------------------------------------------------------
 Polarizable Continuum Model (PCM)
 =================================
 Model                : PCM (using non-symmetric T matrix).
 Atomic radii         : UFF (Universal Force Field).
 Polarization charges : Total charges.
 Charge compensation  : None.
 Solution method      : On-the-fly selection.
 Cavity type          : Scaled VdW (van der Waals Surface) (Alpha=1.100).
 Cavity algorithm     : GePol (No added spheres)
                        Default sphere list used, NSphG=   44.
                        Lebedev-Laikov grids with approx.  5.0 points / Ang**2.
                        Smoothing algorithm: Karplus/York (Gamma=1.0000).
                        Polarization charges: spherical gaussians, with
                                              point-specific exponents (IZeta= 3).
                        Self-potential: point-specific (ISelfS= 7).
                        Self-field    : sphere-specific E.n sum rule (ISelfD= 2).
 Solvent              : Chloroform, Eps=   4.711300 Eps(inf)=   2.090627
 ------------------------------------------------------------------------------
 One-electron integrals computed using PRISM.
   1 Symmetry operations used in ECPInt.
 ECPInt:  NShTT=   46360 NPrTT=  137514 LenC2=   42383 LenP2D=   91011.
 LDataN:  DoStor=T MaxTD1= 6 Len=  172
 NBasis=   720 RedAO= T EigKep=  3.62D-05  NBF=   720
 NBsUse=   720 1.00D-06 EigRej= -1.00D+00 NBFU=   720
 ExpMin= 7.01D-02 ExpMax= 4.48D+04 ExpMxC= 1.53D+03 IAcc=3 IRadAn=         5 AccDes= 0.00D+00
 Harris functional with IExCor= 1009 and IRadAn=       5 diagonalized for initial guess.
 HarFok:  IExCor= 1009 AccDes= 0.00D+00 IRadAn=         5 IDoV= 1 UseB2=F ITyADJ=14
 ICtDFT=  3500011 ScaDFX=  1.000000  1.000000  1.000000  1.000000
 FoFCou: FMM=F IPFlag=           0 FMFlag=      100000 FMFlg1=           0
         NFxFlg=           0 DoJE=T BraDBF=F KetDBF=T FulRan=T
         wScrn=  0.000000 ICntrl=     500 IOpCl=  0 I1Cent=   200000004 NGrid=           0
         NMat0=    1 NMatS0=      1 NMatT0=    0 NMatD0=    1 NMtDS0=    0 NMtDT0=    0
 Petite list used in FoFCou.
 Requested convergence on RMS density matrix=1.00D-08 within 128 cycles.
 Requested convergence on MAX density matrix=1.00D-06.
 Requested convergence on             energy=1.00D-06.
 No special actions if energy rises.
 Inv3:  Mode=1 IEnd=    24779628.
 Iteration    1 A*A^-1 deviation from unit magnitude is 7.33D-15 for   2872.
 Iteration    1 A*A^-1 deviation from orthogonality  is 6.03D-15 for   2872   2701.
 Iteration    1 A^-1*A deviation from unit magnitude is 7.33D-15 for   2872.
 Iteration    1 A^-1*A deviation from orthogonality  is 1.92D-11 for   2193   2173.
 Error on total polarization charges =  0.01456
 SCF Done:  E(RM062X) =  -1064.33933398     A.U. after   14 cycles
            NFock= 14  Conv=0.15D-08     -V/T= 2.0047

 **********************************************************************

            Population analysis using the SCF density.

 **********************************************************************

 Orbital symmetries:
       Occupied  (A) (A) (A) (A) (A) (A) (A) (A) (A) (A) (A) (A)
                 (A) (A) (A) (A) (A) (A) (A) (A) (A) (A) (A) (A)
                 (A) (A) (A) (A) (A) (A) (A) (A) (A) (A) (A) (A)
                 (A) (A) (A) (A) (A) (A) (A) (A) (A) (A) (A) (A)
                 (A) (A) (A) (A) (A) (A) (A) (A) (A) (A) (A) (A)
                 (A) (A) (A) (A) (A) (A) (A) (A) (A) (A) (A) (A)
                 (A) (A)
       Virtual   (A) (A) (A) (A) (A) (A) (A) (A) (A) (A) (A) (A)
                 (A) (A) (A) (A) (A) (A) (A) (A) (A) (A) (A) (A)
                 (A) (A) (A) (A) (A) (A) (A) (A) (A) (A) (A) (A)
                 (A) (A) (A) (A) (A) (A) (A) (A) (A) (A) (A) (A)
                 (A) (A) (A) (A) (A) (A) (A) (A) (A) (A) (A) (A)
                 (A) (A) (A) (A) (A) (A) (A) (A) (A) (A) (A) (A)
                 (A) (A) (A) (A) (A) (A) (A) (A) (A) (A) (A) (A)
                 (A) (A) (A) (A) (A) (A) (A) (A) (A) (A) (A) (A)
                 (A) (A) (A) (A) (A) (A) (A) (A) (A) (A) (A) (A)
                 (A) (A) (A) (A) (A) (A) (A) (A) (A) (A) (A) (A)
                 (A) (A) (A) (A) (A) (A) (A) (A) (A) (A) (A) (A)
                 (A) (A) (A) (A) (A) (A) (A) (A) (A) (A) (A) (A)
                 (A) (A) (A) (A) (A) (A) (A) (A) (A) (A) (A) (A)
                 (A) (A) (A) (A) (A) (A) (A) (A) (A) (A) (A) (A)
                 (A) (A) (A) (A) (A) (A) (A) (A) (A) (A) (A) (A)
                 (A) (A) (A) (A) (A) (A) (A) (A) (A) (A) (A) (A)
                 (A) (A) (A) (A) (A) (A) (A) (A) (A) (A) (A) (A)
                 (A) (A) (A) (A) (A) (A) (A) (A) (A) (A) (A) (A)
                 (A) (A) (A) (A) (A) (A) (A) (A) (A) (A) (A) (A)
                 (A) (A) (A) (A) (A) (A) (A) (A) (A) (A) (A) (A)
                 (A) (A) (A) (A) (A) (A) (A) (A) (A) (A) (A) (A)
                 (A) (A) (A) (A) (A) (A) (A) (A) (A) (A) (A) (A)
                 (A) (A) (A) (A) (A) (A) (A) (A) (A) (A) (A) (A)
                 (A) (A) (A) (A) (A) (A) (A) (A) (A) (A) (A) (A)
                 (A) (A) (A) (A) (A) (A) (A) (A) (A) (A) (A) (A)
                 (A) (A) (A) (A) (A) (A) (A) (A) (A) (A) (A) (A)
                 (A) (A) (A) (A) (A) (A) (A) (A) (A) (A) (A) (A)
                 (A) (A) (A) (A) (A) (A) (A) (A) (A) (A) (A) (A)
                 (A) (A) (A) (A) (A) (A) (A) (A) (A) (A) (A) (A)
                 (A) (A) (A) (A) (A) (A) (A) (A) (A) (A) (A) (A)
                 (A) (A) (A) (A) (A) (A) (A) (A) (A) (A) (A) (A)
                 (A) (A) (A) (A) (A) (A) (A) (A) (A) (A) (A) (A)
                 (A) (A) (A) (A) (A) (A) (A) (A) (A) (A) (A) (A)
                 (A) (A) (A) (A) (A) (A) (A) (A) (A) (A) (A) (A)
                 (A) (A) (A) (A) (A) (A) (A) (A) (A) (A) (A) (A)
                 (A) (A) (A) (A) (A) (A) (A) (A) (A) (A) (A) (A)
                 (A) (A) (A) (A) (A) (A) (A) (A) (A) (A) (A) (A)
                 (A) (A) (A) (A) (A) (A) (A) (A) (A) (A) (A) (A)
                 (A) (A) (A) (A) (A) (A) (A) (A) (A) (A) (A) (A)
                 (A) (A) (A) (A) (A) (A) (A) (A) (A) (A) (A) (A)
                 (A) (A) (A) (A) (A) (A) (A) (A) (A) (A) (A) (A)
                 (A) (A) (A) (A) (A) (A) (A) (A) (A) (A) (A) (A)
                 (A) (A) (A) (A) (A) (A) (A) (A) (A) (A) (A) (A)
                 (A) (A) (A) (A) (A) (A) (A) (A) (A) (A) (A) (A)
                 (A) (A) (A) (A) (A) (A) (A) (A) (A) (A) (A) (A)
                 (A) (A) (A) (A) (A) (A) (A) (A) (A) (A) (A) (A)
                 (A) (A) (A) (A) (A) (A) (A) (A) (A) (A) (A) (A)
                 (A) (A) (A) (A) (A) (A) (A) (A) (A) (A) (A) (A)
                 (A) (A) (A) (A) (A) (A) (A) (A) (A) (A) (A) (A)
                 (A) (A) (A) (A) (A) (A) (A) (A) (A) (A) (A) (A)
                 (A) (A) (A) (A) (A) (A) (A) (A) (A) (A) (A) (A)
                 (A) (A) (A) (A) (A) (A) (A) (A) (A) (A) (A) (A)
                 (A) (A) (A) (A) (A) (A) (A) (A) (A) (A) (A) (A)
                 (A) (A) (A) (A) (A) (A) (A) (A) (A) (A)
 The electronic state is 1-A.
 Alpha  occ. eigenvalues --  -67.01799 -19.67372 -19.62075 -19.61758 -10.68405
 Alpha  occ. eigenvalues --  -10.62179 -10.61130 -10.55941 -10.55585 -10.54630
 Alpha  occ. eigenvalues --  -10.54566 -10.54205 -10.53220 -10.53035 -10.52838
 Alpha  occ. eigenvalues --  -10.51401 -10.51054 -10.50908  -5.55248  -3.86436
 Alpha  occ. eigenvalues --   -3.86291  -3.86276  -1.23020  -1.14327  -1.13470
 Alpha  occ. eigenvalues --   -0.93633  -0.90648  -0.88110  -0.84911  -0.81048
 Alpha  occ. eigenvalues --   -0.79763  -0.78839  -0.77155  -0.76874  -0.73632
 Alpha  occ. eigenvalues --   -0.69330  -0.69119  -0.64729  -0.62449  -0.59322
 Alpha  occ. eigenvalues --   -0.59004  -0.56600  -0.55654  -0.54431  -0.53305
 Alpha  occ. eigenvalues --   -0.51668  -0.50778  -0.49909  -0.49858  -0.48868
 Alpha  occ. eigenvalues --   -0.48262  -0.47813  -0.47095  -0.46812  -0.46517
 Alpha  occ. eigenvalues --   -0.46103  -0.45766  -0.45181  -0.44648  -0.44284
 Alpha  occ. eigenvalues --   -0.43116  -0.43021  -0.42761  -0.41615  -0.41319
 Alpha  occ. eigenvalues --   -0.40757  -0.39472  -0.38322  -0.37108  -0.36685
 Alpha  occ. eigenvalues --   -0.36053  -0.34365  -0.33627  -0.31545
 Alpha virt. eigenvalues --    0.03239   0.03511   0.04837   0.06623   0.06845
 Alpha virt. eigenvalues --    0.07087   0.09465   0.09686   0.09861   0.10053
 Alpha virt. eigenvalues --    0.10871   0.11377   0.11691   0.12152   0.12594
 Alpha virt. eigenvalues --    0.13131   0.14209   0.14318   0.14584   0.14749
 Alpha virt. eigenvalues --    0.15032   0.15563   0.15865   0.16045   0.16333
 Alpha virt. eigenvalues --    0.16674   0.16826   0.17524   0.17902   0.18325
 Alpha virt. eigenvalues --    0.19077   0.19212   0.19799   0.20545   0.20947
 Alpha virt. eigenvalues --    0.21273   0.21701   0.22478   0.22578   0.22621
 Alpha virt. eigenvalues --    0.23486   0.23952   0.24578   0.25188   0.25824
 Alpha virt. eigenvalues --    0.25893   0.26972   0.27427   0.27556   0.28026
 Alpha virt. eigenvalues --    0.28679   0.29246   0.29481   0.30182   0.30759
 Alpha virt. eigenvalues --    0.31264   0.31516   0.32134   0.33066   0.33616
 Alpha virt. eigenvalues --    0.34255   0.35009   0.35936   0.36623   0.36833
 Alpha virt. eigenvalues --    0.37649   0.38163   0.38310   0.38569   0.39110
 Alpha virt. eigenvalues --    0.39759   0.39954   0.40398   0.40945   0.41186
 Alpha virt. eigenvalues --    0.41966   0.42877   0.43331   0.43662   0.44341
 Alpha virt. eigenvalues --    0.44801   0.45420   0.45626   0.45649   0.46154
 Alpha virt. eigenvalues --    0.46411   0.46599   0.47289   0.47811   0.48056
 Alpha virt. eigenvalues --    0.48631   0.48859   0.48927   0.49232   0.49368
 Alpha virt. eigenvalues --    0.50221   0.50262   0.50452   0.50979   0.51629
 Alpha virt. eigenvalues --    0.51917   0.52451   0.52732   0.53362   0.53445
 Alpha virt. eigenvalues --    0.54309   0.54737   0.55002   0.55291   0.55516
 Alpha virt. eigenvalues --    0.56023   0.57597   0.57693   0.58954   0.59469
 Alpha virt. eigenvalues --    0.59683   0.60659   0.60899   0.61364   0.63257
 Alpha virt. eigenvalues --    0.63720   0.64430   0.64692   0.65203   0.66219
 Alpha virt. eigenvalues --    0.66468   0.66782   0.68016   0.68916   0.69272
 Alpha virt. eigenvalues --    0.69755   0.70653   0.70857   0.72620   0.73768
 Alpha virt. eigenvalues --    0.74391   0.74951   0.75382   0.77296   0.77496
 Alpha virt. eigenvalues --    0.78219   0.79749   0.80195   0.80501   0.81986
 Alpha virt. eigenvalues --    0.82243   0.83237   0.83704   0.84235   0.85460
 Alpha virt. eigenvalues --    0.86808   0.87812   0.89266   0.89703   0.90120
 Alpha virt. eigenvalues --    0.90731   0.91596   0.91981   0.92672   0.93748
 Alpha virt. eigenvalues --    0.93944   0.94847   0.96611   0.97223   0.97976
 Alpha virt. eigenvalues --    0.98150   0.98959   0.99982   1.00796   1.01322
 Alpha virt. eigenvalues --    1.01891   1.03119   1.03608   1.03877   1.05194
 Alpha virt. eigenvalues --    1.05498   1.06203   1.06431   1.06998   1.07780
 Alpha virt. eigenvalues --    1.08455   1.08710   1.09182   1.10568   1.11194
 Alpha virt. eigenvalues --    1.11638   1.12913   1.13326   1.13761   1.15213
 Alpha virt. eigenvalues --    1.15895   1.17055   1.17801   1.18659   1.20081
 Alpha virt. eigenvalues --    1.21046   1.21449   1.23002   1.24428   1.24920
 Alpha virt. eigenvalues --    1.25782   1.26927   1.27080   1.27987   1.28817
 Alpha virt. eigenvalues --    1.29627   1.30036   1.32175   1.33020   1.34369
 Alpha virt. eigenvalues --    1.34580   1.35677   1.37204   1.38057   1.38750
 Alpha virt. eigenvalues --    1.40056   1.40415   1.41248   1.41578   1.42747
 Alpha virt. eigenvalues --    1.44046   1.44606   1.45154   1.46162   1.47217
 Alpha virt. eigenvalues --    1.48498   1.49914   1.50881   1.51419   1.52737
 Alpha virt. eigenvalues --    1.53847   1.54954   1.56146   1.56316   1.56765
 Alpha virt. eigenvalues --    1.56996   1.57406   1.57965   1.58884   1.59679
 Alpha virt. eigenvalues --    1.59719   1.60144   1.60833   1.61620   1.62033
 Alpha virt. eigenvalues --    1.62393   1.63097   1.63618   1.64677   1.65186
 Alpha virt. eigenvalues --    1.65569   1.65985   1.66329   1.67099   1.67237
 Alpha virt. eigenvalues --    1.67581   1.67835   1.68232   1.68330   1.68798
 Alpha virt. eigenvalues --    1.69262   1.71077   1.72058   1.72781   1.73279
 Alpha virt. eigenvalues --    1.73867   1.76084   1.76443   1.76787   1.77892
 Alpha virt. eigenvalues --    1.78951   1.80602   1.81299   1.81695   1.82387
 Alpha virt. eigenvalues --    1.83337   1.83895   1.85345   1.86728   1.87845
 Alpha virt. eigenvalues --    1.88914   1.89612   1.91042   1.91429   1.92957
 Alpha virt. eigenvalues --    1.93737   1.94623   1.95717   1.96399   1.97359
 Alpha virt. eigenvalues --    1.99041   2.00393   2.00731   2.01991   2.02637
 Alpha virt. eigenvalues --    2.03216   2.03790   2.04664   2.05317   2.06379
 Alpha virt. eigenvalues --    2.06800   2.07461   2.07835   2.09052   2.09170
 Alpha virt. eigenvalues --    2.10575   2.11265   2.11962   2.13157   2.14771
 Alpha virt. eigenvalues --    2.16479   2.16900   2.18031   2.19659   2.20694
 Alpha virt. eigenvalues --    2.21462   2.22153   2.22692   2.22921   2.24234
 Alpha virt. eigenvalues --    2.24447   2.25419   2.26562   2.27338   2.28329
 Alpha virt. eigenvalues --    2.29386   2.29721   2.31303   2.32012   2.33749
 Alpha virt. eigenvalues --    2.34588   2.35402   2.35906   2.36741   2.37148
 Alpha virt. eigenvalues --    2.37632   2.38160   2.39138   2.39580   2.39964
 Alpha virt. eigenvalues --    2.40711   2.41067   2.41816   2.42363   2.42575
 Alpha virt. eigenvalues --    2.43616   2.43766   2.44508   2.44814   2.45528
 Alpha virt. eigenvalues --    2.46463   2.47291   2.47567   2.49244   2.49716
 Alpha virt. eigenvalues --    2.51062   2.51452   2.52754   2.53963   2.54705
 Alpha virt. eigenvalues --    2.55230   2.56939   2.57802   2.58232   2.59326
 Alpha virt. eigenvalues --    2.59742   2.60505   2.60584   2.61162   2.61661
 Alpha virt. eigenvalues --    2.62180   2.62767   2.63166   2.63410   2.64299
 Alpha virt. eigenvalues --    2.64630   2.65375   2.66848   2.67068   2.67672
 Alpha virt. eigenvalues --    2.68569   2.68866   2.69851   2.70125   2.70702
 Alpha virt. eigenvalues --    2.71574   2.72525   2.73014   2.73407   2.73619
 Alpha virt. eigenvalues --    2.75221   2.75750   2.76868   2.78085   2.78966
 Alpha virt. eigenvalues --    2.79518   2.80341   2.81601   2.82223   2.84745
 Alpha virt. eigenvalues --    2.85190   2.86291   2.86685   2.87613   2.88766
 Alpha virt. eigenvalues --    2.88971   2.89659   2.91788   2.92402   2.93946
 Alpha virt. eigenvalues --    2.95603   2.96052   2.97341   2.98159   2.99170
 Alpha virt. eigenvalues --    3.00607   3.02135   3.03727   3.05140   3.05616
 Alpha virt. eigenvalues --    3.06089   3.06697   3.07965   3.09548   3.09799
 Alpha virt. eigenvalues --    3.10544   3.11340   3.12371   3.12658   3.13268
 Alpha virt. eigenvalues --    3.13784   3.14479   3.15169   3.15618   3.16516
 Alpha virt. eigenvalues --    3.17190   3.17778   3.18852   3.19540   3.20442
 Alpha virt. eigenvalues --    3.20971   3.22138   3.22351   3.23301   3.24071
 Alpha virt. eigenvalues --    3.24616   3.25052   3.25309   3.25733   3.26159
 Alpha virt. eigenvalues --    3.27914   3.28765   3.29044   3.29440   3.30041
 Alpha virt. eigenvalues --    3.30225   3.30869   3.31047   3.31785   3.32149
 Alpha virt. eigenvalues --    3.33107   3.33265   3.34771   3.35124   3.35261
 Alpha virt. eigenvalues --    3.36056   3.37024   3.37680   3.38320   3.39389
 Alpha virt. eigenvalues --    3.40137   3.41022   3.41356   3.42502   3.42762
 Alpha virt. eigenvalues --    3.43424   3.43990   3.44567   3.45724   3.45826
 Alpha virt. eigenvalues --    3.46176   3.47237   3.48250   3.48795   3.50428
 Alpha virt. eigenvalues --    3.51425   3.51777   3.52699   3.53203   3.55406
 Alpha virt. eigenvalues --    3.55502   3.56540   3.57691   3.58303   3.58597
 Alpha virt. eigenvalues --    3.59292   3.59965   3.61287   3.61837   3.62607
 Alpha virt. eigenvalues --    3.63182   3.63595   3.64505   3.64621   3.65553
 Alpha virt. eigenvalues --    3.66912   3.67494   3.68888   3.69406   3.69888
 Alpha virt. eigenvalues --    3.70958   3.75278   3.75991   3.76267   3.77469
 Alpha virt. eigenvalues --    3.79022   3.79677   3.80615   3.81870   3.83213
 Alpha virt. eigenvalues --    3.85885   3.87807   3.88359   3.90262   3.91589
 Alpha virt. eigenvalues --    3.92573   3.95437   3.97247   3.98267   3.99756
 Alpha virt. eigenvalues --    4.01559   4.03181   4.06835   4.08192   4.09362
 Alpha virt. eigenvalues --    4.12475   4.12821   4.14125   4.15543   4.19020
 Alpha virt. eigenvalues --    4.20422   4.22849   4.23986   4.24786   4.26657
 Alpha virt. eigenvalues --    4.26731   4.27539   4.28380   4.28977   4.29863
 Alpha virt. eigenvalues --    4.30212   4.31368   4.31929   4.34145   4.36088
 Alpha virt. eigenvalues --    4.37018   4.38083   4.38162   4.39122   4.40219
 Alpha virt. eigenvalues --    4.40585   4.43918   4.44931   4.46539   4.50008
 Alpha virt. eigenvalues --    4.50967   4.53217   4.54744   4.57496   4.59762
 Alpha virt. eigenvalues --    4.61564   4.63982   4.68080   4.69344   4.70064
 Alpha virt. eigenvalues --    4.70337   4.75313   4.79032   4.79813   4.83967
 Alpha virt. eigenvalues --    4.86563   4.89209   4.90967   4.95900   4.99873
 Alpha virt. eigenvalues --    5.05832   5.08948   5.15828   5.16855   5.21813
 Alpha virt. eigenvalues --    5.24611   5.25344   5.26832   5.28765   5.36188
 Alpha virt. eigenvalues --    5.48578   5.49530   5.51818   5.60708   5.81375
 Alpha virt. eigenvalues --    5.85855   5.86640   5.88837   5.91343   6.02110
 Alpha virt. eigenvalues --    6.14404   6.17620   6.22759   6.36845   6.38387
 Alpha virt. eigenvalues --    6.51131   6.61374   6.62432   6.64350   6.65863
 Alpha virt. eigenvalues --    6.70313   6.75846   6.81189   6.85474   6.89052
 Alpha virt. eigenvalues --    6.91702   6.98032   7.04120   7.05853   7.15362
 Alpha virt. eigenvalues --    7.19605   7.34532   7.42749  12.17682  22.32996
 Alpha virt. eigenvalues --   22.37662  22.42053  22.44119  22.45552  22.56010
 Alpha virt. eigenvalues --   22.62014  22.63738  22.68932  22.77995  22.84412
 Alpha virt. eigenvalues --   22.91829  22.94272  23.46302  44.05494  44.48408
 Alpha virt. eigenvalues --   44.53568
          Condensed to atoms (all electrons):
               1          2          3          4          5          6
     1  C    5.427772  -0.032276  -0.053443   0.001045  -0.046907   0.458229
     2  C   -0.032276   6.049346   0.027072  -0.005479  -0.007754  -0.043897
     3  C   -0.053443   0.027072   5.764763  -0.184124   0.072473  -0.041504
     4  C    0.001045  -0.005479  -0.184124   6.157187   0.108797   0.006440
     5  C   -0.046907  -0.007754   0.072473   0.108797   4.439257  -0.005039
     6  H    0.458229  -0.043897  -0.041504   0.006440  -0.005039   0.516005
     7  H   -0.020360   0.407127  -0.039203  -0.015463  -0.000279   0.005784
     8  H    0.003897  -0.029072  -0.033338   0.394458  -0.009701  -0.000242
     9  H   -0.000866   0.011681  -0.031322   0.385290  -0.010422   0.000197
    10  O    0.178345  -0.034092   0.032606  -0.155873   0.382537  -0.036276
    11  O    0.001039  -0.001219   0.012798  -0.152209   0.739890   0.000112
    12  C    0.190857  -0.026247   0.023569  -0.007114   0.005419  -0.047763
    13  C   -0.039190   0.028301  -0.002997   0.000010  -0.001571   0.008131
    14  C   -0.033780   0.146013  -0.010016  -0.001083   0.002355  -0.007394
    15  O    0.008425  -0.050471   0.161481  -0.025648  -0.001836  -0.000147
    16  Si   0.002605  -0.013107  -0.074027   0.022587  -0.001239  -0.000024
    17  C   -0.001839   0.005355   0.017374  -0.016125   0.000099  -0.000023
    18  C   -0.000064   0.001396   0.000189  -0.000935  -0.000032   0.000002
    19  C    0.000132  -0.000511  -0.005783   0.008445  -0.000076  -0.000001
    20  H    0.000001  -0.000029  -0.000052   0.000025   0.000000   0.000000
    21  H    0.000018  -0.000524   0.000897   0.000086  -0.000001   0.000000
    22  H    0.000003  -0.000041  -0.000239   0.000118   0.000002   0.000000
    23  H   -0.000006   0.000049   0.000258  -0.000482  -0.000016   0.000000
    24  H   -0.000005  -0.000095   0.003121  -0.002773  -0.000024   0.000000
    25  H    0.000010   0.000571  -0.004335   0.003666   0.000599   0.000000
    26  H    0.000001   0.000209  -0.000730   0.000445  -0.000008   0.000000
    27  H   -0.000337  -0.003457   0.003439  -0.004009  -0.000296  -0.000002
    28  H    0.000467   0.003214  -0.001805   0.000993   0.000034  -0.000002
    29  H    0.013438  -0.060726   0.000975   0.002258  -0.000304  -0.000278
    30  H   -0.018987  -0.039166   0.010641  -0.000735   0.000060   0.000901
    31  H   -0.002284  -0.028484  -0.015380  -0.000525   0.000066   0.002719
    32  H   -0.025753  -0.019752  -0.002043   0.000790  -0.000331  -0.000201
    33  H   -0.066297   0.015686  -0.000303   0.000547   0.000064  -0.007441
    34  H    0.011197  -0.001131   0.000053  -0.000031   0.000054  -0.000226
    35  H   -0.033097   0.029897   0.000285   0.000321   0.000320  -0.000627
    36  H    0.022492  -0.014357  -0.000925   0.001675  -0.002338   0.000453
    37  C    0.046946  -0.066067   0.199782  -0.061096  -0.000690   0.013329
    38  C   -0.014005   0.019526  -0.023129   0.005689   0.000480   0.004106
    39  C   -0.002604   0.004128  -0.004609  -0.000666   0.000097   0.001384
    40  H   -0.002680   0.014565  -0.065309   0.003871  -0.004192   0.000630
    41  H    0.003976  -0.025564   0.002838  -0.016769   0.005328  -0.013668
    42  H    0.000836  -0.008444   0.006898   0.000060   0.000009  -0.000106
    43  H    0.000009   0.000034  -0.000201   0.000012   0.000004  -0.000022
    44  H    0.000144  -0.000720  -0.000570   0.000028  -0.000008   0.000216
               7          8          9         10         11         12
     1  C   -0.020360   0.003897  -0.000866   0.178345   0.001039   0.190857
     2  C    0.407127  -0.029072   0.011681  -0.034092  -0.001219  -0.026247
     3  C   -0.039203  -0.033338  -0.031322   0.032606   0.012798   0.023569
     4  C   -0.015463   0.394458   0.385290  -0.155873  -0.152209  -0.007114
     5  C   -0.000279  -0.009701  -0.010422   0.382537   0.739890   0.005419
     6  H    0.005784  -0.000242   0.000197  -0.036276   0.000112  -0.047763
     7  H    0.524927   0.001226   0.000240   0.001969  -0.000058  -0.015120
     8  H    0.001226   0.463206  -0.010493   0.002130   0.004205   0.000090
     9  H    0.000240  -0.010493   0.444664   0.005289   0.008544  -0.000021
    10  O    0.001969   0.002130   0.005289   8.002266  -0.101467  -0.044669
    11  O   -0.000058   0.004205   0.008544  -0.101467   7.855717  -0.000206
    12  C   -0.015120   0.000090  -0.000021  -0.044669  -0.000206   5.230251
    13  C   -0.004682   0.000234   0.000016  -0.002022   0.000031   0.220187
    14  C   -0.036102   0.000698  -0.000067   0.003971   0.000038   0.021713
    15  O   -0.003597  -0.006749   0.000207  -0.000375  -0.000182  -0.000269
    16  Si   0.004768   0.007324  -0.002457  -0.000095  -0.000145  -0.000315
    17  C   -0.005935  -0.000371   0.000639  -0.000021   0.000005   0.000160
    18  C    0.000219   0.000225   0.000025   0.000000   0.000000   0.000003
    19  C   -0.000096  -0.005965  -0.004721  -0.000037  -0.000093   0.000001
    20  H   -0.000005  -0.000002   0.000000   0.000000   0.000000   0.000000
    21  H    0.000042   0.000000  -0.000004   0.000000   0.000000  -0.000001
    22  H   -0.000006  -0.000014  -0.000003   0.000000   0.000000   0.000000
    23  H   -0.000013   0.000069   0.000241   0.000000  -0.000001   0.000000
    24  H    0.000009   0.000201   0.000594   0.000001   0.000004   0.000000
    25  H   -0.000089   0.000945  -0.002808   0.000000   0.000028   0.000000
    26  H    0.000459   0.000048  -0.000015   0.000000   0.000000   0.000001
    27  H    0.000083   0.004528   0.000072   0.000024  -0.000009   0.000058
    28  H   -0.002167  -0.000459  -0.000025  -0.000003   0.000000  -0.000040
    29  H   -0.004194  -0.000022  -0.000053  -0.000180  -0.000001  -0.000119
    30  H   -0.009415   0.000019   0.000014  -0.000011   0.000000   0.008691
    31  H    0.007260  -0.000005   0.000000   0.000073   0.000001  -0.007721
    32  H    0.002691  -0.000020  -0.000004   0.003807   0.000008   0.421716
    33  H   -0.000967  -0.000004  -0.000011   0.002848   0.000011   0.442674
    34  H    0.000477  -0.000001   0.000000  -0.000080   0.000000  -0.041275
    35  H   -0.015333  -0.000027  -0.000006   0.001019   0.000002  -0.030819
    36  H    0.003523  -0.000087  -0.000002   0.003514  -0.000028  -0.057914
    37  C    0.009146   0.011452  -0.007853  -0.011053   0.003821  -0.002294
    38  C    0.000385  -0.000643   0.000042   0.001253  -0.000014   0.000643
    39  C   -0.000125  -0.000005   0.000031  -0.000066   0.000002   0.000173
    40  H   -0.000384  -0.000466   0.002503  -0.000076  -0.000287   0.000027
    41  H   -0.000683   0.000320  -0.000047   0.005238  -0.000893   0.001452
    42  H   -0.000161   0.000029   0.000004   0.000002   0.000001  -0.000003
    43  H   -0.000001   0.000000   0.000000   0.000000   0.000000   0.000003
    44  H   -0.000002   0.000001  -0.000002  -0.000006   0.000000  -0.000057
              13         14         15         16         17         18
     1  C   -0.039190  -0.033780   0.008425   0.002605  -0.001839  -0.000064
     2  C    0.028301   0.146013  -0.050471  -0.013107   0.005355   0.001396
     3  C   -0.002997  -0.010016   0.161481  -0.074027   0.017374   0.000189
     4  C    0.000010  -0.001083  -0.025648   0.022587  -0.016125  -0.000935
     5  C   -0.001571   0.002355  -0.001836  -0.001239   0.000099  -0.000032
     6  H    0.008131  -0.007394  -0.000147  -0.000024  -0.000023   0.000002
     7  H   -0.004682  -0.036102  -0.003597   0.004768  -0.005935   0.000219
     8  H    0.000234   0.000698  -0.006749   0.007324  -0.000371   0.000225
     9  H    0.000016  -0.000067   0.000207  -0.002457   0.000639   0.000025
    10  O   -0.002022   0.003971  -0.000375  -0.000095  -0.000021   0.000000
    11  O    0.000031   0.000038  -0.000182  -0.000145   0.000005   0.000000
    12  C    0.220187   0.021713  -0.000269  -0.000315   0.000160   0.000003
    13  C    5.110107  -0.009011  -0.000006   0.000089   0.000146  -0.000002
    14  C   -0.009011   5.178568  -0.008120  -0.000017  -0.000656  -0.000754
    15  O   -0.000006  -0.008120   8.066427   0.385535  -0.031192  -0.019161
    16  Si   0.000089  -0.000017   0.385535  12.444874   0.320832   0.392195
    17  C    0.000146  -0.000656  -0.031192   0.320832   5.213078  -0.047772
    18  C   -0.000002  -0.000754  -0.019161   0.392195  -0.047772   5.104877
    19  C   -0.000003  -0.000202  -0.017337   0.354859  -0.055173  -0.038769
    20  H    0.000000  -0.000004   0.001252  -0.042970   0.002534   0.394559
    21  H    0.000000  -0.000263   0.000401  -0.033276   0.000963   0.390309
    22  H    0.000000   0.000061   0.000708  -0.032664   0.003477   0.389382
    23  H    0.000000   0.000006   0.001185  -0.034448   0.003434   0.001272
    24  H    0.000000   0.000011  -0.000303  -0.039872   0.003584   0.001091
    25  H    0.000000   0.000012   0.001179  -0.031068   0.001060   0.002486
    26  H    0.000000  -0.000025   0.001226  -0.020421   0.381199   0.000263
    27  H   -0.000071   0.000633   0.000497  -0.036996   0.394409   0.002985
    28  H    0.000022  -0.002545   0.000137  -0.037537   0.390911   0.001282
    29  H   -0.000200   0.427717   0.005820   0.000994  -0.000892  -0.000856
    30  H   -0.002387   0.422948   0.000224  -0.000724   0.000425   0.000029
    31  H    0.000978   0.418926  -0.000028  -0.000074  -0.000002   0.000029
    32  H   -0.042149   0.001319  -0.000003   0.000003  -0.000004   0.000000
    33  H   -0.038582  -0.000756   0.000009   0.000005  -0.000001   0.000000
    34  H    0.416757   0.000200   0.000000   0.000000  -0.000001   0.000000
    35  H    0.410891  -0.001309   0.000016  -0.000068   0.000118   0.000000
    36  H    0.415035   0.000524   0.000006   0.000000  -0.000017   0.000000
    37  C    0.000436  -0.001606  -0.090411   0.009427  -0.000587  -0.000170
    38  C   -0.000045  -0.021533  -0.002962  -0.001736   0.000060   0.000241
    39  C   -0.000011  -0.005564   0.003421  -0.000052   0.000019  -0.000020
    40  H   -0.000001  -0.001047   0.001402  -0.000906   0.000137   0.000041
    41  H   -0.000112   0.002996   0.005188   0.000172   0.000044   0.000000
    42  H    0.000000   0.001420   0.009305  -0.000898   0.000115  -0.000758
    43  H    0.000000  -0.000018  -0.000004   0.000005   0.000000   0.000002
    44  H    0.000001   0.000405  -0.000010  -0.000004   0.000000  -0.000001
              19         20         21         22         23         24
     1  C    0.000132   0.000001   0.000018   0.000003  -0.000006  -0.000005
     2  C   -0.000511  -0.000029  -0.000524  -0.000041   0.000049  -0.000095
     3  C   -0.005783  -0.000052   0.000897  -0.000239   0.000258   0.003121
     4  C    0.008445   0.000025   0.000086   0.000118  -0.000482  -0.002773
     5  C   -0.000076   0.000000  -0.000001   0.000002  -0.000016  -0.000024
     6  H   -0.000001   0.000000   0.000000   0.000000   0.000000   0.000000
     7  H   -0.000096  -0.000005   0.000042  -0.000006  -0.000013   0.000009
     8  H   -0.005965  -0.000002   0.000000  -0.000014   0.000069   0.000201
     9  H   -0.004721   0.000000  -0.000004  -0.000003   0.000241   0.000594
    10  O   -0.000037   0.000000   0.000000   0.000000   0.000000   0.000001
    11  O   -0.000093   0.000000   0.000000   0.000000  -0.000001   0.000004
    12  C    0.000001   0.000000  -0.000001   0.000000   0.000000   0.000000
    13  C   -0.000003   0.000000   0.000000   0.000000   0.000000   0.000000
    14  C   -0.000202  -0.000004  -0.000263   0.000061   0.000006   0.000011
    15  O   -0.017337   0.001252   0.000401   0.000708   0.001185  -0.000303
    16  Si   0.354859  -0.042970  -0.033276  -0.032664  -0.034448  -0.039872
    17  C   -0.055173   0.002534   0.000963   0.003477   0.003434   0.003584
    18  C   -0.038769   0.394559   0.390309   0.389382   0.001272   0.001091
    19  C    5.138414   0.002066   0.002938   0.000108   0.386814   0.394260
    20  H    0.002066   0.523104  -0.018851  -0.017812  -0.000094   0.000251
    21  H    0.002938  -0.018851   0.516708  -0.017998  -0.000133  -0.000172
    22  H    0.000108  -0.017812  -0.017998   0.514034   0.000293   0.000939
    23  H    0.386814  -0.000094  -0.000133   0.000293   0.513010  -0.015779
    24  H    0.394260   0.000251  -0.000172   0.000939  -0.015779   0.508073
    25  H    0.390170  -0.000131  -0.000094  -0.000130  -0.018387  -0.018299
    26  H    0.001656   0.000265   0.000224  -0.000131   0.000148  -0.000143
    27  H    0.002064  -0.000150  -0.000130  -0.000088   0.000189  -0.000215
    28  H    0.003288   0.000242   0.000676  -0.000192  -0.000193  -0.000095
    29  H    0.000211   0.000032   0.001171  -0.000030  -0.000008  -0.000007
    30  H    0.000000   0.000000   0.000000   0.000000   0.000000   0.000000
    31  H    0.000004   0.000000   0.000009  -0.000001   0.000000   0.000000
    32  H    0.000000   0.000000   0.000000   0.000000   0.000000   0.000000
    33  H    0.000000   0.000000   0.000000   0.000000   0.000000   0.000000
    34  H    0.000000   0.000000   0.000000   0.000000   0.000000   0.000000
    35  H    0.000002   0.000000   0.000000   0.000000   0.000000   0.000000
    36  H    0.000000   0.000000   0.000000   0.000000   0.000000   0.000000
    37  C   -0.001017  -0.000002   0.000088   0.000198  -0.000017  -0.000004
    38  C    0.000244  -0.000008  -0.000017  -0.000054  -0.000004   0.000014
    39  C    0.000003   0.000001  -0.000004   0.000017   0.000000   0.000003
    40  H   -0.000161  -0.000002  -0.000007   0.000006   0.000014   0.000244
    41  H    0.000003   0.000000   0.000000   0.000002   0.000000  -0.000001
    42  H    0.000069   0.000045   0.000067   0.000193  -0.000003  -0.000002
    43  H    0.000000   0.000000   0.000000   0.000000   0.000000   0.000000
    44  H    0.000000   0.000000   0.000000   0.000000   0.000000   0.000000
              25         26         27         28         29         30
     1  C    0.000010   0.000001  -0.000337   0.000467   0.013438  -0.018987
     2  C    0.000571   0.000209  -0.003457   0.003214  -0.060726  -0.039166
     3  C   -0.004335  -0.000730   0.003439  -0.001805   0.000975   0.010641
     4  C    0.003666   0.000445  -0.004009   0.000993   0.002258  -0.000735
     5  C    0.000599  -0.000008  -0.000296   0.000034  -0.000304   0.000060
     6  H    0.000000   0.000000  -0.000002  -0.000002  -0.000278   0.000901
     7  H   -0.000089   0.000459   0.000083  -0.002167  -0.004194  -0.009415
     8  H    0.000945   0.000048   0.004528  -0.000459  -0.000022   0.000019
     9  H   -0.002808  -0.000015   0.000072  -0.000025  -0.000053   0.000014
    10  O    0.000000   0.000000   0.000024  -0.000003  -0.000180  -0.000011
    11  O    0.000028   0.000000  -0.000009   0.000000  -0.000001   0.000000
    12  C    0.000000   0.000001   0.000058  -0.000040  -0.000119   0.008691
    13  C    0.000000   0.000000  -0.000071   0.000022  -0.000200  -0.002387
    14  C    0.000012  -0.000025   0.000633  -0.002545   0.427717   0.422948
    15  O    0.001179   0.001226   0.000497   0.000137   0.005820   0.000224
    16  Si  -0.031068  -0.020421  -0.036996  -0.037537   0.000994  -0.000724
    17  C    0.001060   0.381199   0.394409   0.390911  -0.000892   0.000425
    18  C    0.002486   0.000263   0.002985   0.001282  -0.000856   0.000029
    19  C    0.390170   0.001656   0.002064   0.003288   0.000211   0.000000
    20  H   -0.000131   0.000265  -0.000150   0.000242   0.000032   0.000000
    21  H   -0.000094   0.000224  -0.000130   0.000676   0.001171   0.000000
    22  H   -0.000130  -0.000131  -0.000088  -0.000192  -0.000030   0.000000
    23  H   -0.018387   0.000148   0.000189  -0.000193  -0.000008   0.000000
    24  H   -0.018299  -0.000143  -0.000215  -0.000095  -0.000007   0.000000
    25  H    0.510824   0.000188   0.000579  -0.000161  -0.000003   0.000000
    26  H    0.000188   0.490658  -0.014882  -0.015226   0.000007  -0.000008
    27  H    0.000579  -0.014882   0.506786  -0.020877   0.000020   0.000011
    28  H   -0.000161  -0.015226  -0.020877   0.512373   0.000678  -0.000002
    29  H   -0.000003   0.000007   0.000020   0.000678   0.490897  -0.019672
    30  H    0.000000  -0.000008   0.000011  -0.000002  -0.019672   0.505810
    31  H    0.000000   0.000001  -0.000008   0.000034  -0.023143  -0.024426
    32  H    0.000000   0.000000  -0.000001  -0.000003   0.000521  -0.008122
    33  H    0.000000   0.000000   0.000000   0.000001   0.000024   0.000324
    34  H    0.000000   0.000000   0.000002  -0.000001   0.000001  -0.000029
    35  H    0.000000   0.000010   0.000020   0.000149  -0.000021   0.001730
    36  H    0.000000  -0.000001   0.000027  -0.000005   0.000023  -0.000068
    37  C    0.000335   0.000016   0.000002  -0.000150  -0.002432  -0.000006
    38  C   -0.000036  -0.000003  -0.000017   0.000036  -0.001136   0.000746
    39  C    0.000000   0.000000   0.000000   0.000000   0.000226   0.000367
    40  H   -0.000064  -0.000002  -0.000004   0.000000  -0.000072   0.000033
    41  H    0.000000   0.000000   0.000000  -0.000001  -0.000111   0.000005
    42  H   -0.000004  -0.000002  -0.000004   0.000000  -0.000714   0.000143
    43  H    0.000000   0.000000   0.000000   0.000000   0.000020  -0.000008
    44  H    0.000000   0.000000   0.000000   0.000000  -0.000016   0.000005
              31         32         33         34         35         36
     1  C   -0.002284  -0.025753  -0.066297   0.011197  -0.033097   0.022492
     2  C   -0.028484  -0.019752   0.015686  -0.001131   0.029897  -0.014357
     3  C   -0.015380  -0.002043  -0.000303   0.000053   0.000285  -0.000925
     4  C   -0.000525   0.000790   0.000547  -0.000031   0.000321   0.001675
     5  C    0.000066  -0.000331   0.000064   0.000054   0.000320  -0.002338
     6  H    0.002719  -0.000201  -0.007441  -0.000226  -0.000627   0.000453
     7  H    0.007260   0.002691  -0.000967   0.000477  -0.015333   0.003523
     8  H   -0.000005  -0.000020  -0.000004  -0.000001  -0.000027  -0.000087
     9  H    0.000000  -0.000004  -0.000011   0.000000  -0.000006  -0.000002
    10  O    0.000073   0.003807   0.002848  -0.000080   0.001019   0.003514
    11  O    0.000001   0.000008   0.000011   0.000000   0.000002  -0.000028
    12  C   -0.007721   0.421716   0.442674  -0.041275  -0.030819  -0.057914
    13  C    0.000978  -0.042149  -0.038582   0.416757   0.410891   0.415035
    14  C    0.418926   0.001319  -0.000756   0.000200  -0.001309   0.000524
    15  O   -0.000028  -0.000003   0.000009   0.000000   0.000016   0.000006
    16  Si  -0.000074   0.000003   0.000005   0.000000  -0.000068   0.000000
    17  C   -0.000002  -0.000004  -0.000001  -0.000001   0.000118  -0.000017
    18  C    0.000029   0.000000   0.000000   0.000000   0.000000   0.000000
    19  C    0.000004   0.000000   0.000000   0.000000   0.000002   0.000000
    20  H    0.000000   0.000000   0.000000   0.000000   0.000000   0.000000
    21  H    0.000009   0.000000   0.000000   0.000000   0.000000   0.000000
    22  H   -0.000001   0.000000   0.000000   0.000000   0.000000   0.000000
    23  H    0.000000   0.000000   0.000000   0.000000   0.000000   0.000000
    24  H    0.000000   0.000000   0.000000   0.000000   0.000000   0.000000
    25  H    0.000000   0.000000   0.000000   0.000000   0.000000   0.000000
    26  H    0.000001   0.000000   0.000000   0.000000   0.000010  -0.000001
    27  H   -0.000008  -0.000001   0.000000   0.000002   0.000020   0.000027
    28  H    0.000034  -0.000003   0.000001  -0.000001   0.000149  -0.000005
    29  H   -0.023143   0.000521   0.000024   0.000001  -0.000021   0.000023
    30  H   -0.024426  -0.008122   0.000324  -0.000029   0.001730  -0.000068
    31  H    0.498377   0.000094  -0.000133  -0.000009  -0.000107  -0.000016
    32  H    0.000094   0.515852  -0.016742  -0.003816  -0.002577   0.005906
    33  H   -0.000133  -0.016742   0.510157  -0.005232   0.005501  -0.001548
    34  H   -0.000009  -0.003816  -0.005232   0.508681  -0.021539  -0.022072
    35  H   -0.000107  -0.002577   0.005501  -0.021539   0.537528  -0.028875
    36  H   -0.000016   0.005906  -0.001548  -0.022072  -0.028875   0.516165
    37  C    0.002857   0.000081  -0.000144   0.000000  -0.000065   0.000049
    38  C   -0.001144  -0.000040   0.000000   0.000000  -0.000001  -0.000002
    39  C   -0.003135   0.000034   0.000003   0.000000   0.000000   0.000001
    40  H   -0.000058   0.000000  -0.000001   0.000000   0.000001   0.000000
    41  H   -0.000338  -0.000025   0.000005   0.000002  -0.000002  -0.000009
    42  H   -0.001426  -0.000002   0.000000   0.000000   0.000000   0.000000
    43  H   -0.000151   0.000000   0.000000   0.000000   0.000000   0.000000
    44  H   -0.000010   0.000001   0.000000   0.000000   0.000000   0.000000
              37         38         39         40         41         42
     1  C    0.046946  -0.014005  -0.002604  -0.002680   0.003976   0.000836
     2  C   -0.066067   0.019526   0.004128   0.014565  -0.025564  -0.008444
     3  C    0.199782  -0.023129  -0.004609  -0.065309   0.002838   0.006898
     4  C   -0.061096   0.005689  -0.000666   0.003871  -0.016769   0.000060
     5  C   -0.000690   0.000480   0.000097  -0.004192   0.005328   0.000009
     6  H    0.013329   0.004106   0.001384   0.000630  -0.013668  -0.000106
     7  H    0.009146   0.000385  -0.000125  -0.000384  -0.000683  -0.000161
     8  H    0.011452  -0.000643  -0.000005  -0.000466   0.000320   0.000029
     9  H   -0.007853   0.000042   0.000031   0.002503  -0.000047   0.000004
    10  O   -0.011053   0.001253  -0.000066  -0.000076   0.005238   0.000002
    11  O    0.003821  -0.000014   0.000002  -0.000287  -0.000893   0.000001
    12  C   -0.002294   0.000643   0.000173   0.000027   0.001452  -0.000003
    13  C    0.000436  -0.000045  -0.000011  -0.000001  -0.000112   0.000000
    14  C   -0.001606  -0.021533  -0.005564  -0.001047   0.002996   0.001420
    15  O   -0.090411  -0.002962   0.003421   0.001402   0.005188   0.009305
    16  Si   0.009427  -0.001736  -0.000052  -0.000906   0.000172  -0.000898
    17  C   -0.000587   0.000060   0.000019   0.000137   0.000044   0.000115
    18  C   -0.000170   0.000241  -0.000020   0.000041   0.000000  -0.000758
    19  C   -0.001017   0.000244   0.000003  -0.000161   0.000003   0.000069
    20  H   -0.000002  -0.000008   0.000001  -0.000002   0.000000   0.000045
    21  H    0.000088  -0.000017  -0.000004  -0.000007   0.000000   0.000067
    22  H    0.000198  -0.000054   0.000017   0.000006   0.000002   0.000193
    23  H   -0.000017  -0.000004   0.000000   0.000014   0.000000  -0.000003
    24  H   -0.000004   0.000014   0.000003   0.000244  -0.000001  -0.000002
    25  H    0.000335  -0.000036   0.000000  -0.000064   0.000000  -0.000004
    26  H    0.000016  -0.000003   0.000000  -0.000002   0.000000  -0.000002
    27  H    0.000002  -0.000017   0.000000  -0.000004   0.000000  -0.000004
    28  H   -0.000150   0.000036   0.000000   0.000000  -0.000001   0.000000
    29  H   -0.002432  -0.001136   0.000226  -0.000072  -0.000111  -0.000714
    30  H   -0.000006   0.000746   0.000367   0.000033   0.000005   0.000143
    31  H    0.002857  -0.001144  -0.003135  -0.000058  -0.000338  -0.001426
    32  H    0.000081  -0.000040   0.000034   0.000000  -0.000025  -0.000002
    33  H   -0.000144   0.000000   0.000003  -0.000001   0.000005   0.000000
    34  H    0.000000   0.000000   0.000000   0.000000   0.000002   0.000000
    35  H   -0.000065  -0.000001   0.000000   0.000001  -0.000002   0.000000
    36  H    0.000049  -0.000002   0.000001   0.000000  -0.000009   0.000000
    37  C    5.325368   0.203631  -0.042354   0.427495   0.414657  -0.042855
    38  C    0.203631   5.258119   0.512922  -0.034070  -0.059992   0.406073
    39  C   -0.042354   0.512922   5.030499  -0.006434   0.007937  -0.024275
    40  H    0.427495  -0.034070  -0.006434   0.503213  -0.013754   0.001181
    41  H    0.414657  -0.059992   0.007937  -0.013754   0.489534   0.003352
    42  H   -0.042855   0.406073  -0.024275   0.001181   0.003352   0.483562
    43  H    0.006511  -0.054936   0.428615  -0.000334   0.000154  -0.005837
    44  H    0.005124  -0.066891   0.432720   0.000724  -0.000007   0.003976
              43         44
     1  C    0.000009   0.000144
     2  C    0.000034  -0.000720
     3  C   -0.000201  -0.000570
     4  C    0.000012   0.000028
     5  C    0.000004  -0.000008
     6  H   -0.000022   0.000216
     7  H   -0.000001  -0.000002
     8  H    0.000000   0.000001
     9  H    0.000000  -0.000002
    10  O    0.000000  -0.000006
    11  O    0.000000   0.000000
    12  C    0.000003  -0.000057
    13  C    0.000000   0.000001
    14  C   -0.000018   0.000405
    15  O   -0.000004  -0.000010
    16  Si   0.000005  -0.000004
    17  C    0.000000   0.000000
    18  C    0.000002  -0.000001
    19  C    0.000000   0.000000
    20  H    0.000000   0.000000
    21  H    0.000000   0.000000
    22  H    0.000000   0.000000
    23  H    0.000000   0.000000
    24  H    0.000000   0.000000
    25  H    0.000000   0.000000
    26  H    0.000000   0.000000
    27  H    0.000000   0.000000
    28  H    0.000000   0.000000
    29  H    0.000020  -0.000016
    30  H   -0.000008   0.000005
    31  H   -0.000151  -0.000010
    32  H    0.000000   0.000001
    33  H    0.000000   0.000000
    34  H    0.000000   0.000000
    35  H    0.000000   0.000000
    36  H    0.000000   0.000000
    37  C    0.006511   0.005124
    38  C   -0.054936  -0.066891
    39  C    0.428615   0.432720
    40  H   -0.000334   0.000724
    41  H    0.000154  -0.000007
    42  H   -0.005837   0.003976
    43  H    0.501296  -0.023044
    44  H   -0.023044   0.505515
 Mulliken charges:
               1
     1  C    0.022895
     2  C   -0.251488
     3  C    0.253877
     4  C   -0.453703
     5  C    0.335120
     6  H    0.186243
     7  H    0.204107
     8  H    0.202381
     9  H    0.210910
    10  O   -0.240489
    11  O   -0.369444
    12  C   -0.285722
    13  C   -0.468330
    14  C   -0.488658
    15  O   -0.395240
    16  Si   0.458866
    17  C   -0.579565
    18  C   -0.573810
    19  C   -0.555810
    20  H    0.155734
    21  H    0.156882
    22  H    0.159863
    23  H    0.162599
    24  H    0.165390
    25  H    0.162956
    26  H    0.174573
    27  H    0.165128
    28  H    0.166950
    29  H    0.170152
    30  H    0.170642
    31  H    0.177181
    32  H    0.168766
    33  H    0.160303
    34  H    0.158022
    35  H    0.146663
    36  H    0.158872
    37  C   -0.349877
    38  C   -0.131791
    39  C   -0.332677
    40  H    0.174223
    41  H    0.188772
    42  H    0.168156
    43  H    0.147892
    44  H    0.142488
 Sum of Mulliken charges =   0.00000
 Mulliken charges with hydrogens summed into heavy atoms:
               1
     1  C    0.209138
     2  C   -0.047382
     3  C    0.253877
     4  C   -0.040412
     5  C    0.335120
    10  O   -0.240489
    11  O   -0.369444
    12  C    0.043347
    13  C   -0.004774
    14  C    0.029316
    15  O   -0.395240
    16  Si   0.458866
    17  C   -0.072914
    18  C   -0.101330
    19  C   -0.064865
    37  C    0.013119
    38  C    0.036365
    39  C   -0.042297
 Electronic spatial extent (au):  <R**2>=           5341.8312
 Charge=              0.0000 electrons
 Dipole moment (field-independent basis, Debye):
    X=              2.5023    Y=              1.1499    Z=             -4.5387  Tot=              5.3088
 Quadrupole moment (field-independent basis, Debye-Ang):
   XX=           -120.6680   YY=           -121.9793   ZZ=           -130.5256
   XY=             -9.4846   XZ=             12.4204   YZ=              7.3955
 Traceless Quadrupole moment (field-independent basis, Debye-Ang):
   XX=              3.7230   YY=              2.4117   ZZ=             -6.1346
   XY=             -9.4846   XZ=             12.4204   YZ=              7.3955
 Octapole moment (field-independent basis, Debye-Ang**2):
  XXX=             12.2968  YYY=              0.7367  ZZZ=            -35.2738  XYY=              0.9110
  XXY=              5.2742  XXZ=            -31.2455  XZZ=             22.3100  YZZ=             20.1898
  YYZ=            -13.2812  XYZ=            -19.1958
 Hexadecapole moment (field-independent basis, Debye-Ang**3):
 XXXX=          -3729.1055 YYYY=          -2052.0823 ZZZZ=          -1585.2496 XXXY=            -58.4117
 XXXZ=             67.6379 YYYX=            -17.6197 YYYZ=            -47.8207 ZZZX=             81.1635
 ZZZY=             62.9440 XXYY=           -966.3280 XXZZ=           -937.1659 YYZZ=           -644.1292
 XXYZ=             66.9428 YYXZ=             11.5878 ZZXY=            -32.6333
 N-N= 1.632166769865D+03 E-N=-5.757275609414D+03  KE= 1.059308250269D+03
 1\1\GINC-CPU-E-118\SP\RM062X\def2TZVP\C14H26O3Si1\KE291\26-Jun-2019\0\
 \# m062x/def2tzvp int=ultrafine scrf=(solvent=chloroform)\\IP1_2ginp01
 6\\0,1\C,0,-2.306276,0.026995,-0.403372\C,0,-0.826266,0.062418,-0.8086
 65\C,0,0.057813,0.438912,0.415204\C,0,-0.163274,-0.677266,1.451095\C,0
 ,-1.617779,-0.965902,1.776996\H,0,-2.638301,1.053533,-0.205944\H,0,-0.
 52222,-0.957973,-1.073881\H,0,0.247707,-1.618809,1.067469\H,0,0.347168
 ,-0.465175,2.393206\O,0,-2.5537,-0.70452,0.841935\O,0,-1.962399,-1.474
 964,2.823031\C,0,-3.264902,-0.588935,-1.429465\C,0,-2.951736,-2.032103
 ,-1.835466\C,0,-0.622905,0.938957,-2.052889\O,0,1.423817,0.521271,0.02
 315\Si,0,2.698461,-0.55673,-0.199588\C,0,2.214662,-2.03187,-1.275838\C
 ,0,4.001424,0.480162,-1.073213\C,0,3.370828,-1.162577,1.456172\H,0,4.9
 12182,-0.103545,-1.247469\H,0,3.641864,0.838135,-2.043498\H,0,4.27441,
 1.354519,-0.473279\H,0,4.287831,-1.742532,1.299064\H,0,3.619729,-0.319
 968,2.110119\H,0,2.663532,-1.804604,1.9902\H,0,3.102107,-2.64279,-1.47
 9446\H,0,1.475412,-2.685259,-0.800261\H,0,1.808468,-1.707779,-2.239688
 \H,0,0.443627,1.078495,-2.240597\H,0,-1.05999,0.463135,-2.935368\H,0,-
 1.075182,1.926538,-1.936302\H,0,-3.28399,0.060616,-2.311166\H,0,-4.268
 745,-0.541933,-0.992931\H,0,-3.741746,-2.423289,-2.483245\H,0,-2.00880
 5,-2.111599,-2.385727\H,0,-2.888556,-2.681231,-0.956986\C,0,-0.275133,
 1.797809,1.091794\C,0,-0.04005,3.039299,0.276099\C,0,-0.887933,4.06635
 6,0.19514\H,0,0.377132,1.842523,1.975215\H,0,-1.303554,1.789871,1.4703
 6\H,0,0.917659,3.089854,-0.237917\H,0,-0.647681,4.958996,-0.37509\H,0,
 -1.851097,4.056665,0.700928\\Version=ES64L-G09RevD.01\State=1-A\HF=-10
 64.339334\RMSD=1.482e-09\Dipole=0.9844958,0.45239,-1.7856445\Quadrupol
 e=2.7679307,1.7930159,-4.5609466,-7.0516024,9.2342649,5.4983668\PG=C01
  [X(C14H26O3Si1)]\\@


 IT IS A SIMPLE TASK TO MAKE THINGS COMPLEX,
 BUT A COMPLEX TASK TO MAKE THEM SIMPLE.
 Job cpu time:       0 days  2 hours 26 minutes 11.9 seconds.
 File lengths (MBytes):  RWF=    408 Int=      0 D2E=      0 Chk=     21 Scr=      1
 Normal termination of Gaussian 09 at Wed Jun 26 13:55:43 2019.
