 Entering Gaussian System, Link 0=/usr/local/Cluster-Apps/gaussian/g09/g09
 Initial command:
 /usr/local/Cluster-Apps/gaussian/g09/l1.exe "/home/ke291/rds/hpc-work/26Jun1304IP1NMR/Gau-42369.inp" -scrdir="/home/ke291/rds/hpc-work/26Jun1304IP1NMR/"
 Entering Link 1 = /usr/local/Cluster-Apps/gaussian/g09/l1.exe PID=     42374.
  
 Copyright (c) 1988,1990,1992,1993,1995,1998,2003,2009,2013,
            Gaussian, Inc.  All Rights Reserved.
  
 This is part of the Gaussian(R) 09 program.  It is based on
 the Gaussian(R) 03 system (copyright 2003, Gaussian, Inc.),
 the Gaussian(R) 98 system (copyright 1998, Gaussian, Inc.),
 the Gaussian(R) 94 system (copyright 1995, Gaussian, Inc.),
 the Gaussian 92(TM) system (copyright 1992, Gaussian, Inc.),
 the Gaussian 90(TM) system (copyright 1990, Gaussian, Inc.),
 the Gaussian 88(TM) system (copyright 1988, Gaussian, Inc.),
 the Gaussian 86(TM) system (copyright 1986, Carnegie Mellon
 University), and the Gaussian 82(TM) system (copyright 1983,
 Carnegie Mellon University). Gaussian is a federally registered
 trademark of Gaussian, Inc.
  
 This software contains proprietary and confidential information,
 including trade secrets, belonging to Gaussian, Inc.
  
 This software is provided under written license and may be
 used, copied, transmitted, or stored only in accord with that
 written license.
  
 The following legend is applicable only to US Government
 contracts under FAR:
  
                    RESTRICTED RIGHTS LEGEND
  
 Use, reproduction and disclosure by the US Government is
 subject to restrictions as set forth in subparagraphs (a)
 and (c) of the Commercial Computer Software - Restricted
 Rights clause in FAR 52.227-19.
  
 Gaussian, Inc.
 340 Quinnipiac St., Bldg. 40, Wallingford CT 06492
  
  
 ---------------------------------------------------------------
 Warning -- This program may not be used in any manner that
 competes with the business of Gaussian, Inc. or will provide
 assistance to any competitor of Gaussian, Inc.  The licensee
 of this program is prohibited from giving any competitor of
 Gaussian, Inc. access to this program.  By using this program,
 the user acknowledges that Gaussian, Inc. is engaged in the
 business of creating and licensing software in the field of
 computational chemistry and represents and warrants to the
 licensee that it is not a competitor of Gaussian, Inc. and that
 it will not use this program in any manner prohibited above.
 ---------------------------------------------------------------
  

 Cite this work as:
 Gaussian 09, Revision D.01,
 M. J. Frisch, G. W. Trucks, H. B. Schlegel, G. E. Scuseria, 
 M. A. Robb, J. R. Cheeseman, G. Scalmani, V. Barone, B. Mennucci, 
 G. A. Petersson, H. Nakatsuji, M. Caricato, X. Li, H. P. Hratchian, 
 A. F. Izmaylov, J. Bloino, G. Zheng, J. L. Sonnenberg, M. Hada, 
 M. Ehara, K. Toyota, R. Fukuda, J. Hasegawa, M. Ishida, T. Nakajima, 
 Y. Honda, O. Kitao, H. Nakai, T. Vreven, J. A. Montgomery, Jr., 
 J. E. Peralta, F. Ogliaro, M. Bearpark, J. J. Heyd, E. Brothers, 
 K. N. Kudin, V. N. Staroverov, T. Keith, R. Kobayashi, J. Normand, 
 K. Raghavachari, A. Rendell, J. C. Burant, S. S. Iyengar, J. Tomasi, 
 M. Cossi, N. Rega, J. M. Millam, M. Klene, J. E. Knox, J. B. Cross, 
 V. Bakken, C. Adamo, J. Jaramillo, R. Gomperts, R. E. Stratmann, 
 O. Yazyev, A. J. Austin, R. Cammi, C. Pomelli, J. W. Ochterski, 
 R. L. Martin, K. Morokuma, V. G. Zakrzewski, G. A. Voth, 
 P. Salvador, J. J. Dannenberg, S. Dapprich, A. D. Daniels, 
 O. Farkas, J. B. Foresman, J. V. Ortiz, J. Cioslowski, 
 and D. J. Fox, Gaussian, Inc., Wallingford CT, 2013.
 
 ******************************************
 Gaussian 09:  ES64L-G09RevD.01 24-Apr-2013
                26-Jun-2019 
 ******************************************
 %nprocshared=4
 Will use up to    4 processors via shared memory.
 %mem=6000MB
 %chk=IP1_2ginp010.chk
 --------------------------------------------------------
 # m062x/def2tzvp int=ultrafine scrf=(solvent=chloroform)
 --------------------------------------------------------
 1/38=1/1;
 2/12=2,17=6,18=5,40=1/2;
 3/5=44,7=101,11=2,16=1,25=1,30=1,70=2201,72=7,74=-55,75=-5/1,2,3;
 4//1;
 5/5=2,38=5,53=7/2;
 6/7=2,8=2,9=2,10=2,28=1/1;
 99/5=1,9=1/99;
 ------------
 IP1_2ginp010
 ------------
 Symbolic Z-matrix:
 Charge =  0 Multiplicity = 1
 C                     2.30176  -0.60186  -0.10988 
 C                     0.85564  -1.11719  -0.20629 
 C                    -0.20898  -0.00318   0.00024 
 C                     0.11379   1.12707  -0.99075 
 C                     1.55779   1.58197  -1.04688 
 H                     2.55506  -0.43654   0.94261 
 H                     0.68983  -1.45793  -1.23725 
 H                    -0.12722   0.75776  -1.99522 
 H                    -0.50103   2.0139   -0.82294 
 O                     2.52388   0.69299  -0.75411 
 O                     1.8765    2.69508  -1.41413 
 C                     3.32689  -1.54932  -0.73854 
 C                     4.77803  -1.09189  -0.56168 
 C                     0.64498  -2.31845   0.72852 
 O                    -1.44589  -0.60387  -0.39204 
 Si                   -3.07804  -0.20755  -0.27114 
 C                    -3.75193  -0.62379   1.44239 
 C                    -3.41472   1.60717  -0.66857 
 C                    -3.89981  -1.30925  -1.55531 
 H                    -4.49564   1.78994  -0.64746 
 H                    -2.95653   2.29415   0.05048 
 H                    -3.0549    1.87426  -1.66757 
 H                    -4.98724  -1.17479  -1.54472 
 H                    -3.54256  -1.07788  -2.56412 
 H                    -3.69219  -2.36651  -1.36012 
 H                    -4.8417   -0.50438   1.45693 
 H                    -3.52974  -1.66234   1.71057 
 H                    -3.33893   0.02043   2.22474 
 H                    -0.4121   -2.5913    0.74658 
 H                     1.20705  -3.19124   0.38776 
 H                     0.9625   -2.0974    1.75286 
 H                     3.08942  -1.65486  -1.80469 
 H                     3.20008  -2.53876  -0.28722 
 H                     4.94208  -0.113    -1.0186 
 H                     5.04119  -1.01665   0.49936 
 H                     5.46583  -1.80497  -1.02613 
 C                    -0.34399   0.5184    1.459 
 C                     0.81238   1.28174   2.05018 
 C                     1.41584   0.9721    3.19961 
 H                    -0.60253  -0.32426   2.10694 
 H                    -1.21308   1.19042   1.45849 
 H                     1.13022   2.17936   1.5203 
 H                     2.21784   1.58301   3.6028 
 H                     1.12489   0.10061   3.78172 
 
                          Input orientation:                          
 ---------------------------------------------------------------------
 Center     Atomic      Atomic             Coordinates (Angstroms)
 Number     Number       Type             X           Y           Z
 ---------------------------------------------------------------------
      1          6           0        2.301764   -0.601861   -0.109884
      2          6           0        0.855635   -1.117193   -0.206286
      3          6           0       -0.208977   -0.003176    0.000239
      4          6           0        0.113786    1.127070   -0.990747
      5          6           0        1.557794    1.581973   -1.046880
      6          1           0        2.555064   -0.436541    0.942605
      7          1           0        0.689827   -1.457927   -1.237246
      8          1           0       -0.127216    0.757755   -1.995224
      9          1           0       -0.501032    2.013904   -0.822938
     10          8           0        2.523885    0.692990   -0.754111
     11          8           0        1.876504    2.695075   -1.414134
     12          6           0        3.326893   -1.549321   -0.738542
     13          6           0        4.778025   -1.091888   -0.561679
     14          6           0        0.644976   -2.318447    0.728518
     15          8           0       -1.445888   -0.603868   -0.392041
     16         14           0       -3.078042   -0.207552   -0.271141
     17          6           0       -3.751931   -0.623787    1.442392
     18          6           0       -3.414720    1.607166   -0.668574
     19          6           0       -3.899810   -1.309249   -1.555309
     20          1           0       -4.495642    1.789936   -0.647461
     21          1           0       -2.956527    2.294150    0.050480
     22          1           0       -3.054903    1.874260   -1.667569
     23          1           0       -4.987238   -1.174786   -1.544716
     24          1           0       -3.542555   -1.077875   -2.564123
     25          1           0       -3.692186   -2.366508   -1.360117
     26          1           0       -4.841695   -0.504378    1.456931
     27          1           0       -3.529735   -1.662341    1.710568
     28          1           0       -3.338931    0.020428    2.224738
     29          1           0       -0.412096   -2.591302    0.746584
     30          1           0        1.207046   -3.191235    0.387760
     31          1           0        0.962495   -2.097403    1.752857
     32          1           0        3.089423   -1.654858   -1.804692
     33          1           0        3.200082   -2.538760   -0.287223
     34          1           0        4.942078   -0.112999   -1.018603
     35          1           0        5.041194   -1.016646    0.499355
     36          1           0        5.465827   -1.804973   -1.026133
     37          6           0       -0.343992    0.518397    1.458996
     38          6           0        0.812378    1.281735    2.050176
     39          6           0        1.415841    0.972100    3.199606
     40          1           0       -0.602530   -0.324261    2.106944
     41          1           0       -1.213085    1.190422    1.458492
     42          1           0        1.130216    2.179357    1.520303
     43          1           0        2.217836    1.583009    3.602804
     44          1           0        1.124890    0.100609    3.781719
 ---------------------------------------------------------------------
                    Distance matrix (angstroms):
                    1          2          3          4          5
     1  C    0.000000
     2  C    1.538229   0.000000
     3  C    2.583480   1.554698   0.000000
     4  C    2.924443   2.490469   1.537428   0.000000
     5  C    2.490097   2.912923   2.594347   1.515007   0.000000
     6  H    1.095091   2.161318   2.952250   3.484619   3.004496
     7  H    2.145259   1.098394   2.110810   2.659849   3.167112
     8  H    3.361994   2.771593   2.137188   1.097018   2.101892
     9  H    3.899530   3.467647   2.198074   1.092079   2.115533
    10  O    1.463217   2.521891   2.919285   2.460284   1.345116
    11  O    3.570952   4.127282   3.691916   2.396888   1.214680
    12  C    1.530941   2.564595   3.929216   4.189359   3.609679
    13  C    2.564393   3.938539   5.135293   5.182953   4.213649
    14  C    2.528741   1.536635   2.572957   3.887110   4.381615
    15  O    3.758259   2.365379   1.429917   2.405655   3.772111
    16  Si   5.396647   4.038003   2.889109   3.533669   5.029428
    17  C    6.249581   4.918460   3.875240   4.891772   6.265384
    18  C    6.153871   5.086430   3.649288   3.575562   4.986948
    19  C    6.406963   4.946818   4.212814   4.728989   6.197024
    20  H    7.225954   6.105915   4.691510   4.669482   6.070162
    21  H    6.005183   5.122086   3.581796   3.445729   4.700052
    22  H    6.103396   5.135800   3.795477   3.325202   4.663439
    23  H    7.450942   5.994487   5.156679   5.623688   7.119340
    24  H    6.356567   4.990493   4.340930   4.550398   5.948981
    25  H    6.372166   4.855388   4.423647   5.179473   6.576542
    26  H    7.313920   5.966691   4.882134   5.762772   7.181601
    27  H    6.200407   4.816948   4.087235   5.324769   6.634157
    28  H    6.136379   4.979804   3.839995   4.846159   6.092604
    29  H    3.472240   2.165202   2.701238   4.137772   4.951081
    30  H    2.854981   2.185871   3.509845   4.662967   4.996472
    31  H    2.738629   2.193279   2.971498   4.317974   4.661622
    32  H    2.145130   2.798892   4.106735   4.154040   3.660224
    33  H    2.142429   2.742961   4.258345   4.843395   4.500514
    34  H    2.834786   4.285707   5.251997   4.985073   3.785117
    35  H    2.836846   4.245815   5.370338   5.576313   4.612780
    36  H    3.506891   4.732765   6.041797   6.102661   5.171514
    37  C    3.273589   2.624390   1.555069   2.565401   3.320753
    38  C    3.229871   3.293683   2.626101   3.123966   3.199616
    39  C    3.770270   4.034734   3.718487   4.390720   4.292405
    40  H    3.664193   2.847107   2.167068   3.495019   4.271690
    41  H    4.245733   3.517979   2.135278   2.786283   3.756058
    42  H    3.430045   3.731454   2.977832   2.906168   2.670228
    43  H    4.308683   4.863728   4.624271   5.073028   4.696298
    44  H    4.125902   4.178483   4.011180   4.985217   5.069242
                    6          7          8          9         10
     6  H    0.000000
     7  H    3.045339   0.000000
     8  H    4.153530   2.480189   0.000000
     9  H    4.296690   3.693698   1.758381   0.000000
    10  O    2.038543   2.867688   2.927950   3.301465   0.000000
    11  O    3.977648   4.322837   2.847063   2.542869   2.205239
    12  C    2.158762   2.685363   4.339668   5.230364   2.381811
    13  C    2.762952   4.159776   5.434852   6.130468   2.881660
    14  C    2.689952   2.146330   4.180678   4.742322   3.846718
    15  O    4.221006   2.450524   2.482561   2.816231   4.191901
    16  Si   5.766931   4.085784   3.551289   3.446785   5.694368
    17  C    6.329537   5.254090   5.183090   4.759987   6.778229
    18  C    6.512370   5.154172   3.645433   2.945987   6.009165
    19  C    6.976144   4.603046   4.324176   4.809512   6.776041
    20  H    7.562934   6.146995   4.686684   4.004730   7.105521
    21  H    6.215319   5.388155   3.814501   2.621231   5.765934
    22  H    6.604888   5.031069   3.150443   2.693540   5.775178
    23  H    7.976095   5.692431   5.249522   5.551104   7.780142
    24  H    7.063243   4.451752   3.918893   4.673509   6.573720
    25  H    6.932203   4.476902   4.782613   5.446103   6.954661
    26  H    7.414929   6.226201   5.978015   5.511887   7.782941
    27  H    6.254369   5.151320   5.582732   5.395041   6.947557
    28  H    6.049121   5.513779   5.354143   4.616920   6.610484
    29  H    3.672255   2.536603   4.337609   4.866131   4.653885
    30  H    3.116624   2.431567   4.801395   5.610418   4.257363
    31  H    2.439518   3.069852   4.836063   5.067492   4.063142
    32  H    3.052454   2.473628   4.025391   5.226378   2.633618
    33  H    2.519494   2.893462   4.985498   5.891688   3.334582
    34  H    3.106260   4.465230   5.235431   5.847174   2.562661
    35  H    2.591107   4.705838   6.006986   6.453601   3.291030
    36  H    3.771084   4.793244   6.228069   7.087208   3.868958
    37  C    3.095657   3.499194   3.469282   2.732842   3.626713
    38  C    2.686287   4.281111   4.186007   3.242823   3.337649
    39  C    2.894158   5.110556   5.423396   4.576092   4.115525
    40  H    3.367297   3.760185   4.269012   3.749870   4.358315
    41  H    4.136677   4.231055   3.646158   2.527858   4.371269
    42  H    3.034279   4.585614   3.995124   2.859917   3.053614
    43  H    3.356928   5.916772   6.125213   5.212016   4.457410
    44  H    3.224050   5.273360   5.947494   5.244729   4.783498
                   11         12         13         14         15
    11  O    0.000000
    12  C    4.535962   0.000000
    13  C    4.846297   1.531767   0.000000
    14  C    5.589546   3.152221   4.500128   0.000000
    15  O    4.792284   4.877846   6.245321   2.926969   0.000000
    16  Si   5.854844   6.560640   7.911021   4.395004   1.683927
    17  C    7.131190   7.464773   8.774712   4.765950   2.946757
    18  C    5.453114   7.444303   8.626551   5.817511   2.973456
    19  C    7.029960   7.276674   8.737240   5.185502   2.805795
    20  H    6.481613   8.505938   9.711497   6.722952   3.885426
    21  H    5.065967   7.407847   8.465417   5.891232   3.297933
    22  H    5.005671   7.301460   8.448419   6.083513   3.218232
    23  H    7.880598   8.361517   9.814968   6.180404   3.767727
    24  H    6.702524   7.123505   8.558156   5.469545   3.055918
    25  H    7.525480   7.093773   8.602711   4.814113   3.014950
    26  H    7.975820   8.522783   9.846774   5.824516   3.867829
    27  H    7.614345   7.281776   8.631767   4.338561   3.143843
    28  H    6.898977   7.461793   8.653689   4.855978   3.289512
    29  H    6.152412   4.155883   5.558521   1.091869   2.512984
    30  H    6.192224   2.908297   4.249774   1.092610   3.786901
    31  H    5.816622   3.478195   4.574539   1.094965   3.554088
    32  H    4.532728   1.097363   2.171035   3.582293   4.865101
    33  H    5.514963   1.094879   2.158395   2.758412   5.033868
    34  H    4.176059   2.179513   1.092665   5.136294   6.437363
    35  H    5.239616   2.180587   1.095770   4.590635   6.561037
    36  H    5.769247   2.173271   1.094203   5.155876   7.043900
    37  C    4.233604   4.751845   5.736829   3.091818   2.428990
    38  C    3.889902   4.702618   5.308694   3.838765   3.823570
    39  C    4.946458   5.051603   5.450834   4.186670   4.855213
    40  H    5.259277   5.003791   6.054847   2.726373   2.652237
    41  H    4.479009   5.739734   6.721862   4.037006   2.588078
    42  H    3.071454   4.881681   5.323740   4.592670   4.247318
    43  H    5.150035   5.467064   5.572482   5.094778   5.845006
    44  H    5.856028   5.291866   5.799358   3.924817   4.952319
                   16         17         18         19         20
    16  Si   0.000000
    17  C    1.887743   0.000000
    18  C    1.887990   3.089828   0.000000
    19  C    1.880991   3.078626   3.086598   0.000000
    20  H    2.478137   3.278208   1.096468   3.283923   0.000000
    21  H    2.525217   3.329331   1.094955   4.056208   1.763584
    22  H    2.506888   4.049438   1.094897   3.295633   1.767331
    23  H    2.490495   3.279085   3.313562   1.095761   3.136289
    24  H    2.496197   4.037598   3.289209   1.094930   3.578590
    25  H    2.494821   3.300712   4.042933   1.094991   4.292953
    26  H    2.486928   1.096383   3.318531   3.257078   3.132426
    27  H    2.499522   1.095392   4.045148   3.305689   4.290862
    28  H    2.519811   1.094371   3.300717   4.046156   3.566324
    29  H    3.718238   3.938244   5.352154   4.371101   6.149305
    30  H    5.262936   5.682912   6.745459   5.779045   7.642277
    31  H    4.898372   4.949116   6.224723   5.933562   7.117878
    32  H    6.517983   7.642695   7.364472   7.002215   8.410648
    33  H    6.696987   7.415469   7.815992   7.316297   8.836942
    34  H    8.055431   9.050038   8.539178   8.938571   9.634805
    35  H    8.195748   8.852271   8.930338   9.178715  10.007164
    36  H    8.724647   9.615398   9.520224   9.393664  10.597058
    37  C    3.315932   3.594288   3.891188   5.007012   4.825989
    38  C    4.768842   4.983305   5.036454   6.474368   5.975834
    39  C    5.799366   5.686873   6.220968   7.487985   7.100311
    40  H    3.434686   3.232657   4.397991   5.025371   5.216598
    41  H    2.902417   3.120473   3.089544   4.748667   3.945838
    42  H    5.159074   5.630191   5.076911   6.850615   6.041616
    43  H    6.801462   6.721268   7.069013   8.508636   7.948482
    44  H    5.846817   5.457159   6.533214   7.464528   7.352676
                   21         22         23         24         25
    21  H    0.000000
    22  H    1.771349   0.000000
    23  H    4.324576   3.611882   0.000000
    24  H    4.306986   3.123574   1.770788   0.000000
    25  H    4.924704   4.299392   1.769587   1.769914   0.000000
    26  H    3.655642   4.314284   3.079044   4.264451   3.567164
    27  H    4.328774   4.913738   3.599847   4.314481   3.154576
    28  H    3.169139   4.320581   4.284184   4.917410   4.321277
    29  H    5.552147   5.723094   5.309284   4.801147   3.904832
    30  H    6.894820   6.931654   6.794828   5.978178   5.266661
    31  H    6.127198   6.604007   6.864731   6.322280   5.606164
    32  H    7.455859   7.087046   8.095092   6.700207   6.833324
    33  H    7.834213   7.778492   8.394875   7.265095   6.977401
    34  H    8.326180   8.265716   9.999775   8.678054   8.930031
    35  H    8.667549   8.865646  10.235853   9.114241   9.030597
    36  H    9.428571   9.303281  10.484876   9.167608   9.181289
    37  C    3.458693   4.354631   5.783501   5.381856   5.242183
    38  C    4.385021   5.397090   7.252123   6.769413   6.725390
    39  C    5.548190   6.670145   8.253310   7.874558   7.617698
    40  H    4.077551   5.009449   5.769201   5.570507   5.073190
    41  H    2.498060   3.692179   5.371936   5.172333   5.171291
    42  H    4.344540   5.269804   7.620227   7.009057   7.226152
    43  H    6.316547   7.460793   9.274453   8.848356   8.669350
    44  H    5.949095   7.093042   8.207049   7.965148   7.465210
                   26         27         28         29         30
    26  H    0.000000
    27  H    1.768177   0.000000
    28  H    1.767272   1.769884   0.000000
    29  H    4.947847   3.392920   4.191949   0.000000
    30  H    6.704446   5.150188   5.861329   1.763603   0.000000
    31  H    6.026103   4.513446   4.817691   1.773703   1.766285
    32  H    8.652423   7.494689   7.769596   4.432445   3.272712
    33  H    8.476495   7.074582   7.457753   3.757572   2.203070
    34  H   10.099686   9.034404   8.894502   6.158332   5.040224
    35  H    9.942377   8.680137   8.618524   5.681464   4.409306
    36  H   10.681861   9.403723   9.561591   6.189573   4.696598
    37  C    4.612527   3.868833   3.131133   3.190987   4.161086
    38  C    5.959084   5.257077   4.342204   4.266041   4.788199
    39  C    6.661356   5.797951   4.946100   4.696435   5.028263
    40  H    4.292491   3.242854   2.760539   2.650721   3.801276
    41  H    4.004892   3.683567   2.544649   3.930628   5.118830
    42  H    6.547532   6.042350   5.013031   5.073121   5.489245
    43  H    7.668046   6.866398   5.934508   5.700825   5.843938
    44  H    6.432013   5.391029   4.728247   4.338289   4.728842
                   31         32         33         34         35
    31  H    0.000000
    32  H    4.168432   0.000000
    33  H    3.059987   1.759614   0.000000
    34  H    5.239841   2.535270   3.074701   0.000000
    35  H    4.401714   3.086318   2.515001   1.769350   0.000000
    36  H    5.299840   2.505192   2.493598   1.771199   1.768866
    37  C    2.938651   5.211817   4.995593   5.871941   5.681329
    38  C    3.395513   5.354299   5.075505   5.330770   5.056727
    39  C    3.423515   5.894471   5.260003   5.604023   4.938588
    40  H    2.391383   5.540930   5.009581   6.368387   5.908922
    41  H    3.953428   6.103734   6.035757   6.761726   6.701276
    42  H    4.286361   5.440155   5.460048   5.121643   5.152914
    43  H    4.306230   6.362740   5.752052   5.626308   4.935682
    44  H    2.995648   6.176491   5.275318   6.136745   5.230641
                   36         37         38         39         40
    36  H    0.000000
    37  C    6.732601   0.000000
    38  C    6.375424   1.506443   0.000000
    39  C    6.478533   2.516462   1.334628   0.000000
    40  H    6.988107   1.093961   2.141124   2.635960   0.000000
    41  H    7.730046   1.098608   2.112091   3.160759   1.757137
    42  H    6.415352   2.221674   1.089730   2.087848   3.100751
    43  H    6.592035   3.506034   2.115829   1.085806   3.718836
    44  H    6.752068   2.779785   2.119189   1.087660   2.443229
                   41         42         43         44
    41  H    0.000000
    42  H    2.544184   0.000000
    43  H    4.064901   2.423914   0.000000
    44  H    3.471484   3.071681   1.850419   0.000000
 Stoichiometry    C14H26O3Si
 Framework group  C1[X(C14H26O3Si)]
 Deg. of freedom   126
 Full point group                 C1      NOp   1
 Largest Abelian subgroup         C1      NOp   1
 Largest concise Abelian subgroup C1      NOp   1
                         Standard orientation:                         
 ---------------------------------------------------------------------
 Center     Atomic      Atomic             Coordinates (Angstroms)
 Number     Number       Type             X           Y           Z
 ---------------------------------------------------------------------
      1          6           0        2.301764   -0.601861   -0.109884
      2          6           0        0.855635   -1.117193   -0.206286
      3          6           0       -0.208977   -0.003176    0.000239
      4          6           0        0.113786    1.127070   -0.990747
      5          6           0        1.557794    1.581973   -1.046880
      6          1           0        2.555064   -0.436541    0.942605
      7          1           0        0.689827   -1.457927   -1.237246
      8          1           0       -0.127216    0.757755   -1.995224
      9          1           0       -0.501032    2.013904   -0.822938
     10          8           0        2.523885    0.692990   -0.754111
     11          8           0        1.876504    2.695075   -1.414134
     12          6           0        3.326893   -1.549321   -0.738542
     13          6           0        4.778025   -1.091888   -0.561679
     14          6           0        0.644976   -2.318447    0.728518
     15          8           0       -1.445888   -0.603868   -0.392041
     16         14           0       -3.078042   -0.207552   -0.271141
     17          6           0       -3.751931   -0.623787    1.442392
     18          6           0       -3.414720    1.607166   -0.668574
     19          6           0       -3.899810   -1.309249   -1.555309
     20          1           0       -4.495642    1.789936   -0.647461
     21          1           0       -2.956527    2.294150    0.050480
     22          1           0       -3.054903    1.874260   -1.667569
     23          1           0       -4.987238   -1.174786   -1.544716
     24          1           0       -3.542555   -1.077875   -2.564123
     25          1           0       -3.692186   -2.366508   -1.360117
     26          1           0       -4.841695   -0.504378    1.456931
     27          1           0       -3.529735   -1.662341    1.710568
     28          1           0       -3.338931    0.020428    2.224738
     29          1           0       -0.412096   -2.591302    0.746584
     30          1           0        1.207046   -3.191235    0.387760
     31          1           0        0.962495   -2.097403    1.752857
     32          1           0        3.089423   -1.654858   -1.804692
     33          1           0        3.200082   -2.538760   -0.287223
     34          1           0        4.942078   -0.112999   -1.018603
     35          1           0        5.041194   -1.016646    0.499355
     36          1           0        5.465827   -1.804973   -1.026133
     37          6           0       -0.343992    0.518397    1.458996
     38          6           0        0.812378    1.281735    2.050176
     39          6           0        1.415841    0.972100    3.199606
     40          1           0       -0.602530   -0.324261    2.106944
     41          1           0       -1.213085    1.190422    1.458492
     42          1           0        1.130216    2.179357    1.520303
     43          1           0        2.217836    1.583009    3.602804
     44          1           0        1.124890    0.100609    3.781719
 ---------------------------------------------------------------------
 Rotational constants (GHZ):      0.5677449      0.2323544      0.2275673
 Standard basis: def2TZVP (5D, 7F)
 There are   810 symmetry adapted cartesian basis functions of A   symmetry.
 There are   720 symmetry adapted basis functions of A   symmetry.
   720 basis functions,  1144 primitive gaussians,   810 cartesian basis functions
    74 alpha electrons       74 beta electrons
       nuclear repulsion energy      1618.9806397467 Hartrees.
 NAtoms=   44 NActive=   44 NUniq=   44 SFac= 1.00D+00 NAtFMM=   60 NAOKFM=F Big=F
 Integral buffers will be    131072 words long.
 Raffenetti 2 integral format.
 Two-electron integral symmetry is turned on.
 ------------------------------------------------------------------------------
 Polarizable Continuum Model (PCM)
 =================================
 Model                : PCM (using non-symmetric T matrix).
 Atomic radii         : UFF (Universal Force Field).
 Polarization charges : Total charges.
 Charge compensation  : None.
 Solution method      : On-the-fly selection.
 Cavity type          : Scaled VdW (van der Waals Surface) (Alpha=1.100).
 Cavity algorithm     : GePol (No added spheres)
                        Default sphere list used, NSphG=   44.
                        Lebedev-Laikov grids with approx.  5.0 points / Ang**2.
                        Smoothing algorithm: Karplus/York (Gamma=1.0000).
                        Polarization charges: spherical gaussians, with
                                              point-specific exponents (IZeta= 3).
                        Self-potential: point-specific (ISelfS= 7).
                        Self-field    : sphere-specific E.n sum rule (ISelfD= 2).
 Solvent              : Chloroform, Eps=   4.711300 Eps(inf)=   2.090627
 ------------------------------------------------------------------------------
 One-electron integrals computed using PRISM.
   1 Symmetry operations used in ECPInt.
 ECPInt:  NShTT=   46360 NPrTT=  137514 LenC2=   41834 LenP2D=   89721.
 LDataN:  DoStor=T MaxTD1= 6 Len=  172
 NBasis=   720 RedAO= T EigKep=  4.32D-05  NBF=   720
 NBsUse=   720 1.00D-06 EigRej= -1.00D+00 NBFU=   720
 ExpMin= 7.01D-02 ExpMax= 4.48D+04 ExpMxC= 1.53D+03 IAcc=3 IRadAn=         5 AccDes= 0.00D+00
 Harris functional with IExCor= 1009 and IRadAn=       5 diagonalized for initial guess.
 HarFok:  IExCor= 1009 AccDes= 0.00D+00 IRadAn=         5 IDoV= 1 UseB2=F ITyADJ=14
 ICtDFT=  3500011 ScaDFX=  1.000000  1.000000  1.000000  1.000000
 FoFCou: FMM=F IPFlag=           0 FMFlag=      100000 FMFlg1=           0
         NFxFlg=           0 DoJE=T BraDBF=F KetDBF=T FulRan=T
         wScrn=  0.000000 ICntrl=     500 IOpCl=  0 I1Cent=   200000004 NGrid=           0
         NMat0=    1 NMatS0=      1 NMatT0=    0 NMatD0=    1 NMtDS0=    0 NMtDT0=    0
 Petite list used in FoFCou.
 Requested convergence on RMS density matrix=1.00D-08 within 128 cycles.
 Requested convergence on MAX density matrix=1.00D-06.
 Requested convergence on             energy=1.00D-06.
 No special actions if energy rises.
 Inv3:  Mode=1 IEnd=    25212603.
 Iteration    1 A*A^-1 deviation from unit magnitude is 4.88D-15 for   2867.
 Iteration    1 A*A^-1 deviation from orthogonality  is 3.29D-15 for   2881   1736.
 Iteration    1 A^-1*A deviation from unit magnitude is 5.77D-15 for    721.
 Iteration    1 A^-1*A deviation from orthogonality  is 1.75D-13 for   2058   2045.
 Error on total polarization charges =  0.01479
 SCF Done:  E(RM062X) =  -1064.33923482     A.U. after   14 cycles
            NFock= 14  Conv=0.15D-08     -V/T= 2.0047

 **********************************************************************

            Population analysis using the SCF density.

 **********************************************************************

 Orbital symmetries:
       Occupied  (A) (A) (A) (A) (A) (A) (A) (A) (A) (A) (A) (A)
                 (A) (A) (A) (A) (A) (A) (A) (A) (A) (A) (A) (A)
                 (A) (A) (A) (A) (A) (A) (A) (A) (A) (A) (A) (A)
                 (A) (A) (A) (A) (A) (A) (A) (A) (A) (A) (A) (A)
                 (A) (A) (A) (A) (A) (A) (A) (A) (A) (A) (A) (A)
                 (A) (A) (A) (A) (A) (A) (A) (A) (A) (A) (A) (A)
                 (A) (A)
       Virtual   (A) (A) (A) (A) (A) (A) (A) (A) (A) (A) (A) (A)
                 (A) (A) (A) (A) (A) (A) (A) (A) (A) (A) (A) (A)
                 (A) (A) (A) (A) (A) (A) (A) (A) (A) (A) (A) (A)
                 (A) (A) (A) (A) (A) (A) (A) (A) (A) (A) (A) (A)
                 (A) (A) (A) (A) (A) (A) (A) (A) (A) (A) (A) (A)
                 (A) (A) (A) (A) (A) (A) (A) (A) (A) (A) (A) (A)
                 (A) (A) (A) (A) (A) (A) (A) (A) (A) (A) (A) (A)
                 (A) (A) (A) (A) (A) (A) (A) (A) (A) (A) (A) (A)
                 (A) (A) (A) (A) (A) (A) (A) (A) (A) (A) (A) (A)
                 (A) (A) (A) (A) (A) (A) (A) (A) (A) (A) (A) (A)
                 (A) (A) (A) (A) (A) (A) (A) (A) (A) (A) (A) (A)
                 (A) (A) (A) (A) (A) (A) (A) (A) (A) (A) (A) (A)
                 (A) (A) (A) (A) (A) (A) (A) (A) (A) (A) (A) (A)
                 (A) (A) (A) (A) (A) (A) (A) (A) (A) (A) (A) (A)
                 (A) (A) (A) (A) (A) (A) (A) (A) (A) (A) (A) (A)
                 (A) (A) (A) (A) (A) (A) (A) (A) (A) (A) (A) (A)
                 (A) (A) (A) (A) (A) (A) (A) (A) (A) (A) (A) (A)
                 (A) (A) (A) (A) (A) (A) (A) (A) (A) (A) (A) (A)
                 (A) (A) (A) (A) (A) (A) (A) (A) (A) (A) (A) (A)
                 (A) (A) (A) (A) (A) (A) (A) (A) (A) (A) (A) (A)
                 (A) (A) (A) (A) (A) (A) (A) (A) (A) (A) (A) (A)
                 (A) (A) (A) (A) (A) (A) (A) (A) (A) (A) (A) (A)
                 (A) (A) (A) (A) (A) (A) (A) (A) (A) (A) (A) (A)
                 (A) (A) (A) (A) (A) (A) (A) (A) (A) (A) (A) (A)
                 (A) (A) (A) (A) (A) (A) (A) (A) (A) (A) (A) (A)
                 (A) (A) (A) (A) (A) (A) (A) (A) (A) (A) (A) (A)
                 (A) (A) (A) (A) (A) (A) (A) (A) (A) (A) (A) (A)
                 (A) (A) (A) (A) (A) (A) (A) (A) (A) (A) (A) (A)
                 (A) (A) (A) (A) (A) (A) (A) (A) (A) (A) (A) (A)
                 (A) (A) (A) (A) (A) (A) (A) (A) (A) (A) (A) (A)
                 (A) (A) (A) (A) (A) (A) (A) (A) (A) (A) (A) (A)
                 (A) (A) (A) (A) (A) (A) (A) (A) (A) (A) (A) (A)
                 (A) (A) (A) (A) (A) (A) (A) (A) (A) (A) (A) (A)
                 (A) (A) (A) (A) (A) (A) (A) (A) (A) (A) (A) (A)
                 (A) (A) (A) (A) (A) (A) (A) (A) (A) (A) (A) (A)
                 (A) (A) (A) (A) (A) (A) (A) (A) (A) (A) (A) (A)
                 (A) (A) (A) (A) (A) (A) (A) (A) (A) (A) (A) (A)
                 (A) (A) (A) (A) (A) (A) (A) (A) (A) (A) (A) (A)
                 (A) (A) (A) (A) (A) (A) (A) (A) (A) (A) (A) (A)
                 (A) (A) (A) (A) (A) (A) (A) (A) (A) (A) (A) (A)
                 (A) (A) (A) (A) (A) (A) (A) (A) (A) (A) (A) (A)
                 (A) (A) (A) (A) (A) (A) (A) (A) (A) (A) (A) (A)
                 (A) (A) (A) (A) (A) (A) (A) (A) (A) (A) (A) (A)
                 (A) (A) (A) (A) (A) (A) (A) (A) (A) (A) (A) (A)
                 (A) (A) (A) (A) (A) (A) (A) (A) (A) (A) (A) (A)
                 (A) (A) (A) (A) (A) (A) (A) (A) (A) (A) (A) (A)
                 (A) (A) (A) (A) (A) (A) (A) (A) (A) (A) (A) (A)
                 (A) (A) (A) (A) (A) (A) (A) (A) (A) (A) (A) (A)
                 (A) (A) (A) (A) (A) (A) (A) (A) (A) (A) (A) (A)
                 (A) (A) (A) (A) (A) (A) (A) (A) (A) (A) (A) (A)
                 (A) (A) (A) (A) (A) (A) (A) (A) (A) (A) (A) (A)
                 (A) (A) (A) (A) (A) (A) (A) (A) (A) (A) (A) (A)
                 (A) (A) (A) (A) (A) (A) (A) (A) (A) (A) (A) (A)
                 (A) (A) (A) (A) (A) (A) (A) (A) (A) (A)
 The electronic state is 1-A.
 Alpha  occ. eigenvalues --  -67.01671 -19.67097 -19.61932 -19.61500 -10.68152
 Alpha  occ. eigenvalues --  -10.62225 -10.60667 -10.55563 -10.55433 -10.55316
 Alpha  occ. eigenvalues --  -10.55065 -10.53987 -10.53932 -10.53181 -10.52396
 Alpha  occ. eigenvalues --  -10.51250 -10.51011 -10.50813  -5.55122  -3.86308
 Alpha  occ. eigenvalues --   -3.86167  -3.86152  -1.22842  -1.14065  -1.13320
 Alpha  occ. eigenvalues --   -0.93486  -0.90744  -0.88130  -0.84907  -0.80678
 Alpha  occ. eigenvalues --   -0.79984  -0.78752  -0.77037  -0.76760  -0.73447
 Alpha  occ. eigenvalues --   -0.70264  -0.68467  -0.64587  -0.62632  -0.59631
 Alpha  occ. eigenvalues --   -0.58476  -0.56474  -0.55424  -0.54350  -0.53054
 Alpha  occ. eigenvalues --   -0.51980  -0.50628  -0.50469  -0.49868  -0.49023
 Alpha  occ. eigenvalues --   -0.47906  -0.47656  -0.47106  -0.46923  -0.46331
 Alpha  occ. eigenvalues --   -0.45907  -0.45547  -0.45078  -0.44541  -0.43955
 Alpha  occ. eigenvalues --   -0.43386  -0.43025  -0.42232  -0.41529  -0.40897
 Alpha  occ. eigenvalues --   -0.40348  -0.39580  -0.38692  -0.36905  -0.36660
 Alpha  occ. eigenvalues --   -0.35655  -0.34802  -0.33578  -0.31954
 Alpha virt. eigenvalues --    0.02245   0.04139   0.05030   0.07012   0.07400
 Alpha virt. eigenvalues --    0.08113   0.08821   0.09779   0.09967   0.10405
 Alpha virt. eigenvalues --    0.10648   0.11116   0.11515   0.12110   0.12204
 Alpha virt. eigenvalues --    0.13010   0.13509   0.14235   0.14452   0.15052
 Alpha virt. eigenvalues --    0.15346   0.15802   0.16017   0.16173   0.16638
 Alpha virt. eigenvalues --    0.16795   0.17238   0.17872   0.17999   0.18583
 Alpha virt. eigenvalues --    0.19034   0.19595   0.19635   0.20212   0.20655
 Alpha virt. eigenvalues --    0.20952   0.21565   0.22156   0.22497   0.22700
 Alpha virt. eigenvalues --    0.23287   0.23655   0.24722   0.25144   0.25214
 Alpha virt. eigenvalues --    0.26226   0.26693   0.27286   0.28049   0.28358
 Alpha virt. eigenvalues --    0.28588   0.29082   0.29703   0.30016   0.30543
 Alpha virt. eigenvalues --    0.30874   0.31363   0.32377   0.32665   0.33308
 Alpha virt. eigenvalues --    0.34503   0.34964   0.35791   0.36074   0.37185
 Alpha virt. eigenvalues --    0.37271   0.38097   0.38219   0.38321   0.39310
 Alpha virt. eigenvalues --    0.39811   0.40083   0.40355   0.41180   0.41996
 Alpha virt. eigenvalues --    0.42521   0.43309   0.43607   0.44269   0.44504
 Alpha virt. eigenvalues --    0.44876   0.45378   0.45504   0.45912   0.46358
 Alpha virt. eigenvalues --    0.46991   0.47262   0.47679   0.47923   0.48297
 Alpha virt. eigenvalues --    0.48566   0.49025   0.49349   0.49483   0.49758
 Alpha virt. eigenvalues --    0.50101   0.50171   0.50631   0.51261   0.51556
 Alpha virt. eigenvalues --    0.51716   0.52074   0.52439   0.52621   0.52980
 Alpha virt. eigenvalues --    0.53846   0.54159   0.54493   0.54853   0.55448
 Alpha virt. eigenvalues --    0.56146   0.56715   0.57626   0.58693   0.59124
 Alpha virt. eigenvalues --    0.60184   0.60449   0.60589   0.61139   0.62319
 Alpha virt. eigenvalues --    0.62659   0.63542   0.64320   0.64932   0.65885
 Alpha virt. eigenvalues --    0.66481   0.66908   0.67460   0.68038   0.68801
 Alpha virt. eigenvalues --    0.69730   0.70007   0.71176   0.72629   0.72980
 Alpha virt. eigenvalues --    0.73743   0.74579   0.75648   0.76135   0.77063
 Alpha virt. eigenvalues --    0.79091   0.79501   0.79991   0.80902   0.81280
 Alpha virt. eigenvalues --    0.83175   0.83611   0.84178   0.85376   0.86077
 Alpha virt. eigenvalues --    0.87316   0.87918   0.88605   0.89366   0.90473
 Alpha virt. eigenvalues --    0.91020   0.91325   0.92590   0.93300   0.93544
 Alpha virt. eigenvalues --    0.94923   0.95459   0.96587   0.96783   0.97882
 Alpha virt. eigenvalues --    0.98638   0.98813   0.99090   1.00675   1.01715
 Alpha virt. eigenvalues --    1.02300   1.02598   1.02877   1.03797   1.04997
 Alpha virt. eigenvalues --    1.05286   1.05387   1.06314   1.06436   1.07188
 Alpha virt. eigenvalues --    1.07815   1.08392   1.09962   1.10429   1.11240
 Alpha virt. eigenvalues --    1.12232   1.12730   1.13147   1.13853   1.15581
 Alpha virt. eigenvalues --    1.16064   1.16537   1.17913   1.17943   1.18834
 Alpha virt. eigenvalues --    1.20636   1.21558   1.22489   1.23151   1.23831
 Alpha virt. eigenvalues --    1.24345   1.25671   1.26803   1.27435   1.28340
 Alpha virt. eigenvalues --    1.28797   1.30324   1.30738   1.31335   1.33000
 Alpha virt. eigenvalues --    1.34579   1.35142   1.36830   1.37322   1.38220
 Alpha virt. eigenvalues --    1.39552   1.39990   1.40743   1.41595   1.41988
 Alpha virt. eigenvalues --    1.42910   1.44620   1.45393   1.46518   1.46858
 Alpha virt. eigenvalues --    1.47537   1.48240   1.49367   1.51916   1.54330
 Alpha virt. eigenvalues --    1.55157   1.55263   1.55466   1.56231   1.57390
 Alpha virt. eigenvalues --    1.57610   1.57943   1.58513   1.59043   1.59956
 Alpha virt. eigenvalues --    1.60429   1.60717   1.60977   1.62077   1.62453
 Alpha virt. eigenvalues --    1.62953   1.63333   1.63812   1.64416   1.64944
 Alpha virt. eigenvalues --    1.65527   1.65760   1.65915   1.66155   1.66392
 Alpha virt. eigenvalues --    1.66815   1.67307   1.68438   1.68777   1.69530
 Alpha virt. eigenvalues --    1.69939   1.71074   1.71476   1.72502   1.73470
 Alpha virt. eigenvalues --    1.73944   1.75424   1.76352   1.76489   1.77735
 Alpha virt. eigenvalues --    1.78710   1.80426   1.80531   1.82147   1.83802
 Alpha virt. eigenvalues --    1.84183   1.85020   1.85854   1.87579   1.88271
 Alpha virt. eigenvalues --    1.89809   1.90069   1.90630   1.91605   1.92677
 Alpha virt. eigenvalues --    1.93399   1.94543   1.95486   1.96302   1.97850
 Alpha virt. eigenvalues --    1.98030   2.00038   2.00414   2.01522   2.02095
 Alpha virt. eigenvalues --    2.02805   2.04149   2.05300   2.05474   2.06769
 Alpha virt. eigenvalues --    2.07161   2.07691   2.08448   2.08871   2.09589
 Alpha virt. eigenvalues --    2.10783   2.11779   2.12246   2.12756   2.14151
 Alpha virt. eigenvalues --    2.15225   2.17154   2.17785   2.19008   2.20035
 Alpha virt. eigenvalues --    2.21537   2.21843   2.22425   2.22752   2.23148
 Alpha virt. eigenvalues --    2.25174   2.25569   2.26788   2.27808   2.28503
 Alpha virt. eigenvalues --    2.28870   2.29924   2.31935   2.32806   2.33508
 Alpha virt. eigenvalues --    2.34674   2.35161   2.35665   2.36235   2.36431
 Alpha virt. eigenvalues --    2.36552   2.37979   2.39012   2.39294   2.39611
 Alpha virt. eigenvalues --    2.40110   2.40725   2.40940   2.41611   2.42091
 Alpha virt. eigenvalues --    2.42814   2.42939   2.43933   2.44609   2.45033
 Alpha virt. eigenvalues --    2.46146   2.47161   2.47375   2.48421   2.49760
 Alpha virt. eigenvalues --    2.50728   2.51633   2.51880   2.53117   2.53927
 Alpha virt. eigenvalues --    2.54928   2.56247   2.56809   2.57656   2.58557
 Alpha virt. eigenvalues --    2.59079   2.59505   2.60060   2.60441   2.60986
 Alpha virt. eigenvalues --    2.61672   2.62268   2.63009   2.63510   2.63825
 Alpha virt. eigenvalues --    2.64866   2.65249   2.65539   2.66453   2.67153
 Alpha virt. eigenvalues --    2.67972   2.68670   2.69532   2.70082   2.70898
 Alpha virt. eigenvalues --    2.71088   2.72293   2.72854   2.73210   2.73742
 Alpha virt. eigenvalues --    2.74491   2.75114   2.76380   2.77346   2.78866
 Alpha virt. eigenvalues --    2.80097   2.80777   2.81100   2.82332   2.83369
 Alpha virt. eigenvalues --    2.84511   2.85315   2.86369   2.86788   2.88919
 Alpha virt. eigenvalues --    2.89664   2.90382   2.91090   2.91195   2.93092
 Alpha virt. eigenvalues --    2.95291   2.96319   2.96790   2.97659   2.99983
 Alpha virt. eigenvalues --    3.00418   3.02009   3.03612   3.04932   3.06221
 Alpha virt. eigenvalues --    3.06790   3.08085   3.08911   3.09703   3.09824
 Alpha virt. eigenvalues --    3.11189   3.11643   3.12635   3.13610   3.13925
 Alpha virt. eigenvalues --    3.14246   3.14658   3.15437   3.15609   3.16231
 Alpha virt. eigenvalues --    3.17211   3.18265   3.19110   3.19493   3.20603
 Alpha virt. eigenvalues --    3.20784   3.22360   3.23205   3.23637   3.24325
 Alpha virt. eigenvalues --    3.24841   3.24998   3.25781   3.26183   3.26333
 Alpha virt. eigenvalues --    3.27345   3.28144   3.28632   3.29495   3.29833
 Alpha virt. eigenvalues --    3.30601   3.30748   3.31237   3.31519   3.32977
 Alpha virt. eigenvalues --    3.33046   3.33251   3.34112   3.35149   3.35884
 Alpha virt. eigenvalues --    3.36695   3.37222   3.37380   3.38423   3.38873
 Alpha virt. eigenvalues --    3.40283   3.41326   3.41681   3.42323   3.43323
 Alpha virt. eigenvalues --    3.43589   3.44354   3.44894   3.45962   3.46355
 Alpha virt. eigenvalues --    3.47230   3.47429   3.47809   3.49386   3.49517
 Alpha virt. eigenvalues --    3.52387   3.52692   3.53300   3.54906   3.56090
 Alpha virt. eigenvalues --    3.56844   3.57075   3.57955   3.58219   3.58620
 Alpha virt. eigenvalues --    3.59737   3.60087   3.61057   3.62034   3.62643
 Alpha virt. eigenvalues --    3.63119   3.64095   3.64302   3.64946   3.65469
 Alpha virt. eigenvalues --    3.65860   3.66573   3.67200   3.68198   3.70348
 Alpha virt. eigenvalues --    3.71910   3.73348   3.74994   3.76200   3.77059
 Alpha virt. eigenvalues --    3.78722   3.79776   3.81015   3.81812   3.82100
 Alpha virt. eigenvalues --    3.86655   3.87468   3.88305   3.89875   3.91396
 Alpha virt. eigenvalues --    3.93528   3.94156   3.95744   3.96877   4.00591
 Alpha virt. eigenvalues --    4.01842   4.03888   4.05222   4.07648   4.09236
 Alpha virt. eigenvalues --    4.12573   4.13657   4.14895   4.15622   4.18194
 Alpha virt. eigenvalues --    4.20895   4.21960   4.24221   4.25092   4.26143
 Alpha virt. eigenvalues --    4.26584   4.27231   4.27869   4.29259   4.30270
 Alpha virt. eigenvalues --    4.30563   4.31966   4.34584   4.35498   4.36540
 Alpha virt. eigenvalues --    4.36762   4.38058   4.38313   4.39606   4.40415
 Alpha virt. eigenvalues --    4.42051   4.43606   4.45353   4.46823   4.49816
 Alpha virt. eigenvalues --    4.51227   4.52847   4.55582   4.56518   4.57295
 Alpha virt. eigenvalues --    4.59692   4.60080   4.63961   4.68536   4.70151
 Alpha virt. eigenvalues --    4.72546   4.74038   4.75751   4.79366   4.83818
 Alpha virt. eigenvalues --    4.85397   4.89598   4.92543   4.95994   4.99291
 Alpha virt. eigenvalues --    5.07751   5.09553   5.16244   5.18975   5.22616
 Alpha virt. eigenvalues --    5.25330   5.27698   5.28463   5.30208   5.35779
 Alpha virt. eigenvalues --    5.48827   5.50654   5.54132   5.61363   5.82052
 Alpha virt. eigenvalues --    5.83290   5.86347   5.88459   5.93008   6.03840
 Alpha virt. eigenvalues --    6.12748   6.18262   6.22380   6.37009   6.38808
 Alpha virt. eigenvalues --    6.51688   6.61237   6.63165   6.64775   6.65575
 Alpha virt. eigenvalues --    6.68807   6.77396   6.82336   6.87123   6.89707
 Alpha virt. eigenvalues --    6.92956   6.97558   7.04829   7.08069   7.15114
 Alpha virt. eigenvalues --    7.20760   7.34204   7.43876  12.17236  22.34934
 Alpha virt. eigenvalues --   22.37812  22.41574  22.42841  22.45048  22.52989
 Alpha virt. eigenvalues --   22.58184  22.68074  22.69399  22.73660  22.82496
 Alpha virt. eigenvalues --   22.89830  22.91773  23.44693  44.08908  44.51396
 Alpha virt. eigenvalues --   44.53051
          Condensed to atoms (all electrons):
               1          2          3          4          5          6
     1  C    5.424655   0.057986   0.021697   0.005520  -0.040706   0.436930
     2  C    0.057986   5.705982   0.034197  -0.046308  -0.016667  -0.028258
     3  C    0.021697   0.034197   5.719059  -0.051527   0.057252  -0.025851
     4  C    0.005520  -0.046308  -0.051527   6.066820   0.108285   0.003634
     5  C   -0.040706  -0.016667   0.057252   0.108285   4.467433  -0.003546
     6  H    0.436930  -0.028258  -0.025851   0.003634  -0.003546   0.523422
     7  H   -0.041682   0.457542  -0.075124  -0.008955   0.001023   0.006475
     8  H    0.003430  -0.014585  -0.033265   0.387362  -0.006911  -0.000089
     9  H   -0.001480   0.014116  -0.030301   0.368367  -0.013927   0.000218
    10  O    0.156878  -0.007613   0.017679  -0.156173   0.391740  -0.042812
    11  O   -0.000590   0.001361   0.012580  -0.152378   0.733987   0.000371
    12  C    0.213734  -0.020229   0.007023  -0.006771   0.000447  -0.043708
    13  C   -0.044726   0.007911  -0.000080  -0.000191   0.000341  -0.010470
    14  C   -0.045878   0.207940  -0.024101   0.001291   0.002467  -0.008805
    15  O    0.012509  -0.084716   0.187209  -0.034682  -0.000979   0.000012
    16  Si  -0.001209   0.008352  -0.074446  -0.004216  -0.000755   0.000012
    17  C    0.000138  -0.000496  -0.003558  -0.000757   0.000000  -0.000003
    18  C    0.000132  -0.000303   0.020032   0.001616  -0.001325  -0.000005
    19  C   -0.000056   0.000009   0.000837   0.001506   0.000021   0.000000
    20  H   -0.000002   0.000021  -0.000933   0.000434  -0.000011   0.000000
    21  H   -0.000013  -0.000055   0.004859  -0.003066  -0.000064   0.000000
    22  H    0.000012  -0.000212  -0.000735  -0.000421   0.000401   0.000000
    23  H    0.000001  -0.000016   0.000014  -0.000044   0.000000   0.000000
    24  H    0.000000   0.000074   0.000809  -0.000680   0.000018   0.000000
    25  H    0.000009   0.000223  -0.000337   0.000014   0.000001   0.000000
    26  H   -0.000001  -0.000012   0.000253   0.000008  -0.000001   0.000000
    27  H    0.000010   0.000016   0.002976  -0.000008  -0.000003  -0.000001
    28  H    0.000005   0.000058  -0.002673   0.000396  -0.000004   0.000002
    29  H    0.012289  -0.075364   0.022550   0.001626  -0.000284  -0.000288
    30  H   -0.007084  -0.040104   0.012346  -0.000818   0.000053  -0.000078
    31  H   -0.004034  -0.025399  -0.039163  -0.000481   0.000179   0.004212
    32  H   -0.034665  -0.006422  -0.002136   0.000989  -0.001327   0.007147
    33  H   -0.058063   0.000229  -0.000179   0.000538   0.000426   0.000228
    34  H   -0.017273  -0.000117  -0.000181   0.000606   0.001303   0.001333
    35  H    0.002917   0.001093  -0.000090   0.000069  -0.000286   0.000727
    36  H    0.013794  -0.000786   0.000047   0.000019   0.000008  -0.000127
    37  C    0.009231  -0.017491   0.123425  -0.070365   0.004168   0.001463
    38  C   -0.028161   0.019462  -0.021062  -0.011417   0.009346  -0.006611
    39  C   -0.007875   0.003398  -0.005257  -0.001928   0.001345  -0.005169
    40  H   -0.000276  -0.014883  -0.023803   0.006758  -0.000188  -0.000163
    41  H   -0.001108   0.013216  -0.076132  -0.017264   0.000993  -0.000069
    42  H    0.001264  -0.000212  -0.008720   0.000786   0.008766   0.002234
    43  H    0.000011  -0.000148   0.000280   0.000067  -0.000139  -0.000301
    44  H    0.000600  -0.000402  -0.001915  -0.000019   0.000134  -0.000080
               7          8          9         10         11         12
     1  C   -0.041682   0.003430  -0.001480   0.156878  -0.000590   0.213734
     2  C    0.457542  -0.014585   0.014116  -0.007613   0.001361  -0.020229
     3  C   -0.075124  -0.033265  -0.030301   0.017679   0.012580   0.007023
     4  C   -0.008955   0.387362   0.368367  -0.156173  -0.152378  -0.006771
     5  C    0.001023  -0.006911  -0.013927   0.391740   0.733987   0.000447
     6  H    0.006475  -0.000089   0.000218  -0.042812   0.000371  -0.043708
     7  H    0.495814   0.002604   0.000082   0.001900  -0.000115  -0.005668
     8  H    0.002604   0.454472  -0.008937   0.001141   0.002102   0.000102
     9  H    0.000082  -0.008937   0.465996   0.006935   0.013013   0.000133
    10  O    0.001900   0.001141   0.006935   8.002792  -0.102761  -0.041829
    11  O   -0.000115   0.002102   0.013013  -0.102761   7.862746  -0.000256
    12  C   -0.005668   0.000102   0.000133  -0.041829  -0.000256   5.176545
    13  C    0.000044   0.000026  -0.000013  -0.005281  -0.000032   0.260555
    14  C   -0.031349  -0.000210  -0.000035   0.004377   0.000030  -0.001491
    15  O    0.008616   0.000006  -0.001895  -0.000387  -0.000218  -0.000493
    16  Si  -0.000127  -0.000522   0.000123  -0.000050  -0.000099   0.000014
    17  C    0.000183   0.000222  -0.000183  -0.000001  -0.000001  -0.000002
    18  C    0.000023  -0.000911  -0.003800  -0.000020  -0.000165   0.000000
    19  C   -0.000374  -0.000469   0.000221   0.000002   0.000001   0.000001
    20  H   -0.000002  -0.000039   0.000328   0.000000  -0.000002   0.000000
    21  H   -0.000012   0.000071   0.000024   0.000001   0.000002   0.000000
    22  H    0.000014   0.000287  -0.002174   0.000000   0.000016   0.000000
    23  H    0.000013   0.000023  -0.000001   0.000000   0.000000   0.000000
    24  H    0.000031   0.000352   0.000006   0.000000   0.000000   0.000000
    25  H   -0.000001   0.000002  -0.000005   0.000000   0.000000   0.000000
    26  H   -0.000003  -0.000004   0.000000   0.000000   0.000000   0.000000
    27  H   -0.000013  -0.000004   0.000001   0.000000   0.000000   0.000000
    28  H    0.000002  -0.000011  -0.000014   0.000000   0.000000   0.000000
    29  H   -0.002924   0.000023  -0.000053  -0.000159   0.000000   0.000316
    30  H   -0.006545  -0.000006   0.000012  -0.000094   0.000000  -0.004566
    31  H    0.006170   0.000011   0.000006   0.000077   0.000001  -0.000465
    32  H    0.002757   0.000007   0.000010   0.000232  -0.000089   0.418915
    33  H    0.000929  -0.000017  -0.000003   0.005010   0.000014   0.430258
    34  H    0.000079  -0.000012  -0.000006   0.008528   0.000336  -0.037702
    35  H   -0.000044   0.000000   0.000000  -0.000885   0.000004  -0.045717
    36  H   -0.000018  -0.000001   0.000000   0.000234   0.000002  -0.053064
    37  C    0.010483   0.008004  -0.001717  -0.000849   0.000555  -0.000720
    38  C   -0.000807  -0.000447  -0.002630   0.008136  -0.006671   0.001714
    39  C   -0.000117  -0.000011  -0.000139  -0.000025   0.000075   0.000825
    40  H   -0.000780  -0.000163   0.000009  -0.000068   0.000012  -0.000100
    41  H   -0.000079  -0.000193   0.001455  -0.000042  -0.000103   0.000046
    42  H    0.000017   0.000372  -0.000034  -0.008148   0.007010  -0.000193
    43  H   -0.000003  -0.000002  -0.000004   0.000154  -0.000027  -0.000009
    44  H    0.000000   0.000003  -0.000005  -0.000085   0.000003  -0.000043
              13         14         15         16         17         18
     1  C   -0.044726  -0.045878   0.012509  -0.001209   0.000138   0.000132
     2  C    0.007911   0.207940  -0.084716   0.008352  -0.000496  -0.000303
     3  C   -0.000080  -0.024101   0.187209  -0.074446  -0.003558   0.020032
     4  C   -0.000191   0.001291  -0.034682  -0.004216  -0.000757   0.001616
     5  C    0.000341   0.002467  -0.000979  -0.000755   0.000000  -0.001325
     6  H   -0.010470  -0.008805   0.000012   0.000012  -0.000003  -0.000005
     7  H    0.000044  -0.031349   0.008616  -0.000127   0.000183   0.000023
     8  H    0.000026  -0.000210   0.000006  -0.000522   0.000222  -0.000911
     9  H   -0.000013  -0.000035  -0.001895   0.000123  -0.000183  -0.003800
    10  O   -0.005281   0.004377  -0.000387  -0.000050  -0.000001  -0.000020
    11  O   -0.000032   0.000030  -0.000218  -0.000099  -0.000001  -0.000165
    12  C    0.260555  -0.001491  -0.000493   0.000014  -0.000002   0.000000
    13  C    5.052048   0.000016   0.000016  -0.000002   0.000000   0.000000
    14  C    0.000016   5.154696  -0.016595   0.001678  -0.000244  -0.000245
    15  O    0.000016  -0.016595   8.045550   0.391038  -0.023985  -0.028272
    16  Si  -0.000002   0.001678   0.391038  12.395012   0.345830   0.331332
    17  C    0.000000  -0.000244  -0.023985   0.345830   5.173223  -0.047219
    18  C    0.000000  -0.000245  -0.028272   0.331332  -0.047219   5.202980
    19  C    0.000000   0.000070  -0.022512   0.393943  -0.053842  -0.045290
    20  H    0.000000   0.000002   0.001156  -0.020417   0.000803   0.379978
    21  H    0.000000   0.000018   0.000457  -0.038735   0.001781   0.393302
    22  H    0.000000   0.000007   0.000293  -0.040480   0.003455   0.395461
    23  H    0.000000  -0.000004   0.001235  -0.041165   0.003794   0.002752
    24  H    0.000000   0.000015   0.001003  -0.031302   0.003370   0.000640
    25  H    0.000000  -0.000166   0.000874  -0.032173   0.000583   0.003169
    26  H    0.000000   0.000003   0.001194  -0.028392   0.382848   0.001947
    27  H    0.000000  -0.000296  -0.000774  -0.039797   0.395044   0.003236
    28  H    0.000000   0.000064   0.001344  -0.029120   0.387673   0.000904
    29  H    0.000034   0.425355   0.007218  -0.002167  -0.000349   0.000215
    30  H    0.000199   0.423102   0.000059   0.000037  -0.000014   0.000000
    31  H    0.000065   0.416393   0.001075  -0.000205   0.000055   0.000009
    32  H   -0.035865  -0.000348  -0.000006   0.000007   0.000000   0.000000
    33  H   -0.037377  -0.001503  -0.000047  -0.000003   0.000000   0.000000
    34  H    0.421696  -0.000077   0.000000   0.000000   0.000000   0.000000
    35  H    0.409307  -0.000108   0.000000   0.000000   0.000000   0.000000
    36  H    0.422713  -0.000009   0.000000   0.000000   0.000000   0.000000
    37  C   -0.000039   0.012650  -0.057142   0.017406   0.005347  -0.016095
    38  C    0.000101  -0.008966   0.006600   0.001115   0.000483   0.000365
    39  C    0.000006  -0.000223  -0.000349  -0.000111   0.000133  -0.000033
    40  H    0.000001  -0.004684   0.002218  -0.003481  -0.004126   0.000903
    41  H   -0.000001  -0.000195  -0.006038   0.010079  -0.004997   0.000002
    42  H   -0.000074  -0.000208  -0.000091   0.000193  -0.000047  -0.000007
    43  H    0.000007   0.000032   0.000007   0.000002   0.000002   0.000000
    44  H   -0.000005  -0.000146  -0.000020   0.000045   0.000002  -0.000001
              19         20         21         22         23         24
     1  C   -0.000056  -0.000002  -0.000013   0.000012   0.000001   0.000000
     2  C    0.000009   0.000021  -0.000055  -0.000212  -0.000016   0.000074
     3  C    0.000837  -0.000933   0.004859  -0.000735   0.000014   0.000809
     4  C    0.001506   0.000434  -0.003066  -0.000421  -0.000044  -0.000680
     5  C    0.000021  -0.000011  -0.000064   0.000401   0.000000   0.000018
     6  H    0.000000   0.000000   0.000000   0.000000   0.000000   0.000000
     7  H   -0.000374  -0.000002  -0.000012   0.000014   0.000013   0.000031
     8  H   -0.000469  -0.000039   0.000071   0.000287   0.000023   0.000352
     9  H    0.000221   0.000328   0.000024  -0.002174  -0.000001   0.000006
    10  O    0.000002   0.000000   0.000001   0.000000   0.000000   0.000000
    11  O    0.000001  -0.000002   0.000002   0.000016   0.000000   0.000000
    12  C    0.000001   0.000000   0.000000   0.000000   0.000000   0.000000
    13  C    0.000000   0.000000   0.000000   0.000000   0.000000   0.000000
    14  C    0.000070   0.000002   0.000018   0.000007  -0.000004   0.000015
    15  O   -0.022512   0.001156   0.000457   0.000293   0.001235   0.001003
    16  Si   0.393943  -0.020417  -0.038735  -0.040480  -0.041165  -0.031302
    17  C   -0.053842   0.000803   0.001781   0.003455   0.003794   0.003370
    18  C   -0.045290   0.379978   0.393302   0.395461   0.002752   0.000640
    19  C    5.128754   0.000447   0.003208   0.000750   0.388548   0.388404
    20  H    0.000447   0.495036  -0.014219  -0.014780   0.000147   0.000239
    21  H    0.003208  -0.014219   0.506249  -0.020311  -0.000186  -0.000135
    22  H    0.000750  -0.014780  -0.020311   0.505131   0.000309   0.000927
    23  H    0.388548   0.000147  -0.000186   0.000309   0.528860  -0.018877
    24  H    0.388404   0.000239  -0.000135   0.000927  -0.018877   0.517039
    25  H    0.389205  -0.000145  -0.000095  -0.000185  -0.018548  -0.018093
    26  H    0.002518   0.000208   0.000225  -0.000180  -0.000117  -0.000159
    27  H    0.001603  -0.000115  -0.000209  -0.000092   0.000281  -0.000180
    28  H    0.002745   0.000175   0.000540  -0.000159  -0.000135  -0.000099
    29  H    0.000030  -0.000004  -0.000006  -0.000007   0.000001  -0.000005
    30  H    0.000005   0.000000   0.000000   0.000000   0.000000   0.000001
    31  H   -0.000007   0.000000  -0.000001   0.000000   0.000000   0.000000
    32  H    0.000000   0.000000   0.000000   0.000000   0.000000   0.000000
    33  H    0.000000   0.000000   0.000000   0.000000   0.000000   0.000000
    34  H    0.000000   0.000000   0.000000   0.000000   0.000000   0.000000
    35  H    0.000000   0.000000   0.000000   0.000000   0.000000   0.000000
    36  H    0.000000   0.000000   0.000000   0.000000   0.000000   0.000000
    37  C   -0.001668   0.000406  -0.004931   0.001015   0.000045   0.000094
    38  C   -0.000017  -0.000014  -0.000076   0.000003  -0.000002   0.000001
    39  C    0.000000   0.000000   0.000000   0.000003   0.000000   0.000000
    40  H    0.000173  -0.000017   0.000194  -0.000050  -0.000004  -0.000009
    41  H    0.000053  -0.000002   0.003764  -0.000355   0.000002   0.000008
    42  H   -0.000001  -0.000001   0.000065  -0.000007   0.000000   0.000000
    43  H    0.000000   0.000000   0.000000   0.000000   0.000000   0.000000
    44  H    0.000000   0.000000   0.000000   0.000000   0.000000   0.000000
              25         26         27         28         29         30
     1  C    0.000009  -0.000001   0.000010   0.000005   0.012289  -0.007084
     2  C    0.000223  -0.000012   0.000016   0.000058  -0.075364  -0.040104
     3  C   -0.000337   0.000253   0.002976  -0.002673   0.022550   0.012346
     4  C    0.000014   0.000008  -0.000008   0.000396   0.001626  -0.000818
     5  C    0.000001  -0.000001  -0.000003  -0.000004  -0.000284   0.000053
     6  H    0.000000   0.000000  -0.000001   0.000002  -0.000288  -0.000078
     7  H   -0.000001  -0.000003  -0.000013   0.000002  -0.002924  -0.006545
     8  H    0.000002  -0.000004  -0.000004  -0.000011   0.000023  -0.000006
     9  H   -0.000005   0.000000   0.000001  -0.000014  -0.000053   0.000012
    10  O    0.000000   0.000000   0.000000   0.000000  -0.000159  -0.000094
    11  O    0.000000   0.000000   0.000000   0.000000   0.000000   0.000000
    12  C    0.000000   0.000000   0.000000   0.000000   0.000316  -0.004566
    13  C    0.000000   0.000000   0.000000   0.000000   0.000034   0.000199
    14  C   -0.000166   0.000003  -0.000296   0.000064   0.425355   0.423102
    15  O    0.000874   0.001194  -0.000774   0.001344   0.007218   0.000059
    16  Si  -0.032173  -0.028392  -0.039797  -0.029120  -0.002167   0.000037
    17  C    0.000583   0.382848   0.395044   0.387673  -0.000349  -0.000014
    18  C    0.003169   0.001947   0.003236   0.000904   0.000215   0.000000
    19  C    0.389205   0.002518   0.001603   0.002745   0.000030   0.000005
    20  H   -0.000145   0.000208  -0.000115   0.000175  -0.000004   0.000000
    21  H   -0.000095   0.000225  -0.000209   0.000540  -0.000006   0.000000
    22  H   -0.000185  -0.000180  -0.000092  -0.000159  -0.000007   0.000000
    23  H   -0.018548  -0.000117   0.000281  -0.000135   0.000001   0.000000
    24  H   -0.018093  -0.000159  -0.000180  -0.000099  -0.000005   0.000001
    25  H    0.516642   0.000264   0.000875  -0.000134   0.000377   0.000002
    26  H    0.000264   0.510449  -0.016474  -0.017952   0.000025   0.000000
    27  H    0.000875  -0.016474   0.510328  -0.018916   0.000762   0.000000
    28  H   -0.000134  -0.017952  -0.018916   0.512258  -0.000014   0.000001
    29  H    0.000377   0.000025   0.000762  -0.000014   0.493085  -0.019492
    30  H    0.000002   0.000000   0.000000   0.000001  -0.019492   0.504669
    31  H    0.000001   0.000000   0.000016  -0.000008  -0.024872  -0.023893
    32  H    0.000000   0.000000   0.000000   0.000000  -0.000108   0.000440
    33  H    0.000000   0.000000   0.000000   0.000000   0.000351  -0.003530
    34  H    0.000000   0.000000   0.000000   0.000000   0.000001  -0.000033
    35  H    0.000000   0.000000   0.000000   0.000000  -0.000003   0.000088
    36  H    0.000000   0.000000   0.000000   0.000000  -0.000001   0.000011
    37  C    0.000168  -0.000328  -0.002563   0.001767  -0.010875  -0.000769
    38  C    0.000004  -0.000002  -0.000112   0.000675   0.000337   0.000432
    39  C    0.000000  -0.000002  -0.000001   0.000115   0.000043   0.000043
    40  H   -0.000004   0.000296   0.000395  -0.002916   0.001112   0.000530
    41  H   -0.000011   0.000026   0.000149   0.000682  -0.000148   0.000014
    42  H    0.000000   0.000001   0.000001   0.000004   0.000008   0.000011
    43  H    0.000000   0.000000   0.000000   0.000000   0.000000   0.000000
    44  H    0.000000   0.000000  -0.000001   0.000019   0.000005   0.000015
              31         32         33         34         35         36
     1  C   -0.004034  -0.034665  -0.058063  -0.017273   0.002917   0.013794
     2  C   -0.025399  -0.006422   0.000229  -0.000117   0.001093  -0.000786
     3  C   -0.039163  -0.002136  -0.000179  -0.000181  -0.000090   0.000047
     4  C   -0.000481   0.000989   0.000538   0.000606   0.000069   0.000019
     5  C    0.000179  -0.001327   0.000426   0.001303  -0.000286   0.000008
     6  H    0.004212   0.007147   0.000228   0.001333   0.000727  -0.000127
     7  H    0.006170   0.002757   0.000929   0.000079  -0.000044  -0.000018
     8  H    0.000011   0.000007  -0.000017  -0.000012   0.000000  -0.000001
     9  H    0.000006   0.000010  -0.000003  -0.000006   0.000000   0.000000
    10  O    0.000077   0.000232   0.005010   0.008528  -0.000885   0.000234
    11  O    0.000001  -0.000089   0.000014   0.000336   0.000004   0.000002
    12  C   -0.000465   0.418915   0.430258  -0.037702  -0.045717  -0.053064
    13  C    0.000065  -0.035865  -0.037377   0.421696   0.409307   0.422713
    14  C    0.416393  -0.000348  -0.001503  -0.000077  -0.000108  -0.000009
    15  O    0.001075  -0.000006  -0.000047   0.000000   0.000000   0.000000
    16  Si  -0.000205   0.000007  -0.000003   0.000000   0.000000   0.000000
    17  C    0.000055   0.000000   0.000000   0.000000   0.000000   0.000000
    18  C    0.000009   0.000000   0.000000   0.000000   0.000000   0.000000
    19  C   -0.000007   0.000000   0.000000   0.000000   0.000000   0.000000
    20  H    0.000000   0.000000   0.000000   0.000000   0.000000   0.000000
    21  H   -0.000001   0.000000   0.000000   0.000000   0.000000   0.000000
    22  H    0.000000   0.000000   0.000000   0.000000   0.000000   0.000000
    23  H    0.000000   0.000000   0.000000   0.000000   0.000000   0.000000
    24  H    0.000000   0.000000   0.000000   0.000000   0.000000   0.000000
    25  H    0.000001   0.000000   0.000000   0.000000   0.000000   0.000000
    26  H    0.000000   0.000000   0.000000   0.000000   0.000000   0.000000
    27  H    0.000016   0.000000   0.000000   0.000000   0.000000   0.000000
    28  H   -0.000008   0.000000   0.000000   0.000000   0.000000   0.000000
    29  H   -0.024872  -0.000108   0.000351   0.000001  -0.000003  -0.000001
    30  H   -0.023893   0.000440  -0.003530  -0.000033   0.000088   0.000011
    31  H    0.517113   0.000128  -0.000468   0.000001   0.000020  -0.000002
    32  H    0.000128   0.524565  -0.024366  -0.003117   0.006009  -0.004046
    33  H   -0.000468  -0.024366   0.546734   0.006722  -0.003778  -0.004591
    34  H    0.000001  -0.003117   0.006722   0.509992  -0.025903  -0.023708
    35  H    0.000020   0.006009  -0.003778  -0.025903   0.540981  -0.024733
    36  H   -0.000002  -0.004046  -0.004591  -0.023708  -0.024733   0.525165
    37  C    0.017177  -0.000058   0.000010   0.000004  -0.000065   0.000001
    38  C   -0.001110  -0.000070  -0.000056  -0.000037   0.000140   0.000009
    39  C    0.000979  -0.000028  -0.000002   0.000003   0.000097   0.000002
    40  H   -0.008376  -0.000003   0.000022   0.000000   0.000000   0.000000
    41  H    0.000472   0.000000  -0.000002   0.000000   0.000001   0.000000
    42  H   -0.000093   0.000017   0.000027   0.000016   0.000009  -0.000001
    43  H   -0.000034   0.000000  -0.000003  -0.000001  -0.000002   0.000000
    44  H    0.000182   0.000001   0.000011   0.000001   0.000000   0.000000
              37         38         39         40         41         42
     1  C    0.009231  -0.028161  -0.007875  -0.000276  -0.001108   0.001264
     2  C   -0.017491   0.019462   0.003398  -0.014883   0.013216  -0.000212
     3  C    0.123425  -0.021062  -0.005257  -0.023803  -0.076132  -0.008720
     4  C   -0.070365  -0.011417  -0.001928   0.006758  -0.017264   0.000786
     5  C    0.004168   0.009346   0.001345  -0.000188   0.000993   0.008766
     6  H    0.001463  -0.006611  -0.005169  -0.000163  -0.000069   0.002234
     7  H    0.010483  -0.000807  -0.000117  -0.000780  -0.000079   0.000017
     8  H    0.008004  -0.000447  -0.000011  -0.000163  -0.000193   0.000372
     9  H   -0.001717  -0.002630  -0.000139   0.000009   0.001455  -0.000034
    10  O   -0.000849   0.008136  -0.000025  -0.000068  -0.000042  -0.008148
    11  O    0.000555  -0.006671   0.000075   0.000012  -0.000103   0.007010
    12  C   -0.000720   0.001714   0.000825  -0.000100   0.000046  -0.000193
    13  C   -0.000039   0.000101   0.000006   0.000001  -0.000001  -0.000074
    14  C    0.012650  -0.008966  -0.000223  -0.004684  -0.000195  -0.000208
    15  O   -0.057142   0.006600  -0.000349   0.002218  -0.006038  -0.000091
    16  Si   0.017406   0.001115  -0.000111  -0.003481   0.010079   0.000193
    17  C    0.005347   0.000483   0.000133  -0.004126  -0.004997  -0.000047
    18  C   -0.016095   0.000365  -0.000033   0.000903   0.000002  -0.000007
    19  C   -0.001668  -0.000017   0.000000   0.000173   0.000053  -0.000001
    20  H    0.000406  -0.000014   0.000000  -0.000017  -0.000002  -0.000001
    21  H   -0.004931  -0.000076   0.000000   0.000194   0.003764   0.000065
    22  H    0.001015   0.000003   0.000003  -0.000050  -0.000355  -0.000007
    23  H    0.000045  -0.000002   0.000000  -0.000004   0.000002   0.000000
    24  H    0.000094   0.000001   0.000000  -0.000009   0.000008   0.000000
    25  H    0.000168   0.000004   0.000000  -0.000004  -0.000011   0.000000
    26  H   -0.000328  -0.000002  -0.000002   0.000296   0.000026   0.000001
    27  H   -0.002563  -0.000112  -0.000001   0.000395   0.000149   0.000001
    28  H    0.001767   0.000675   0.000115  -0.002916   0.000682   0.000004
    29  H   -0.010875   0.000337   0.000043   0.001112  -0.000148   0.000008
    30  H   -0.000769   0.000432   0.000043   0.000530   0.000014   0.000011
    31  H    0.017177  -0.001110   0.000979  -0.008376   0.000472  -0.000093
    32  H   -0.000058  -0.000070  -0.000028  -0.000003   0.000000   0.000017
    33  H    0.000010  -0.000056  -0.000002   0.000022  -0.000002   0.000027
    34  H    0.000004  -0.000037   0.000003   0.000000   0.000000   0.000016
    35  H   -0.000065   0.000140   0.000097   0.000000   0.000001   0.000009
    36  H    0.000001   0.000009   0.000002   0.000000   0.000000  -0.000001
    37  C    5.442043   0.171356  -0.037953   0.422777   0.447503  -0.039992
    38  C    0.171356   5.273911   0.523410  -0.036355  -0.030848   0.401447
    39  C   -0.037953   0.523410   5.019955   0.002284  -0.005000  -0.018178
    40  H    0.422777  -0.036355   0.002284   0.461103  -0.016714   0.001962
    41  H    0.447503  -0.030848  -0.005000  -0.016714   0.494402  -0.001063
    42  H   -0.039992   0.401447  -0.018178   0.001962  -0.001063   0.474133
    43  H    0.005953  -0.050397   0.425889   0.000231  -0.000291  -0.006144
    44  H    0.008951  -0.073283   0.437773  -0.000672   0.000284   0.003778
              43         44
     1  C    0.000011   0.000600
     2  C   -0.000148  -0.000402
     3  C    0.000280  -0.001915
     4  C    0.000067  -0.000019
     5  C   -0.000139   0.000134
     6  H   -0.000301  -0.000080
     7  H   -0.000003   0.000000
     8  H   -0.000002   0.000003
     9  H   -0.000004  -0.000005
    10  O    0.000154  -0.000085
    11  O   -0.000027   0.000003
    12  C   -0.000009  -0.000043
    13  C    0.000007  -0.000005
    14  C    0.000032  -0.000146
    15  O    0.000007  -0.000020
    16  Si   0.000002   0.000045
    17  C    0.000002   0.000002
    18  C    0.000000  -0.000001
    19  C    0.000000   0.000000
    20  H    0.000000   0.000000
    21  H    0.000000   0.000000
    22  H    0.000000   0.000000
    23  H    0.000000   0.000000
    24  H    0.000000   0.000000
    25  H    0.000000   0.000000
    26  H    0.000000   0.000000
    27  H    0.000000  -0.000001
    28  H    0.000000   0.000019
    29  H    0.000000   0.000005
    30  H    0.000000   0.000015
    31  H   -0.000034   0.000182
    32  H    0.000000   0.000001
    33  H   -0.000003   0.000011
    34  H   -0.000001   0.000001
    35  H   -0.000002   0.000000
    36  H    0.000000   0.000000
    37  C    0.005953   0.008951
    38  C   -0.050397  -0.073283
    39  C    0.425889   0.437773
    40  H    0.000231  -0.000672
    41  H   -0.000291   0.000284
    42  H   -0.006144   0.003778
    43  H    0.492151  -0.022058
    44  H   -0.022058   0.499216
 Mulliken charges:
               1
     1  C   -0.038870
     2  C   -0.132390
     3  C    0.256448
     4  C   -0.388245
     5  C    0.296989
     6  H    0.188014
     7  H    0.179939
     8  H    0.206189
     9  H    0.196300
    10  O   -0.238529
    11  O   -0.370713
    12  C   -0.247603
    13  C   -0.440930
    14  C   -0.504321
    15  O   -0.390486
    16  Si   0.492756
    17  C   -0.565147
    18  C   -0.595307
    19  C   -0.578819
    20  H    0.171323
    21  H    0.167355
    22  H    0.172067
    23  H    0.153075
    24  H    0.156509
    25  H    0.157485
    26  H    0.163363
    27  H    0.163863
    28  H    0.162725
    29  H    0.171360
    30  H    0.164957
    31  H    0.164265
    32  H    0.151429
    33  H    0.142481
    34  H    0.157545
    35  H    0.140152
    36  H    0.149083
    37  C   -0.448381
    38  C   -0.139896
    39  C   -0.333979
    40  H    0.216854
    41  H    0.187505
    42  H    0.181093
    43  H    0.154779
    44  H    0.147710
 Sum of Mulliken charges =   0.00000
 Mulliken charges with hydrogens summed into heavy atoms:
               1
     1  C    0.149145
     2  C    0.047550
     3  C    0.256448
     4  C    0.014243
     5  C    0.296989
    10  O   -0.238529
    11  O   -0.370713
    12  C    0.046307
    13  C    0.005849
    14  C   -0.003739
    15  O   -0.390486
    16  Si   0.492756
    17  C   -0.075196
    18  C   -0.084562
    19  C   -0.111749
    37  C   -0.044022
    38  C    0.041197
    39  C   -0.031489
 Electronic spatial extent (au):  <R**2>=           5713.9013
 Charge=              0.0000 electrons
 Dipole moment (field-independent basis, Debye):
    X=             -2.8315    Y=             -4.1217    Z=              2.3934  Tot=              5.5438
 Quadrupole moment (field-independent basis, Debye-Ang):
   XX=           -119.9112   YY=           -130.2257   ZZ=           -119.5696
   XY=            -13.8584   XZ=              6.2338   YZ=              5.7219
 Traceless Quadrupole moment (field-independent basis, Debye-Ang):
   XX=              3.3243   YY=             -6.9902   ZZ=              3.6659
   XY=            -13.8584   XZ=              6.2338   YZ=              5.7219
 Octapole moment (field-independent basis, Debye-Ang**2):
  XXX=            -29.0707  YYY=            -39.2455  ZZZ=             -5.6175  XYY=            -14.8454
  XXY=            -24.5102  XXZ=             10.3195  XZZ=              8.9568  YZZ=             -8.9037
  YYZ=             18.5062  XYZ=             21.2214
 Hexadecapole moment (field-independent basis, Debye-Ang**3):
 XXXX=          -4949.9770 YYYY=          -1534.9190 ZZZZ=          -1334.9943 XXXY=            -77.4246
 XXXZ=             19.3721 YYYX=            -58.6359 YYYZ=             50.7118 ZZZX=             33.4860
 ZZZY=            -16.2206 XXYY=          -1127.1263 XXZZ=          -1085.8935 YYZZ=           -506.1851
 XXYZ=             40.2234 YYXZ=             30.7768 ZZXY=            -15.0026
 N-N= 1.618980639747D+03 E-N=-5.731164256635D+03  KE= 1.059311917888D+03
 1\1\GINC-CPU-E-98\SP\RM062X\def2TZVP\C14H26O3Si1\KE291\26-Jun-2019\0\\
 # m062x/def2tzvp int=ultrafine scrf=(solvent=chloroform)\\IP1_2ginp010
 \\0,1\C,0,2.301764,-0.601861,-0.109884\C,0,0.855635,-1.117193,-0.20628
 6\C,0,-0.208977,-0.003176,0.000239\C,0,0.113786,1.12707,-0.990747\C,0,
 1.557794,1.581973,-1.04688\H,0,2.555064,-0.436541,0.942605\H,0,0.68982
 7,-1.457927,-1.237246\H,0,-0.127216,0.757755,-1.995224\H,0,-0.501032,2
 .013904,-0.822938\O,0,2.523885,0.69299,-0.754111\O,0,1.876504,2.695075
 ,-1.414134\C,0,3.326893,-1.549321,-0.738542\C,0,4.778025,-1.091888,-0.
 561679\C,0,0.644976,-2.318447,0.728518\O,0,-1.445888,-0.603868,-0.3920
 41\Si,0,-3.078042,-0.207552,-0.271141\C,0,-3.751931,-0.623787,1.442392
 \C,0,-3.41472,1.607166,-0.668574\C,0,-3.89981,-1.309249,-1.555309\H,0,
 -4.495642,1.789936,-0.647461\H,0,-2.956527,2.29415,0.05048\H,0,-3.0549
 03,1.87426,-1.667569\H,0,-4.987238,-1.174786,-1.544716\H,0,-3.542555,-
 1.077875,-2.564123\H,0,-3.692186,-2.366508,-1.360117\H,0,-4.841695,-0.
 504378,1.456931\H,0,-3.529735,-1.662341,1.710568\H,0,-3.338931,0.02042
 8,2.224738\H,0,-0.412096,-2.591302,0.746584\H,0,1.207046,-3.191235,0.3
 8776\H,0,0.962495,-2.097403,1.752857\H,0,3.089423,-1.654858,-1.804692\
 H,0,3.200082,-2.53876,-0.287223\H,0,4.942078,-0.112999,-1.018603\H,0,5
 .041194,-1.016646,0.499355\H,0,5.465827,-1.804973,-1.026133\C,0,-0.343
 992,0.518397,1.458996\C,0,0.812378,1.281735,2.050176\C,0,1.415841,0.97
 21,3.199606\H,0,-0.60253,-0.324261,2.106944\H,0,-1.213085,1.190422,1.4
 58492\H,0,1.130216,2.179357,1.520303\H,0,2.217836,1.583009,3.602804\H,
 0,1.12489,0.100609,3.781719\\Version=ES64L-G09RevD.01\State=1-A\HF=-10
 64.3392348\RMSD=1.530e-09\Dipole=-1.11399,-1.621594,0.9416521\Quadrupo
 le=2.4715546,-5.1970249,2.7254703,-10.3033464,4.6346745,4.254062\PG=C0
 1 [X(C14H26O3Si1)]\\@


 Spring appears, and we are once more children.
                                  -- Anonymous
 Job cpu time:       0 days  2 hours 18 minutes 52.8 seconds.
 File lengths (MBytes):  RWF=    410 Int=      0 D2E=      0 Chk=     21 Scr=      1
 Normal termination of Gaussian 09 at Wed Jun 26 13:53:53 2019.
