 Entering Gaussian System, Link 0=/usr/local/Cluster-Apps/gaussian/g09/g09
 Initial command:
 /usr/local/Cluster-Apps/gaussian/g09/l1.exe "/home/ke291/rds/hpc-work/26Jun1304IP1NMR/Gau-42310.inp" -scrdir="/home/ke291/rds/hpc-work/26Jun1304IP1NMR/"
 Entering Link 1 = /usr/local/Cluster-Apps/gaussian/g09/l1.exe PID=     42316.
  
 Copyright (c) 1988,1990,1992,1993,1995,1998,2003,2009,2013,
            Gaussian, Inc.  All Rights Reserved.
  
 This is part of the Gaussian(R) 09 program.  It is based on
 the Gaussian(R) 03 system (copyright 2003, Gaussian, Inc.),
 the Gaussian(R) 98 system (copyright 1998, Gaussian, Inc.),
 the Gaussian(R) 94 system (copyright 1995, Gaussian, Inc.),
 the Gaussian 92(TM) system (copyright 1992, Gaussian, Inc.),
 the Gaussian 90(TM) system (copyright 1990, Gaussian, Inc.),
 the Gaussian 88(TM) system (copyright 1988, Gaussian, Inc.),
 the Gaussian 86(TM) system (copyright 1986, Carnegie Mellon
 University), and the Gaussian 82(TM) system (copyright 1983,
 Carnegie Mellon University). Gaussian is a federally registered
 trademark of Gaussian, Inc.
  
 This software contains proprietary and confidential information,
 including trade secrets, belonging to Gaussian, Inc.
  
 This software is provided under written license and may be
 used, copied, transmitted, or stored only in accord with that
 written license.
  
 The following legend is applicable only to US Government
 contracts under FAR:
  
                    RESTRICTED RIGHTS LEGEND
  
 Use, reproduction and disclosure by the US Government is
 subject to restrictions as set forth in subparagraphs (a)
 and (c) of the Commercial Computer Software - Restricted
 Rights clause in FAR 52.227-19.
  
 Gaussian, Inc.
 340 Quinnipiac St., Bldg. 40, Wallingford CT 06492
  
  
 ---------------------------------------------------------------
 Warning -- This program may not be used in any manner that
 competes with the business of Gaussian, Inc. or will provide
 assistance to any competitor of Gaussian, Inc.  The licensee
 of this program is prohibited from giving any competitor of
 Gaussian, Inc. access to this program.  By using this program,
 the user acknowledges that Gaussian, Inc. is engaged in the
 business of creating and licensing software in the field of
 computational chemistry and represents and warrants to the
 licensee that it is not a competitor of Gaussian, Inc. and that
 it will not use this program in any manner prohibited above.
 ---------------------------------------------------------------
  

 Cite this work as:
 Gaussian 09, Revision D.01,
 M. J. Frisch, G. W. Trucks, H. B. Schlegel, G. E. Scuseria, 
 M. A. Robb, J. R. Cheeseman, G. Scalmani, V. Barone, B. Mennucci, 
 G. A. Petersson, H. Nakatsuji, M. Caricato, X. Li, H. P. Hratchian, 
 A. F. Izmaylov, J. Bloino, G. Zheng, J. L. Sonnenberg, M. Hada, 
 M. Ehara, K. Toyota, R. Fukuda, J. Hasegawa, M. Ishida, T. Nakajima, 
 Y. Honda, O. Kitao, H. Nakai, T. Vreven, J. A. Montgomery, Jr., 
 J. E. Peralta, F. Ogliaro, M. Bearpark, J. J. Heyd, E. Brothers, 
 K. N. Kudin, V. N. Staroverov, T. Keith, R. Kobayashi, J. Normand, 
 K. Raghavachari, A. Rendell, J. C. Burant, S. S. Iyengar, J. Tomasi, 
 M. Cossi, N. Rega, J. M. Millam, M. Klene, J. E. Knox, J. B. Cross, 
 V. Bakken, C. Adamo, J. Jaramillo, R. Gomperts, R. E. Stratmann, 
 O. Yazyev, A. J. Austin, R. Cammi, C. Pomelli, J. W. Ochterski, 
 R. L. Martin, K. Morokuma, V. G. Zakrzewski, G. A. Voth, 
 P. Salvador, J. J. Dannenberg, S. Dapprich, A. D. Daniels, 
 O. Farkas, J. B. Foresman, J. V. Ortiz, J. Cioslowski, 
 and D. J. Fox, Gaussian, Inc., Wallingford CT, 2013.
 
 ******************************************
 Gaussian 09:  ES64L-G09RevD.01 24-Apr-2013
                26-Jun-2019 
 ******************************************
 %nprocshared=4
 Will use up to    4 processors via shared memory.
 %mem=6000MB
 %chk=IP1_2ginp011.chk
 --------------------------------------------------------
 # m062x/def2tzvp int=ultrafine scrf=(solvent=chloroform)
 --------------------------------------------------------
 1/38=1/1;
 2/12=2,17=6,18=5,40=1/2;
 3/5=44,7=101,11=2,16=1,25=1,30=1,70=2201,72=7,74=-55,75=-5/1,2,3;
 4//1;
 5/5=2,38=5,53=7/2;
 6/7=2,8=2,9=2,10=2,28=1/1;
 99/5=1,9=1/99;
 ------------
 IP1_2ginp011
 ------------
 Symbolic Z-matrix:
 Charge =  0 Multiplicity = 1
 C                     2.46661   0.38913   0.07026 
 C                     1.13439   0.32561   0.82577 
 C                    -0.02747  -0.00962  -0.15289 
 C                     0.30233  -1.40458  -0.71555 
 C                     1.70694  -1.56733  -1.26816 
 H                     2.45558   1.26524  -0.58956 
 H                     1.16805  -0.53101   1.51079 
 H                     0.19662  -2.13681   0.09389 
 H                    -0.38496  -1.70491  -1.50862 
 O                     2.6855   -0.7592   -0.81276 
 O                     1.99111  -2.43166  -2.07157 
 C                     3.7237    0.47269   0.94405 
 C                     3.9017   -0.67168   1.94629 
 C                     0.92423   1.58251   1.68278 
 O                    -1.20861  -0.07356   0.6403 
 Si                   -2.8311   -0.46492   0.41381 
 C                    -3.43159  -0.89109   2.14464 
 C                    -3.79885   1.01225  -0.25097 
 C                    -3.09185  -1.9359   -0.74036 
 H                    -3.69255   1.88697   0.39937 
 H                    -3.48206   1.30167  -1.25801 
 H                    -4.86591   0.76498  -0.30012 
 H                    -2.54779  -2.82532  -0.40721 
 H                    -4.15863  -2.18927  -0.75837 
 H                    -2.79386  -1.7213   -1.77202 
 H                    -4.50499  -1.11115   2.14207 
 H                    -2.90967  -1.76898   2.53945 
 H                    -3.26243  -0.06064   2.83801 
 H                    -0.09186   1.58876   2.08137 
 H                     1.61598   1.59081   2.52998 
 H                     1.0745    2.50148   1.1116 
 H                     3.71351   1.43695   1.46331 
 H                     4.58205   0.5001    0.26362 
 H                     4.86684  -0.58377   2.45384 
 H                     3.12491  -0.66959   2.71738 
 H                     3.87703  -1.64203   1.44152 
 C                    -0.20988   0.97305  -1.34195 
 C                    -0.50966   2.41081  -1.01441 
 C                     0.06628   3.45571  -1.61199 
 H                    -1.04112   0.56827  -1.93779 
 H                     0.66793   0.92511  -1.99711 
 H                    -1.2786    2.58357  -0.26475 
 H                    -0.21331   4.47631  -1.3678 
 H                     0.83508   3.32946  -2.37117 
 
                          Input orientation:                          
 ---------------------------------------------------------------------
 Center     Atomic      Atomic             Coordinates (Angstroms)
 Number     Number       Type             X           Y           Z
 ---------------------------------------------------------------------
      1          6           0        2.466609    0.389133    0.070259
      2          6           0        1.134387    0.325612    0.825774
      3          6           0       -0.027469   -0.009618   -0.152890
      4          6           0        0.302328   -1.404578   -0.715548
      5          6           0        1.706941   -1.567333   -1.268155
      6          1           0        2.455579    1.265243   -0.589562
      7          1           0        1.168054   -0.531010    1.510789
      8          1           0        0.196623   -2.136814    0.093892
      9          1           0       -0.384955   -1.704914   -1.508616
     10          8           0        2.685496   -0.759199   -0.812758
     11          8           0        1.991106   -2.431663   -2.071566
     12          6           0        3.723701    0.472692    0.944050
     13          6           0        3.901699   -0.671680    1.946289
     14          6           0        0.924226    1.582510    1.682778
     15          8           0       -1.208606   -0.073557    0.640298
     16         14           0       -2.831104   -0.464920    0.413812
     17          6           0       -3.431593   -0.891094    2.144639
     18          6           0       -3.798854    1.012245   -0.250974
     19          6           0       -3.091850   -1.935902   -0.740355
     20          1           0       -3.692554    1.886968    0.399372
     21          1           0       -3.482062    1.301668   -1.258007
     22          1           0       -4.865911    0.764980   -0.300120
     23          1           0       -2.547793   -2.825319   -0.407214
     24          1           0       -4.158627   -2.189265   -0.758367
     25          1           0       -2.793856   -1.721303   -1.772017
     26          1           0       -4.504992   -1.111148    2.142073
     27          1           0       -2.909670   -1.768975    2.539452
     28          1           0       -3.262430   -0.060642    2.838005
     29          1           0       -0.091862    1.588760    2.081374
     30          1           0        1.615978    1.590805    2.529985
     31          1           0        1.074496    2.501479    1.111605
     32          1           0        3.713506    1.436946    1.463313
     33          1           0        4.582046    0.500096    0.263615
     34          1           0        4.866842   -0.583773    2.453844
     35          1           0        3.124907   -0.669591    2.717381
     36          1           0        3.877028   -1.642028    1.441520
     37          6           0       -0.209882    0.973049   -1.341945
     38          6           0       -0.509660    2.410814   -1.014411
     39          6           0        0.066276    3.455707   -1.611992
     40          1           0       -1.041118    0.568272   -1.937785
     41          1           0        0.667931    0.925107   -1.997108
     42          1           0       -1.278600    2.583572   -0.264751
     43          1           0       -0.213313    4.476314   -1.367804
     44          1           0        0.835082    3.329459   -2.371166
 ---------------------------------------------------------------------
                    Distance matrix (angstroms):
                    1          2          3          4          5
     1  C    0.000000
     2  C    1.532858   0.000000
     3  C    2.535591   1.555658   0.000000
     4  C    2.918733   2.462022   1.539891   0.000000
     5  C    2.489218   2.880208   2.584274   1.518157   0.000000
     6  H    1.096838   2.152122   2.825151   3.432245   3.007397
     7  H    2.146633   1.097351   2.113990   2.543458   3.014448
     8  H    3.396145   2.734702   2.153156   1.096602   2.111999
     9  H    3.874183   3.446855   2.199959   1.091566   2.110161
    10  O    1.465025   2.503506   2.890930   2.470922   1.348346
    11  O    3.573571   4.090368   3.690835   2.397011   1.213790
    12  C    1.533223   2.596183   3.937915   4.240778   3.622551
    13  C    2.589266   3.147723   4.503692   4.536297   3.993971
    14  C    2.530477   1.535714   2.609650   3.880904   4.386589
    15  O    3.747830   2.383978   1.424191   2.427521   3.791302
    16  Si   5.377099   4.064452   2.896346   3.460752   4.963686
    17  C    6.382070   4.905910   4.200440   4.731438   6.205562
    18  C    6.304561   5.095853   3.908602   4.782944   6.164630
    19  C    6.079420   5.042647   3.666895   3.435603   4.841778
    20  H    6.347213   5.091072   4.163518   5.294941   6.623246
    21  H    6.163092   5.158142   3.856808   4.683977   5.929336
    22  H    7.351482   6.120805   4.902265   5.620521   7.041247
    23  H    5.975359   5.000707   3.787464   3.199494   4.519570
    24  H    7.157409   6.070429   4.709982   4.529645   5.920437
    25  H    5.959900   5.135121   3.633777   3.286761   4.531529
    26  H    7.426067   5.966533   5.150576   5.600216   7.101118
    27  H    6.297517   4.866044   4.318695   4.587455   5.987623
    28  H    6.378448   4.850800   4.406022   5.209741   6.620069
    29  H    3.468352   2.162351   2.747889   4.115608   4.941251
    30  H    2.866678   2.176460   3.529885   4.607763   4.940443
    31  H    2.735761   2.195378   3.019749   4.380869   4.755889
    32  H    2.143190   2.879822   4.324298   4.945486   4.529118
    33  H    2.127151   3.497545   4.656277   4.785659   3.858343
    34  H    3.519821   4.172387   5.574854   5.617255   4.980526
    35  H    2.926005   2.920749   4.314104   4.504682   4.324473
    36  H    2.827588   3.431156   4.522389   4.181842   3.472347
    37  C    3.082026   2.631585   1.553306   2.511542   3.183268
    38  C    3.757909   3.230672   2.614042   3.912270   4.561070
    39  C    4.242104   4.108657   3.761149   4.947899   5.295369
    40  H    4.045798   3.525474   2.132438   2.681576   3.544156
    41  H    2.792224   2.923292   2.181383   2.683933   2.796993
    42  H    4.353663   3.479962   2.881402   4.313687   5.210594
    43  H    5.094610   4.884302   4.651251   5.939378   6.342158
    44  H    4.155473   4.396943   4.100509   5.043412   5.094639
                    6          7          8          9         10
     6  H    0.000000
     7  H    3.048888   0.000000
     8  H    4.140529   2.351570   0.000000
     9  H    4.211309   3.592589   1.758637   0.000000
    10  O    2.049645   2.784523   2.985687   3.287288   0.000000
    11  O    4.009886   4.138014   2.827775   2.547694   2.205428
    12  C    2.142017   2.803559   4.469068   5.257242   2.383653
    13  C    3.503352   2.771690   4.393812   5.601727   3.016480
    14  C    2.758483   2.134479   4.109420   4.765093   3.848814
    15  O    4.090378   2.572067   2.555437   2.820914   4.212542
    16  Si   5.652366   4.147408   3.473429   3.349173   5.658971
    17  C    6.839915   4.657057   4.349866   4.826031   6.795761
    18  C    6.268699   5.491413   5.098955   4.540850   6.745399
    19  C    6.406562   5.018780   3.398586   2.823271   5.896406
    20  H    6.258120   5.541424   5.604448   5.242351   7.010776
    21  H    5.975260   5.713888   5.213781   4.323704   6.517990
    22  H    7.344267   6.431774   5.848496   5.257357   7.720730
    23  H    6.465267   4.769707   2.873494   2.673249   5.640978
    24  H    7.463903   6.022658   4.438164   3.877895   6.992143
    25  H    6.154204   5.281131   3.549258   2.423314   5.645274
    26  H    7.845930   5.737467   5.229935   5.536677   7.781903
    27  H    6.912532   4.383895   3.970532   4.771283   6.600215
    28  H    6.797192   4.648864   4.879108   5.465950   7.013835
    29  H    3.705134   2.531083   4.232400   4.880801   4.647863
    30  H    3.246921   2.396142   4.673784   5.583529   4.223780
    31  H    2.515877   3.060080   4.829095   5.166169   4.114671
    32  H    2.413744   3.217830   5.197648   5.958274   3.325711
    33  H    2.415621   3.778090   5.119964   5.716115   2.518195
    34  H    4.300624   3.817482   5.458228   6.673786   3.931887
    35  H    3.889403   2.303116   4.196461   5.590177   3.558510
    36  H    3.820738   2.928771   3.950480   5.183797   2.698315
    37  C    2.784985   3.506992   3.449365   2.688850   3.415250
    38  C    3.207097   4.224416   4.733719   4.147169   4.505404
    39  C    3.398862   5.182624   5.848361   5.181342   5.026382
    40  H    3.811871   4.240463   3.602389   2.404602   4.112848
    41  H    2.300557   3.830893   3.737616   2.874753   2.882731
    42  H    3.973360   4.340424   4.958523   4.553780   5.214258
    43  H    4.247308   5.938667   6.785136   6.185214   6.010139
    44  H    3.171925   5.484858   6.030280   5.251418   4.750767
                   11         12         13         14         15
    11  O    0.000000
    12  C    4.531126   0.000000
    13  C    4.784461   1.531585   0.000000
    14  C    5.598832   3.100722   3.743816   0.000000
    15  O    4.811759   4.971751   5.308350   2.894528   0.000000
    16  Si   5.770519   6.642721   6.908102   4.461474   1.684328
    17  C    7.039560   7.382382   7.339255   5.030427   2.805901
    18  C    6.978445   7.635970   8.183036   5.135376   2.946645
    19  C    5.277721   7.422283   7.597766   5.863417   2.986828
    20  H    7.553814   7.569524   8.161637   4.801508   3.173594
    21  H    6.674969   7.580190   8.287433   5.304947   3.265487
    22  H    7.770150   8.684171   9.164133   6.174620   3.868257
    23  H    4.850426   7.213489   7.195352   5.987649   3.234640
    24  H    6.293049   8.492075   8.636381   6.783868   3.890387
    25  H    4.846669   7.393861   7.730328   6.055982   3.323755
    26  H    7.854795   8.464939   8.420446   6.078088   3.768034
    27  H    6.761527   7.181364   6.924641   5.163826   3.061837
    28  H    7.571345   7.257929   7.245224   4.643553   3.008035
    29  H    6.144060   4.134929   4.590900   1.091491   2.467208
    30  H    6.123336   2.864937   3.268648   1.093778   3.784084
    31  H    5.942107   3.341009   4.331133   1.092394   3.473542
    32  H    5.516173   1.095228   2.171402   2.801685   5.214035
    33  H    4.556452   1.095673   2.160399   4.070048   5.831176
    34  H    5.671322   2.168494   1.094002   4.564159   6.360844
    35  H    5.227276   2.192731   1.094529   3.314417   4.842403
    36  H    4.064726   2.177849   1.094064   4.378914   5.381982
    37  C    4.119315   4.577030   5.515679   3.287338   2.454001
    38  C    5.551666   5.051062   6.142280   3.164956   3.065728
    39  C    6.211063   5.367354   6.663869   3.885930   4.376510
    40  H    4.267539   5.569345   6.407414   4.242609   2.662050
    41  H    3.608911   4.265304   5.343909   3.746922   3.387423
    42  H    6.253650   5.562376   6.505449   3.106032   2.807908
    43  H    7.285252   6.072375   7.376881   4.355932   5.071923
    44  H    5.883594   5.243653   6.637294   4.415228   4.982579
                   16         17         18         19         20
    16  Si   0.000000
    17  C    1.880950   0.000000
    18  C    1.886928   3.081646   0.000000
    19  C    1.887824   3.087109   3.070980   0.000000
    20  H    2.504732   3.291153   1.095167   4.034124   0.000000
    21  H    2.517848   4.048302   1.094641   3.301831   1.770251
    22  H    2.482497   3.282788   1.096433   3.261267   1.767742
    23  H    2.515121   3.321789   4.039364   1.094552   4.915965
    24  H    2.471778   3.262096   3.261372   1.096599   4.263011
    25  H    2.521455   4.054152   3.285708   1.095071   4.306066
    26  H    2.491264   1.095726   3.276294   3.314450   3.561708
    27  H    2.495011   1.094968   4.038850   3.289101   4.307989
    28  H    2.495234   1.094999   3.313703   4.043558   3.150416
    29  H    3.808124   4.160226   4.417466   5.420823   3.985353
    30  H    5.336734   5.637933   6.114644   6.730262   5.727804
    31  H    4.953802   5.734244   5.274844   6.362275   4.858978
    32  H    6.895685   7.545622   7.717169   7.908548   7.495613
    33  H    7.477206   8.348178   8.412288   8.113613   8.391117
    34  H    7.964561   8.309878   9.217245   8.681701   9.142684
    35  H    6.389240   6.585195   7.718690   7.225479   7.641134
    36  H    6.887728   7.380665   8.296316   7.308365   8.416558
    37  C    3.467166   5.100070   3.751330   4.138798   3.999555
    38  C    3.962167   5.424010   3.654809   5.063275   3.521933
    39  C    5.279205   6.726221   4.770965   6.308959   4.542613
    40  H    3.130742   4.950788   3.263059   3.451120   3.772449
    41  H    4.470789   6.103995   4.796743   4.888840   5.067753
    42  H    3.487695   4.744875   2.970006   4.892823   2.598748
    43  H    5.868797   7.176604   5.109128   7.056641   4.683241
    44  H    5.966099   7.510664   5.598041   6.767892   5.500559
                   21         22         23         24         25
    21  H    0.000000
    22  H    1.766528   0.000000
    23  H    4.316101   4.274972   0.000000
    24  H    3.590821   3.072101   1.767105   0.000000
    25  H    3.142640   3.555488   1.772593   1.763257   0.000000
    26  H    4.292856   3.100714   3.642509   3.113657   4.315133
    27  H    4.917029   4.279133   3.151136   3.551359   4.313288
    28  H    4.322203   3.619479   4.322683   4.274119   4.922363
    29  H    4.767320   5.398303   5.631053   6.235077   5.753774
    30  H    6.357869   7.120840   6.742869   7.645146   6.994563
    31  H    5.274166   6.347979   6.618351   7.272238   6.411810
    32  H    7.694159   8.784511   7.801900   8.947388   7.923866
    33  H    8.245465   9.468466   7.895758   9.201982   7.967581
    34  H    9.329358  10.204408   8.257542   9.713650   8.822594
    35  H    7.958744   8.661205   6.825671   8.212192   7.502836
    36  H    8.373112   9.233958   6.789427   8.349295   7.404985
    37  C    3.289711   4.775699   4.557099   5.092483   3.757847
    38  C    3.181936   4.711253   5.651528   5.877180   4.781831
    39  C    4.166040   5.769531   6.909134   7.102407   5.916705
    40  H    2.637835   4.165295   4.016115   4.325956   2.888204
    41  H    4.232081   5.790407   5.189830   5.876177   4.363270
    42  H    2.735887   4.022105   5.557630   5.596265   4.806225
    43  H    4.557977   6.046538   7.725696   7.769611   6.725552
    44  H    4.897835   6.585371   7.292616   7.615416   6.248069
                   26         27         28         29         30
    26  H    0.000000
    27  H    1.770790   0.000000
    28  H    1.769702   1.769739   0.000000
    29  H    5.173867   4.407296   3.653152   0.000000
    30  H    6.702037   5.636462   5.159556   1.765778   0.000000
    31  H    6.726338   6.012412   5.324833   1.770282   1.770404
    32  H    8.631176   7.436563   7.266101   3.858221   2.358195
    33  H    9.418013   8.151928   8.275126   5.131750   3.888912
    34  H    9.391837   7.866776   8.155140   5.426544   3.911867
    35  H    7.664288   6.136483   6.417433   3.981489   2.724220
    36  H    8.427981   6.876106   7.444650   5.157470   4.092470
    37  C    5.910180   5.465601   5.278120   3.480250   4.325185
    38  C    6.191146   5.988374   5.341062   3.230203   4.213490
    39  C    7.472995   7.306712   6.576281   4.141431   4.799522
    40  H    5.609288   5.385152   5.304520   4.253954   5.297802
    41  H    6.930966   6.374769   6.308546   4.201397   4.672956
    42  H    5.463823   5.428500   4.533712   2.811103   4.144239
    43  H    7.871307   7.844783   6.897095   4.499950   5.183168
    44  H    8.282796   8.008206   7.444317   4.869740   5.258707
                   31         32         33         34         35
    31  H    0.000000
    32  H    2.867281   0.000000
    33  H    4.126443   1.752520   0.000000
    34  H    5.069741   2.528763   2.460281   0.000000
    35  H    4.103460   2.521236   3.084216   1.763846   0.000000
    36  H    5.013151   3.083390   2.544250   1.767607   1.771762
    37  C    3.163168   4.845374   5.075833   6.527238   5.504290
    38  C    2.652869   4.992261   5.586561   7.064214   6.051879
    39  C    3.056966   5.180269   5.713643   7.476219   6.716902
    40  H    4.184721   5.910035   6.039105   7.451014   6.368567
    41  H    3.509179   4.638105   4.540022   6.302265   5.550333
    42  H    2.727298   5.405745   6.242372   7.428949   6.234345
    43  H    3.421388   5.716020   6.439511   8.125112   7.369721
    44  H    3.587836   5.154625   5.383967   7.406024   6.865057
                   36         37         38         39         40
    36  H    0.000000
    37  C    5.593669   0.000000
    38  C    6.457566   1.504764   0.000000
    39  C    7.059226   2.512525   1.334394   0.000000
    40  H    6.363434   1.099920   2.128386   3.109621   0.000000
    41  H    5.358418   1.096400   2.135355   2.629494   1.746911
    42  H    6.880956   2.212756   1.087706   2.093889   2.629995
    43  H    7.877646   3.503362   2.116364   1.086019   4.035211
    44  H    6.964603   2.775592   2.119675   1.087817   3.366318
                   41         42         43         44
    41  H    0.000000
    42  H    3.088778   0.000000
    43  H    3.712639   2.435987   0.000000
    44  H    2.439010   3.075871   1.849633   0.000000
 Stoichiometry    C14H26O3Si
 Framework group  C1[X(C14H26O3Si)]
 Deg. of freedom   126
 Full point group                 C1      NOp   1
 Largest Abelian subgroup         C1      NOp   1
 Largest concise Abelian subgroup C1      NOp   1
                         Standard orientation:                         
 ---------------------------------------------------------------------
 Center     Atomic      Atomic             Coordinates (Angstroms)
 Number     Number       Type             X           Y           Z
 ---------------------------------------------------------------------
      1          6           0        2.466609    0.389133    0.070259
      2          6           0        1.134387    0.325612    0.825774
      3          6           0       -0.027469   -0.009618   -0.152890
      4          6           0        0.302328   -1.404578   -0.715548
      5          6           0        1.706941   -1.567333   -1.268155
      6          1           0        2.455579    1.265243   -0.589562
      7          1           0        1.168054   -0.531010    1.510789
      8          1           0        0.196623   -2.136814    0.093892
      9          1           0       -0.384955   -1.704914   -1.508616
     10          8           0        2.685496   -0.759199   -0.812758
     11          8           0        1.991106   -2.431663   -2.071566
     12          6           0        3.723701    0.472692    0.944050
     13          6           0        3.901699   -0.671680    1.946289
     14          6           0        0.924226    1.582510    1.682778
     15          8           0       -1.208606   -0.073557    0.640298
     16         14           0       -2.831104   -0.464920    0.413812
     17          6           0       -3.431593   -0.891094    2.144639
     18          6           0       -3.798854    1.012245   -0.250974
     19          6           0       -3.091850   -1.935902   -0.740355
     20          1           0       -3.692554    1.886968    0.399372
     21          1           0       -3.482062    1.301668   -1.258007
     22          1           0       -4.865911    0.764980   -0.300120
     23          1           0       -2.547793   -2.825319   -0.407214
     24          1           0       -4.158627   -2.189265   -0.758367
     25          1           0       -2.793856   -1.721303   -1.772017
     26          1           0       -4.504992   -1.111148    2.142073
     27          1           0       -2.909670   -1.768975    2.539452
     28          1           0       -3.262430   -0.060642    2.838005
     29          1           0       -0.091862    1.588760    2.081374
     30          1           0        1.615978    1.590805    2.529985
     31          1           0        1.074496    2.501479    1.111605
     32          1           0        3.713506    1.436946    1.463313
     33          1           0        4.582046    0.500096    0.263615
     34          1           0        4.866842   -0.583773    2.453844
     35          1           0        3.124907   -0.669591    2.717381
     36          1           0        3.877028   -1.642028    1.441520
     37          6           0       -0.209882    0.973049   -1.341945
     38          6           0       -0.509660    2.410814   -1.014411
     39          6           0        0.066276    3.455707   -1.611992
     40          1           0       -1.041118    0.568272   -1.937785
     41          1           0        0.667931    0.925107   -1.997108
     42          1           0       -1.278600    2.583572   -0.264751
     43          1           0       -0.213313    4.476314   -1.367804
     44          1           0        0.835082    3.329459   -2.371166
 ---------------------------------------------------------------------
 Rotational constants (GHZ):      0.5034602      0.2551810      0.2348047
 Standard basis: def2TZVP (5D, 7F)
 There are   810 symmetry adapted cartesian basis functions of A   symmetry.
 There are   720 symmetry adapted basis functions of A   symmetry.
   720 basis functions,  1144 primitive gaussians,   810 cartesian basis functions
    74 alpha electrons       74 beta electrons
       nuclear repulsion energy      1624.3655642796 Hartrees.
 NAtoms=   44 NActive=   44 NUniq=   44 SFac= 1.00D+00 NAtFMM=   60 NAOKFM=F Big=F
 Integral buffers will be    131072 words long.
 Raffenetti 2 integral format.
 Two-electron integral symmetry is turned on.
 ------------------------------------------------------------------------------
 Polarizable Continuum Model (PCM)
 =================================
 Model                : PCM (using non-symmetric T matrix).
 Atomic radii         : UFF (Universal Force Field).
 Polarization charges : Total charges.
 Charge compensation  : None.
 Solution method      : On-the-fly selection.
 Cavity type          : Scaled VdW (van der Waals Surface) (Alpha=1.100).
 Cavity algorithm     : GePol (No added spheres)
                        Default sphere list used, NSphG=   44.
                        Lebedev-Laikov grids with approx.  5.0 points / Ang**2.
                        Smoothing algorithm: Karplus/York (Gamma=1.0000).
                        Polarization charges: spherical gaussians, with
                                              point-specific exponents (IZeta= 3).
                        Self-potential: point-specific (ISelfS= 7).
                        Self-field    : sphere-specific E.n sum rule (ISelfD= 2).
 Solvent              : Chloroform, Eps=   4.711300 Eps(inf)=   2.090627
 ------------------------------------------------------------------------------
 One-electron integrals computed using PRISM.
   1 Symmetry operations used in ECPInt.
 ECPInt:  NShTT=   46360 NPrTT=  137514 LenC2=   42098 LenP2D=   90339.
 LDataN:  DoStor=T MaxTD1= 6 Len=  172
 NBasis=   720 RedAO= T EigKep=  4.07D-05  NBF=   720
 NBsUse=   720 1.00D-06 EigRej= -1.00D+00 NBFU=   720
 ExpMin= 7.01D-02 ExpMax= 4.48D+04 ExpMxC= 1.53D+03 IAcc=3 IRadAn=         5 AccDes= 0.00D+00
 Harris functional with IExCor= 1009 and IRadAn=       5 diagonalized for initial guess.
 HarFok:  IExCor= 1009 AccDes= 0.00D+00 IRadAn=         5 IDoV= 1 UseB2=F ITyADJ=14
 ICtDFT=  3500011 ScaDFX=  1.000000  1.000000  1.000000  1.000000
 FoFCou: FMM=F IPFlag=           0 FMFlag=      100000 FMFlg1=           0
         NFxFlg=           0 DoJE=T BraDBF=F KetDBF=T FulRan=T
         wScrn=  0.000000 ICntrl=     500 IOpCl=  0 I1Cent=   200000004 NGrid=           0
         NMat0=    1 NMatS0=      1 NMatT0=    0 NMatD0=    1 NMtDS0=    0 NMtDT0=    0
 Petite list used in FoFCou.
 Requested convergence on RMS density matrix=1.00D-08 within 128 cycles.
 Requested convergence on MAX density matrix=1.00D-06.
 Requested convergence on             energy=1.00D-06.
 No special actions if energy rises.
 Inv3:  Mode=1 IEnd=    24230892.
 Iteration    1 A*A^-1 deviation from unit magnitude is 7.11D-15 for    674.
 Iteration    1 A*A^-1 deviation from orthogonality  is 6.66D-15 for   2842   1392.
 Iteration    1 A^-1*A deviation from unit magnitude is 7.11D-15 for   2842.
 Iteration    1 A^-1*A deviation from orthogonality  is 6.93D-14 for   2593   2592.
 Error on total polarization charges =  0.01457
 SCF Done:  E(RM062X) =  -1064.33950044     A.U. after   14 cycles
            NFock= 14  Conv=0.15D-08     -V/T= 2.0047

 **********************************************************************

            Population analysis using the SCF density.

 **********************************************************************

 Orbital symmetries:
       Occupied  (A) (A) (A) (A) (A) (A) (A) (A) (A) (A) (A) (A)
                 (A) (A) (A) (A) (A) (A) (A) (A) (A) (A) (A) (A)
                 (A) (A) (A) (A) (A) (A) (A) (A) (A) (A) (A) (A)
                 (A) (A) (A) (A) (A) (A) (A) (A) (A) (A) (A) (A)
                 (A) (A) (A) (A) (A) (A) (A) (A) (A) (A) (A) (A)
                 (A) (A) (A) (A) (A) (A) (A) (A) (A) (A) (A) (A)
                 (A) (A)
       Virtual   (A) (A) (A) (A) (A) (A) (A) (A) (A) (A) (A) (A)
                 (A) (A) (A) (A) (A) (A) (A) (A) (A) (A) (A) (A)
                 (A) (A) (A) (A) (A) (A) (A) (A) (A) (A) (A) (A)
                 (A) (A) (A) (A) (A) (A) (A) (A) (A) (A) (A) (A)
                 (A) (A) (A) (A) (A) (A) (A) (A) (A) (A) (A) (A)
                 (A) (A) (A) (A) (A) (A) (A) (A) (A) (A) (A) (A)
                 (A) (A) (A) (A) (A) (A) (A) (A) (A) (A) (A) (A)
                 (A) (A) (A) (A) (A) (A) (A) (A) (A) (A) (A) (A)
                 (A) (A) (A) (A) (A) (A) (A) (A) (A) (A) (A) (A)
                 (A) (A) (A) (A) (A) (A) (A) (A) (A) (A) (A) (A)
                 (A) (A) (A) (A) (A) (A) (A) (A) (A) (A) (A) (A)
                 (A) (A) (A) (A) (A) (A) (A) (A) (A) (A) (A) (A)
                 (A) (A) (A) (A) (A) (A) (A) (A) (A) (A) (A) (A)
                 (A) (A) (A) (A) (A) (A) (A) (A) (A) (A) (A) (A)
                 (A) (A) (A) (A) (A) (A) (A) (A) (A) (A) (A) (A)
                 (A) (A) (A) (A) (A) (A) (A) (A) (A) (A) (A) (A)
                 (A) (A) (A) (A) (A) (A) (A) (A) (A) (A) (A) (A)
                 (A) (A) (A) (A) (A) (A) (A) (A) (A) (A) (A) (A)
                 (A) (A) (A) (A) (A) (A) (A) (A) (A) (A) (A) (A)
                 (A) (A) (A) (A) (A) (A) (A) (A) (A) (A) (A) (A)
                 (A) (A) (A) (A) (A) (A) (A) (A) (A) (A) (A) (A)
                 (A) (A) (A) (A) (A) (A) (A) (A) (A) (A) (A) (A)
                 (A) (A) (A) (A) (A) (A) (A) (A) (A) (A) (A) (A)
                 (A) (A) (A) (A) (A) (A) (A) (A) (A) (A) (A) (A)
                 (A) (A) (A) (A) (A) (A) (A) (A) (A) (A) (A) (A)
                 (A) (A) (A) (A) (A) (A) (A) (A) (A) (A) (A) (A)
                 (A) (A) (A) (A) (A) (A) (A) (A) (A) (A) (A) (A)
                 (A) (A) (A) (A) (A) (A) (A) (A) (A) (A) (A) (A)
                 (A) (A) (A) (A) (A) (A) (A) (A) (A) (A) (A) (A)
                 (A) (A) (A) (A) (A) (A) (A) (A) (A) (A) (A) (A)
                 (A) (A) (A) (A) (A) (A) (A) (A) (A) (A) (A) (A)
                 (A) (A) (A) (A) (A) (A) (A) (A) (A) (A) (A) (A)
                 (A) (A) (A) (A) (A) (A) (A) (A) (A) (A) (A) (A)
                 (A) (A) (A) (A) (A) (A) (A) (A) (A) (A) (A) (A)
                 (A) (A) (A) (A) (A) (A) (A) (A) (A) (A) (A) (A)
                 (A) (A) (A) (A) (A) (A) (A) (A) (A) (A) (A) (A)
                 (A) (A) (A) (A) (A) (A) (A) (A) (A) (A) (A) (A)
                 (A) (A) (A) (A) (A) (A) (A) (A) (A) (A) (A) (A)
                 (A) (A) (A) (A) (A) (A) (A) (A) (A) (A) (A) (A)
                 (A) (A) (A) (A) (A) (A) (A) (A) (A) (A) (A) (A)
                 (A) (A) (A) (A) (A) (A) (A) (A) (A) (A) (A) (A)
                 (A) (A) (A) (A) (A) (A) (A) (A) (A) (A) (A) (A)
                 (A) (A) (A) (A) (A) (A) (A) (A) (A) (A) (A) (A)
                 (A) (A) (A) (A) (A) (A) (A) (A) (A) (A) (A) (A)
                 (A) (A) (A) (A) (A) (A) (A) (A) (A) (A) (A) (A)
                 (A) (A) (A) (A) (A) (A) (A) (A) (A) (A) (A) (A)
                 (A) (A) (A) (A) (A) (A) (A) (A) (A) (A) (A) (A)
                 (A) (A) (A) (A) (A) (A) (A) (A) (A) (A) (A) (A)
                 (A) (A) (A) (A) (A) (A) (A) (A) (A) (A) (A) (A)
                 (A) (A) (A) (A) (A) (A) (A) (A) (A) (A) (A) (A)
                 (A) (A) (A) (A) (A) (A) (A) (A) (A) (A) (A) (A)
                 (A) (A) (A) (A) (A) (A) (A) (A) (A) (A) (A) (A)
                 (A) (A) (A) (A) (A) (A) (A) (A) (A) (A) (A) (A)
                 (A) (A) (A) (A) (A) (A) (A) (A) (A) (A)
 The electronic state is 1-A.
 Alpha  occ. eigenvalues --  -67.01777 -19.67271 -19.62117 -19.61601 -10.68241
 Alpha  occ. eigenvalues --  -10.62186 -10.60970 -10.55627 -10.55374 -10.55098
 Alpha  occ. eigenvalues --  -10.54927 -10.54104 -10.53536 -10.52828 -10.52721
 Alpha  occ. eigenvalues --  -10.51278 -10.51058 -10.50842  -5.55220  -3.86408
 Alpha  occ. eigenvalues --   -3.86264  -3.86250  -1.22908  -1.14188  -1.13450
 Alpha  occ. eigenvalues --   -0.93614  -0.90619  -0.88263  -0.84724  -0.80780
 Alpha  occ. eigenvalues --   -0.79971  -0.78907  -0.77047  -0.76835  -0.73714
 Alpha  occ. eigenvalues --   -0.69197  -0.69179  -0.65066  -0.62042  -0.59302
 Alpha  occ. eigenvalues --   -0.58213  -0.56993  -0.55655  -0.54588  -0.53130
 Alpha  occ. eigenvalues --   -0.51808  -0.50867  -0.50310  -0.49687  -0.49081
 Alpha  occ. eigenvalues --   -0.48105  -0.47549  -0.47467  -0.46742  -0.46142
 Alpha  occ. eigenvalues --   -0.45994  -0.45757  -0.45116  -0.44654  -0.44198
 Alpha  occ. eigenvalues --   -0.43258  -0.42808  -0.42573  -0.41523  -0.41226
 Alpha  occ. eigenvalues --   -0.40736  -0.39424  -0.38581  -0.36763  -0.36548
 Alpha  occ. eigenvalues --   -0.35756  -0.34606  -0.33679  -0.31762
 Alpha virt. eigenvalues --    0.03088   0.03437   0.05047   0.06844   0.06976
 Alpha virt. eigenvalues --    0.07359   0.09099   0.09808   0.10037   0.10234
 Alpha virt. eigenvalues --    0.10449   0.11120   0.11621   0.12301   0.12794
 Alpha virt. eigenvalues --    0.12998   0.13910   0.14359   0.14641   0.15170
 Alpha virt. eigenvalues --    0.15337   0.15796   0.16040   0.16327   0.16530
 Alpha virt. eigenvalues --    0.16785   0.17587   0.17814   0.18269   0.18593
 Alpha virt. eigenvalues --    0.18889   0.19667   0.20075   0.20447   0.20686
 Alpha virt. eigenvalues --    0.21105   0.21350   0.22064   0.22588   0.22853
 Alpha virt. eigenvalues --    0.23234   0.23852   0.23996   0.25069   0.25841
 Alpha virt. eigenvalues --    0.26164   0.26448   0.27167   0.28036   0.28211
 Alpha virt. eigenvalues --    0.28569   0.28864   0.29953   0.30354   0.30424
 Alpha virt. eigenvalues --    0.30716   0.31286   0.31963   0.32883   0.33087
 Alpha virt. eigenvalues --    0.33878   0.34887   0.35653   0.36863   0.37205
 Alpha virt. eigenvalues --    0.37806   0.38210   0.38593   0.39362   0.39784
 Alpha virt. eigenvalues --    0.39882   0.40260   0.40504   0.41205   0.41947
 Alpha virt. eigenvalues --    0.42024   0.42541   0.43184   0.43761   0.44265
 Alpha virt. eigenvalues --    0.44849   0.45257   0.45519   0.45674   0.46467
 Alpha virt. eigenvalues --    0.46753   0.47110   0.47274   0.47593   0.48200
 Alpha virt. eigenvalues --    0.48495   0.48551   0.49014   0.49530   0.49770
 Alpha virt. eigenvalues --    0.50032   0.50372   0.50963   0.51379   0.52038
 Alpha virt. eigenvalues --    0.52241   0.52384   0.52818   0.53270   0.54081
 Alpha virt. eigenvalues --    0.54287   0.54667   0.55007   0.55622   0.55961
 Alpha virt. eigenvalues --    0.56515   0.57035   0.57153   0.57679   0.58746
 Alpha virt. eigenvalues --    0.59010   0.59872   0.61085   0.61882   0.62107
 Alpha virt. eigenvalues --    0.63353   0.64028   0.64198   0.64983   0.65524
 Alpha virt. eigenvalues --    0.66328   0.66408   0.67706   0.68022   0.69405
 Alpha virt. eigenvalues --    0.70187   0.70918   0.71780   0.72239   0.73591
 Alpha virt. eigenvalues --    0.73967   0.74876   0.75403   0.77121   0.77935
 Alpha virt. eigenvalues --    0.78751   0.79265   0.79470   0.80124   0.82053
 Alpha virt. eigenvalues --    0.82860   0.83535   0.84697   0.84815   0.85568
 Alpha virt. eigenvalues --    0.86342   0.87963   0.88783   0.89927   0.90718
 Alpha virt. eigenvalues --    0.91058   0.91680   0.92224   0.93232   0.93620
 Alpha virt. eigenvalues --    0.94403   0.95370   0.95718   0.96340   0.98044
 Alpha virt. eigenvalues --    0.98379   0.98838   1.00159   1.00641   1.01910
 Alpha virt. eigenvalues --    1.02342   1.02914   1.03546   1.03716   1.04413
 Alpha virt. eigenvalues --    1.05138   1.05829   1.06354   1.06820   1.07102
 Alpha virt. eigenvalues --    1.08202   1.08976   1.09449   1.09937   1.11238
 Alpha virt. eigenvalues --    1.11516   1.13039   1.13577   1.14362   1.15398
 Alpha virt. eigenvalues --    1.16443   1.17278   1.18356   1.18540   1.19956
 Alpha virt. eigenvalues --    1.20501   1.22180   1.22924   1.24476   1.24991
 Alpha virt. eigenvalues --    1.25944   1.26823   1.27538   1.28465   1.28753
 Alpha virt. eigenvalues --    1.29752   1.31166   1.31439   1.32322   1.33427
 Alpha virt. eigenvalues --    1.34338   1.34785   1.36130   1.37066   1.38926
 Alpha virt. eigenvalues --    1.39805   1.40153   1.41206   1.41616   1.42529
 Alpha virt. eigenvalues --    1.44248   1.44944   1.45783   1.46713   1.47594
 Alpha virt. eigenvalues --    1.48070   1.48632   1.50624   1.51260   1.53755
 Alpha virt. eigenvalues --    1.54946   1.56065   1.56150   1.56571   1.57041
 Alpha virt. eigenvalues --    1.57479   1.58079   1.58157   1.58686   1.59038
 Alpha virt. eigenvalues --    1.59273   1.60286   1.60785   1.61017   1.61960
 Alpha virt. eigenvalues --    1.62483   1.62832   1.64055   1.64845   1.65141
 Alpha virt. eigenvalues --    1.65553   1.65798   1.66197   1.66373   1.67068
 Alpha virt. eigenvalues --    1.67458   1.67779   1.67967   1.68729   1.69383
 Alpha virt. eigenvalues --    1.70637   1.70901   1.71949   1.72796   1.73666
 Alpha virt. eigenvalues --    1.74026   1.75074   1.76234   1.76706   1.77304
 Alpha virt. eigenvalues --    1.79344   1.80315   1.80967   1.82160   1.82237
 Alpha virt. eigenvalues --    1.83761   1.85151   1.85584   1.86584   1.87448
 Alpha virt. eigenvalues --    1.88857   1.89210   1.91166   1.92193   1.92963
 Alpha virt. eigenvalues --    1.94307   1.95472   1.95842   1.97049   1.97747
 Alpha virt. eigenvalues --    1.98748   1.99796   2.00053   2.01167   2.01384
 Alpha virt. eigenvalues --    2.03224   2.04301   2.04791   2.05345   2.06558
 Alpha virt. eigenvalues --    2.07007   2.07309   2.07629   2.08088   2.08953
 Alpha virt. eigenvalues --    2.10414   2.11468   2.12088   2.13843   2.14712
 Alpha virt. eigenvalues --    2.15713   2.16152   2.17210   2.18457   2.19775
 Alpha virt. eigenvalues --    2.20707   2.22033   2.22456   2.22987   2.23978
 Alpha virt. eigenvalues --    2.24566   2.25205   2.25719   2.27189   2.28577
 Alpha virt. eigenvalues --    2.29831   2.30689   2.31604   2.32217   2.33442
 Alpha virt. eigenvalues --    2.35019   2.35327   2.35642   2.36761   2.37433
 Alpha virt. eigenvalues --    2.38096   2.38633   2.39203   2.39670   2.39831
 Alpha virt. eigenvalues --    2.41030   2.41297   2.42101   2.42198   2.42473
 Alpha virt. eigenvalues --    2.43440   2.43991   2.44335   2.44787   2.45362
 Alpha virt. eigenvalues --    2.45922   2.46726   2.47944   2.48019   2.49239
 Alpha virt. eigenvalues --    2.51002   2.51494   2.53142   2.54202   2.54702
 Alpha virt. eigenvalues --    2.55945   2.56836   2.57361   2.58264   2.59087
 Alpha virt. eigenvalues --    2.59376   2.60655   2.61094   2.61568   2.61980
 Alpha virt. eigenvalues --    2.62569   2.62840   2.63579   2.64365   2.64515
 Alpha virt. eigenvalues --    2.65374   2.65654   2.66557   2.67097   2.67574
 Alpha virt. eigenvalues --    2.68147   2.68977   2.69799   2.70431   2.70627
 Alpha virt. eigenvalues --    2.71249   2.71932   2.72790   2.73063   2.73471
 Alpha virt. eigenvalues --    2.74983   2.75786   2.76547   2.77344   2.79224
 Alpha virt. eigenvalues --    2.80489   2.80781   2.83144   2.83560   2.84405
 Alpha virt. eigenvalues --    2.85319   2.86072   2.86544   2.87761   2.88599
 Alpha virt. eigenvalues --    2.89619   2.90790   2.91188   2.93033   2.93845
 Alpha virt. eigenvalues --    2.94948   2.96503   2.96859   2.98240   2.99064
 Alpha virt. eigenvalues --    3.01575   3.02734   3.03873   3.04642   3.06091
 Alpha virt. eigenvalues --    3.07003   3.07199   3.08525   3.09139   3.10259
 Alpha virt. eigenvalues --    3.10524   3.11334   3.12422   3.12941   3.13542
 Alpha virt. eigenvalues --    3.14265   3.14553   3.14972   3.15744   3.16417
 Alpha virt. eigenvalues --    3.16796   3.17543   3.17928   3.18802   3.19860
 Alpha virt. eigenvalues --    3.21538   3.21587   3.22072   3.23276   3.23854
 Alpha virt. eigenvalues --    3.24356   3.24752   3.25301   3.25823   3.26531
 Alpha virt. eigenvalues --    3.27673   3.28276   3.29193   3.29729   3.29898
 Alpha virt. eigenvalues --    3.30065   3.30623   3.31090   3.32329   3.32611
 Alpha virt. eigenvalues --    3.33699   3.33725   3.34108   3.35190   3.35983
 Alpha virt. eigenvalues --    3.36500   3.37105   3.37499   3.38657   3.38904
 Alpha virt. eigenvalues --    3.39999   3.40590   3.41576   3.42686   3.43010
 Alpha virt. eigenvalues --    3.43433   3.44137   3.44830   3.45419   3.46089
 Alpha virt. eigenvalues --    3.46598   3.46979   3.47880   3.48602   3.51105
 Alpha virt. eigenvalues --    3.51282   3.52689   3.52818   3.53121   3.55473
 Alpha virt. eigenvalues --    3.56213   3.56403   3.57400   3.57987   3.58470
 Alpha virt. eigenvalues --    3.59609   3.60435   3.60958   3.61664   3.62749
 Alpha virt. eigenvalues --    3.63419   3.63854   3.64803   3.66128   3.66229
 Alpha virt. eigenvalues --    3.66496   3.67438   3.68029   3.69108   3.70536
 Alpha virt. eigenvalues --    3.71024   3.73043   3.74722   3.76274   3.76906
 Alpha virt. eigenvalues --    3.77704   3.79156   3.80262   3.82533   3.83576
 Alpha virt. eigenvalues --    3.84363   3.87787   3.88683   3.90127   3.92344
 Alpha virt. eigenvalues --    3.93157   3.95438   3.96819   3.98515   3.99138
 Alpha virt. eigenvalues --    4.01564   4.02977   4.06175   4.08147   4.09143
 Alpha virt. eigenvalues --    4.11923   4.13030   4.14637   4.15690   4.18518
 Alpha virt. eigenvalues --    4.20485   4.21767   4.23538   4.24692   4.26395
 Alpha virt. eigenvalues --    4.27367   4.27579   4.28329   4.28861   4.29237
 Alpha virt. eigenvalues --    4.30528   4.30774   4.32454   4.34195   4.36049
 Alpha virt. eigenvalues --    4.36927   4.37432   4.38278   4.38526   4.39357
 Alpha virt. eigenvalues --    4.41094   4.44245   4.44669   4.46196   4.49014
 Alpha virt. eigenvalues --    4.50398   4.53525   4.54614   4.58080   4.60172
 Alpha virt. eigenvalues --    4.61331   4.64697   4.66818   4.69650   4.69843
 Alpha virt. eigenvalues --    4.71128   4.74539   4.78743   4.79725   4.84141
 Alpha virt. eigenvalues --    4.86416   4.89058   4.90792   4.95169   4.97252
 Alpha virt. eigenvalues --    5.05830   5.09051   5.14670   5.17456   5.21773
 Alpha virt. eigenvalues --    5.25021   5.25474   5.27476   5.28880   5.36630
 Alpha virt. eigenvalues --    5.47879   5.49163   5.53378   5.60996   5.81766
 Alpha virt. eigenvalues --    5.84831   5.87389   5.89274   5.91431   6.02467
 Alpha virt. eigenvalues --    6.13231   6.17006   6.22889   6.36878   6.38457
 Alpha virt. eigenvalues --    6.51161   6.60085   6.64017   6.64753   6.67385
 Alpha virt. eigenvalues --    6.68952   6.75691   6.81473   6.86266   6.89464
 Alpha virt. eigenvalues --    6.91357   6.96518   7.04470   7.06780   7.15328
 Alpha virt. eigenvalues --    7.19616   7.34832   7.43147  12.16932  22.33970
 Alpha virt. eigenvalues --   22.37626  22.42990  22.44642  22.44997  22.55047
 Alpha virt. eigenvalues --   22.61137  22.64774  22.69718  22.77609  22.85484
 Alpha virt. eigenvalues --   22.89909  22.90628  23.44610  44.05596  44.49584
 Alpha virt. eigenvalues --   44.52392
          Condensed to atoms (all electrons):
               1          2          3          4          5          6
     1  C    5.418966  -0.007291  -0.032856  -0.003196  -0.034990   0.441155
     2  C   -0.007291   5.960568   0.027022  -0.003592  -0.026727  -0.025854
     3  C   -0.032856   0.027022   5.732393  -0.143335   0.081115  -0.042741
     4  C   -0.003196  -0.003592  -0.143335   6.167651   0.076962   0.005897
     5  C   -0.034990  -0.026727   0.081115   0.076962   4.431242  -0.003521
     6  H    0.441155  -0.025854  -0.042741   0.005897  -0.003521   0.517028
     7  H   -0.020395   0.429250  -0.052030  -0.014440   0.000489   0.004057
     8  H    0.004499  -0.020500  -0.044862   0.404455  -0.002886  -0.000299
     9  H   -0.001825   0.017742  -0.016714   0.357896  -0.008634   0.000298
    10  O    0.170463  -0.019714   0.028621  -0.166076   0.398337  -0.035199
    11  O    0.000606   0.000739   0.013829  -0.165672   0.748500   0.000109
    12  C    0.188286  -0.033175   0.025357  -0.006439   0.003442  -0.048666
    13  C   -0.035756   0.022547  -0.002984  -0.000451  -0.001616   0.008662
    14  C   -0.036241   0.162274  -0.015127  -0.000540   0.002692  -0.005621
    15  O    0.013071  -0.099769   0.204099  -0.027023  -0.002867  -0.000001
    16  Si  -0.000895   0.007147  -0.075061  -0.000931  -0.000836   0.000029
    17  C   -0.000061   0.000649  -0.001459   0.000522   0.000032   0.000000
    18  C    0.000148  -0.001245  -0.004843  -0.000337   0.000015  -0.000002
    19  C    0.000113   0.000022   0.016860  -0.000267  -0.001344  -0.000008
    20  H    0.000003   0.000044   0.002450  -0.000042  -0.000003   0.000000
    21  H   -0.000002   0.000005  -0.004122   0.000419   0.000008   0.000001
    22  H   -0.000001   0.000008   0.000231  -0.000012  -0.000001   0.000000
    23  H    0.000019  -0.000342  -0.002241   0.001393   0.000526   0.000000
    24  H   -0.000002   0.000009  -0.000669   0.000436  -0.000034   0.000000
    25  H   -0.000019   0.000068   0.004871  -0.006440  -0.000176  -0.000001
    26  H    0.000002  -0.000044   0.000099  -0.000018   0.000000   0.000000
    27  H    0.000004   0.000093   0.000787  -0.000561   0.000015   0.000000
    28  H    0.000009   0.000095  -0.000069   0.000043   0.000000   0.000000
    29  H    0.011846  -0.068110   0.005844   0.001012  -0.000195  -0.000299
    30  H   -0.020427  -0.036535   0.009546  -0.000609   0.000018   0.000899
    31  H    0.004458  -0.032457  -0.017240  -0.000468   0.000065   0.001705
    32  H   -0.026842  -0.018262  -0.002016   0.000835  -0.000339  -0.000305
    33  H   -0.063448   0.013707  -0.000076   0.000497  -0.000100  -0.007293
    34  H    0.010545  -0.000632   0.000027  -0.000040   0.000059  -0.000217
    35  H   -0.028720   0.023798   0.000898   0.000102   0.000203  -0.000485
    36  H    0.019934  -0.012277  -0.001062   0.001823  -0.002152   0.000359
    37  C    0.047461  -0.064228   0.142941  -0.065601   0.005157   0.010949
    38  C   -0.014545   0.020045  -0.006835   0.005074   0.000558   0.004182
    39  C   -0.003468   0.002302  -0.002544  -0.000573   0.000073   0.001176
    40  H   -0.002457   0.014608  -0.068868   0.001732  -0.003495   0.000721
    41  H    0.002178  -0.025332   0.002817  -0.007783   0.001061  -0.011699
    42  H    0.000483  -0.004266   0.007431  -0.000416  -0.000036  -0.000076
    43  H    0.000016  -0.000010  -0.000221   0.000025   0.000002  -0.000029
    44  H    0.000028  -0.000198  -0.000661  -0.000033  -0.000003   0.000071
               7          8          9         10         11         12
     1  C   -0.020395   0.004499  -0.001825   0.170463   0.000606   0.188286
     2  C    0.429250  -0.020500   0.017742  -0.019714   0.000739  -0.033175
     3  C   -0.052030  -0.044862  -0.016714   0.028621   0.013829   0.025357
     4  C   -0.014440   0.404455   0.357896  -0.166076  -0.165672  -0.006439
     5  C    0.000489  -0.002886  -0.008634   0.398337   0.748500   0.003442
     6  H    0.004057  -0.000299   0.000298  -0.035199   0.000109  -0.048666
     7  H    0.498254   0.001091   0.000127  -0.000650  -0.000184  -0.014854
     8  H    0.001091   0.445247  -0.009853   0.000868   0.002179   0.000161
     9  H    0.000127  -0.009853   0.475035   0.006674   0.013775  -0.000027
    10  O   -0.000650   0.000868   0.006674   7.997465  -0.101692  -0.045666
    11  O   -0.000184   0.002179   0.013775  -0.101692   7.858820  -0.000048
    12  C   -0.014854   0.000161  -0.000027  -0.045666  -0.000048   5.245048
    13  C   -0.000419   0.000191   0.000032  -0.000852  -0.000061   0.219726
    14  C   -0.030595   0.000094   0.000015   0.004477   0.000029   0.022708
    15  O    0.009854  -0.000475  -0.002273  -0.000428  -0.000200  -0.000431
    16  Si   0.000192  -0.000209  -0.001294  -0.000062  -0.000118   0.000027
    17  C   -0.000241  -0.000223   0.000232   0.000001   0.000001   0.000000
    18  C    0.000179   0.000253  -0.000341  -0.000002  -0.000002  -0.000001
    19  C   -0.000082  -0.001861  -0.004374  -0.000038  -0.000245   0.000003
    20  H   -0.000004  -0.000005   0.000003   0.000000   0.000000   0.000000
    21  H    0.000001  -0.000014  -0.000030   0.000000   0.000000   0.000000
    22  H   -0.000002  -0.000002   0.000001   0.000000   0.000000   0.000000
    23  H    0.000019   0.000268  -0.003179   0.000001   0.000033  -0.000001
    24  H   -0.000001  -0.000016   0.000388   0.000000  -0.000003   0.000000
    25  H   -0.000009   0.000079   0.000949  -0.000002  -0.000022   0.000000
    26  H    0.000012   0.000017  -0.000005   0.000000   0.000000   0.000000
    27  H    0.000060   0.000300   0.000000   0.000000   0.000000   0.000000
    28  H   -0.000021  -0.000005  -0.000005   0.000000   0.000000   0.000000
    29  H   -0.002166   0.000083  -0.000056  -0.000187   0.000000  -0.000351
    30  H   -0.008948  -0.000001   0.000014  -0.000001   0.000000   0.011057
    31  H    0.006454   0.000001  -0.000001   0.000019   0.000001  -0.008905
    32  H    0.002149  -0.000017  -0.000005   0.003889   0.000007   0.419509
    33  H   -0.000561   0.000010  -0.000014   0.002306   0.000008   0.442145
    34  H    0.000263  -0.000003   0.000000  -0.000052  -0.000001  -0.041950
    35  H   -0.010128   0.000031  -0.000005   0.000935   0.000001  -0.030065
    36  H    0.002306  -0.000095  -0.000007   0.003515   0.000021  -0.057494
    37  C    0.008961   0.009646  -0.014635  -0.013565   0.002096  -0.003052
    38  C   -0.000744  -0.000636   0.000705   0.001262   0.000026   0.001006
    39  C   -0.000208  -0.000008   0.000033  -0.000004   0.000002   0.000187
    40  H   -0.000283  -0.000614   0.002886   0.000025  -0.000174   0.000030
    41  H   -0.000639   0.000207  -0.000779   0.005469  -0.000891   0.001048
    42  H   -0.000247   0.000008   0.000023  -0.000002   0.000001   0.000022
    43  H   -0.000001   0.000000  -0.000001   0.000000   0.000000   0.000003
    44  H   -0.000007   0.000001   0.000004  -0.000005   0.000000  -0.000049
              13         14         15         16         17         18
     1  C   -0.035756  -0.036241   0.013071  -0.000895  -0.000061   0.000148
     2  C    0.022547   0.162274  -0.099769   0.007147   0.000649  -0.001245
     3  C   -0.002984  -0.015127   0.204099  -0.075061  -0.001459  -0.004843
     4  C   -0.000451  -0.000540  -0.027023  -0.000931   0.000522  -0.000337
     5  C   -0.001616   0.002692  -0.002867  -0.000836   0.000032   0.000015
     6  H    0.008662  -0.005621  -0.000001   0.000029   0.000000  -0.000002
     7  H   -0.000419  -0.030595   0.009854   0.000192  -0.000241   0.000179
     8  H    0.000191   0.000094  -0.000475  -0.000209  -0.000223   0.000253
     9  H    0.000032   0.000015  -0.002273  -0.001294   0.000232  -0.000341
    10  O   -0.000852   0.004477  -0.000428  -0.000062   0.000001  -0.000002
    11  O   -0.000061   0.000029  -0.000200  -0.000118   0.000001  -0.000002
    12  C    0.219726   0.022708  -0.000431   0.000027   0.000000  -0.000001
    13  C    5.103123  -0.010075  -0.000051   0.000000   0.000000   0.000000
    14  C   -0.010075   5.181069  -0.016142   0.001349  -0.000033  -0.000411
    15  O   -0.000051  -0.016142   8.039530   0.393331  -0.018247  -0.028641
    16  Si   0.000000   0.001349   0.393331  12.408134   0.397615   0.337561
    17  C    0.000000  -0.000033  -0.018247   0.397615   5.099553  -0.051247
    18  C    0.000000  -0.000411  -0.028641   0.337561  -0.051247   5.207287
    19  C    0.000000  -0.000194  -0.026194   0.338596  -0.044676  -0.051878
    20  H    0.000000  -0.000051  -0.000383  -0.042564   0.001759   0.397013
    21  H    0.000000   0.000008   0.001267  -0.028508   0.002745   0.385122
    22  H    0.000000   0.000006   0.001073  -0.023545   0.001169   0.383233
    23  H    0.000000   0.000008   0.000385  -0.040893   0.000860   0.003588
    24  H    0.000000   0.000002   0.001093  -0.021708   0.000247   0.001199
    25  H    0.000000   0.000003   0.000421  -0.038442   0.003220   0.001497
    26  H    0.000000  -0.000010   0.001322  -0.045438   0.393460   0.004199
    27  H    0.000000   0.000039   0.001077  -0.033811   0.389417   0.003400
    28  H    0.000000  -0.000107   0.000449  -0.033026   0.390061   0.000337
    29  H   -0.000127   0.429531   0.008942  -0.001238  -0.000272   0.000030
    30  H   -0.002885   0.421528   0.000239   0.000010   0.000006  -0.000005
    31  H    0.001130   0.417304   0.000234  -0.000297  -0.000006   0.000043
    32  H   -0.041629   0.001450  -0.000006  -0.000001   0.000000   0.000000
    33  H   -0.038480  -0.000964   0.000009   0.000000   0.000000   0.000000
    34  H    0.416267   0.000328  -0.000001   0.000000   0.000000   0.000000
    35  H    0.411019  -0.002455  -0.000014   0.000005   0.000000   0.000000
    36  H    0.415864   0.000571   0.000008   0.000000   0.000000   0.000000
    37  C    0.000363  -0.009065  -0.083406   0.018615  -0.001711   0.018446
    38  C   -0.000031  -0.015533   0.015929  -0.006459   0.000629  -0.005043
    39  C   -0.000015  -0.002357   0.003434  -0.000004   0.000030   0.000743
    40  H   -0.000001  -0.000472  -0.004170   0.004020   0.000301  -0.005322
    41  H   -0.000095   0.001995   0.004235   0.000515   0.000010   0.000037
    42  H   -0.000003  -0.000958   0.004538  -0.000710   0.000137  -0.003006
    43  H    0.000000   0.000030  -0.000006   0.000013   0.000000   0.000031
    44  H    0.000000   0.000227   0.000014  -0.000013   0.000000  -0.000024
              19         20         21         22         23         24
     1  C    0.000113   0.000003  -0.000002  -0.000001   0.000019  -0.000002
     2  C    0.000022   0.000044   0.000005   0.000008  -0.000342   0.000009
     3  C    0.016860   0.002450  -0.004122   0.000231  -0.002241  -0.000669
     4  C   -0.000267  -0.000042   0.000419  -0.000012   0.001393   0.000436
     5  C   -0.001344  -0.000003   0.000008  -0.000001   0.000526  -0.000034
     6  H   -0.000008   0.000000   0.000001   0.000000   0.000000   0.000000
     7  H   -0.000082  -0.000004   0.000001  -0.000002   0.000019  -0.000001
     8  H   -0.001861  -0.000005  -0.000014  -0.000002   0.000268  -0.000016
     9  H   -0.004374   0.000003  -0.000030   0.000001  -0.003179   0.000388
    10  O   -0.000038   0.000000   0.000000   0.000000   0.000001   0.000000
    11  O   -0.000245   0.000000   0.000000   0.000000   0.000033  -0.000003
    12  C    0.000003   0.000000   0.000000   0.000000  -0.000001   0.000000
    13  C    0.000000   0.000000   0.000000   0.000000   0.000000   0.000000
    14  C   -0.000194  -0.000051   0.000008   0.000006   0.000008   0.000002
    15  O   -0.026194  -0.000383   0.001267   0.001073   0.000385   0.001093
    16  Si   0.338596  -0.042564  -0.028508  -0.023545  -0.040893  -0.021708
    17  C   -0.044676   0.001759   0.002745   0.001169   0.000860   0.000247
    18  C   -0.051878   0.397013   0.385122   0.383233   0.003588   0.001199
    19  C    5.197221   0.003510   0.000887   0.001177   0.396511   0.381603
    20  H    0.003510   0.508205  -0.019386  -0.015420  -0.000093  -0.000138
    21  H    0.000887  -0.019386   0.508886  -0.015746  -0.000172   0.000122
    22  H    0.001177  -0.015420  -0.015746   0.497803  -0.000136   0.000423
    23  H    0.396511  -0.000093  -0.000172  -0.000136   0.502959  -0.014574
    24  H    0.381603  -0.000138   0.000122   0.000423  -0.014574   0.493327
    25  H    0.393831  -0.000215   0.000779   0.000155  -0.020434  -0.014266
    26  H    0.002740   0.000269  -0.000138   0.000108   0.000215   0.000206
    27  H    0.000943  -0.000185  -0.000096  -0.000145   0.000765   0.000245
    28  H    0.003084   0.000868  -0.000124   0.000289  -0.000194  -0.000131
    29  H    0.000167   0.000226   0.000009  -0.000006  -0.000005  -0.000003
    30  H    0.000002  -0.000001   0.000000   0.000000   0.000000   0.000000
    31  H    0.000005   0.000011   0.000000  -0.000001   0.000000   0.000000
    32  H    0.000000   0.000000   0.000000   0.000000   0.000000   0.000000
    33  H    0.000000   0.000000   0.000000   0.000000   0.000000   0.000000
    34  H    0.000000   0.000000   0.000000   0.000000   0.000000   0.000000
    35  H    0.000000   0.000000   0.000000   0.000000   0.000000   0.000000
    36  H    0.000000   0.000000   0.000000   0.000000   0.000000   0.000000
    37  C   -0.014162  -0.003250   0.004818  -0.000586   0.001383   0.000273
    38  C    0.002003  -0.001324  -0.002165   0.000409  -0.000107  -0.000046
    39  C    0.000037   0.000215   0.001128   0.000001  -0.000001  -0.000001
    40  H   -0.000016   0.000181   0.000369   0.000140  -0.000245   0.000007
    41  H   -0.000019  -0.000024   0.000075   0.000001   0.000000   0.000003
    42  H    0.000249   0.001431  -0.003472   0.000401  -0.000010  -0.000005
    43  H   -0.000001  -0.000022   0.000021  -0.000001   0.000000   0.000000
    44  H    0.000002   0.000005  -0.000026   0.000001   0.000000   0.000000
              25         26         27         28         29         30
     1  C   -0.000019   0.000002   0.000004   0.000009   0.011846  -0.020427
     2  C    0.000068  -0.000044   0.000093   0.000095  -0.068110  -0.036535
     3  C    0.004871   0.000099   0.000787  -0.000069   0.005844   0.009546
     4  C   -0.006440  -0.000018  -0.000561   0.000043   0.001012  -0.000609
     5  C   -0.000176   0.000000   0.000015   0.000000  -0.000195   0.000018
     6  H   -0.000001   0.000000   0.000000   0.000000  -0.000299   0.000899
     7  H   -0.000009   0.000012   0.000060  -0.000021  -0.002166  -0.008948
     8  H    0.000079   0.000017   0.000300  -0.000005   0.000083  -0.000001
     9  H    0.000949  -0.000005   0.000000  -0.000005  -0.000056   0.000014
    10  O   -0.000002   0.000000   0.000000   0.000000  -0.000187  -0.000001
    11  O   -0.000022   0.000000   0.000000   0.000000   0.000000   0.000000
    12  C    0.000000   0.000000   0.000000   0.000000  -0.000351   0.011057
    13  C    0.000000   0.000000   0.000000   0.000000  -0.000127  -0.002885
    14  C    0.000003  -0.000010   0.000039  -0.000107   0.429531   0.421528
    15  O    0.000421   0.001322   0.001077   0.000449   0.008942   0.000239
    16  Si  -0.038442  -0.045438  -0.033811  -0.033026  -0.001238   0.000010
    17  C    0.003220   0.393460   0.389417   0.390061  -0.000272   0.000006
    18  C    0.001497   0.004199   0.003400   0.000337   0.000030  -0.000005
    19  C    0.393831   0.002740   0.000943   0.003084   0.000167   0.000002
    20  H   -0.000215   0.000269  -0.000185   0.000868   0.000226  -0.000001
    21  H    0.000779  -0.000138  -0.000096  -0.000124   0.000009   0.000000
    22  H    0.000155   0.000108  -0.000145   0.000289  -0.000006   0.000000
    23  H   -0.020434   0.000215   0.000765  -0.000194  -0.000005   0.000000
    24  H   -0.014266   0.000206   0.000245  -0.000131  -0.000003   0.000000
    25  H    0.507296  -0.000191  -0.000127  -0.000091  -0.000006   0.000000
    26  H   -0.000191   0.526359  -0.019000  -0.019002   0.000023   0.000000
    27  H   -0.000127  -0.019000   0.517847  -0.017799  -0.000006   0.000001
    28  H   -0.000091  -0.019002  -0.017799   0.517064   0.000552   0.000007
    29  H   -0.000006   0.000023  -0.000006   0.000552   0.486319  -0.019351
    30  H    0.000000   0.000000   0.000001   0.000007  -0.019351   0.508525
    31  H    0.000000   0.000000   0.000000  -0.000002  -0.022536  -0.026089
    32  H    0.000000   0.000000   0.000000   0.000000   0.000454  -0.008483
    33  H    0.000000   0.000000   0.000000   0.000000   0.000029   0.000365
    34  H    0.000000   0.000000   0.000000   0.000000  -0.000003  -0.000049
    35  H    0.000000   0.000000   0.000000   0.000000   0.000027   0.001925
    36  H    0.000000   0.000000   0.000000   0.000000   0.000016  -0.000064
    37  C   -0.003471   0.000067   0.000089   0.000128  -0.002181   0.000029
    38  C    0.000388  -0.000024  -0.000026  -0.000046  -0.001733   0.000714
    39  C    0.000004  -0.000001  -0.000001   0.000000   0.000203   0.000284
    40  H    0.002757  -0.000007  -0.000004  -0.000012  -0.000089   0.000032
    41  H    0.000032  -0.000001   0.000000   0.000000  -0.000154  -0.000001
    42  H    0.000018  -0.000009  -0.000001   0.000046  -0.000635   0.000191
    43  H    0.000000   0.000000   0.000000   0.000000   0.000016  -0.000009
    44  H    0.000001   0.000000   0.000000   0.000000  -0.000014   0.000004
              31         32         33         34         35         36
     1  C    0.004458  -0.026842  -0.063448   0.010545  -0.028720   0.019934
     2  C   -0.032457  -0.018262   0.013707  -0.000632   0.023798  -0.012277
     3  C   -0.017240  -0.002016  -0.000076   0.000027   0.000898  -0.001062
     4  C   -0.000468   0.000835   0.000497  -0.000040   0.000102   0.001823
     5  C    0.000065  -0.000339  -0.000100   0.000059   0.000203  -0.002152
     6  H    0.001705  -0.000305  -0.007293  -0.000217  -0.000485   0.000359
     7  H    0.006454   0.002149  -0.000561   0.000263  -0.010128   0.002306
     8  H    0.000001  -0.000017   0.000010  -0.000003   0.000031  -0.000095
     9  H   -0.000001  -0.000005  -0.000014   0.000000  -0.000005  -0.000007
    10  O    0.000019   0.003889   0.002306  -0.000052   0.000935   0.003515
    11  O    0.000001   0.000007   0.000008  -0.000001   0.000001   0.000021
    12  C   -0.008905   0.419509   0.442145  -0.041950  -0.030065  -0.057494
    13  C    0.001130  -0.041629  -0.038480   0.416267   0.411019   0.415864
    14  C    0.417304   0.001450  -0.000964   0.000328  -0.002455   0.000571
    15  O    0.000234  -0.000006   0.000009  -0.000001  -0.000014   0.000008
    16  Si  -0.000297  -0.000001   0.000000   0.000000   0.000005   0.000000
    17  C   -0.000006   0.000000   0.000000   0.000000   0.000000   0.000000
    18  C    0.000043   0.000000   0.000000   0.000000   0.000000   0.000000
    19  C    0.000005   0.000000   0.000000   0.000000   0.000000   0.000000
    20  H    0.000011   0.000000   0.000000   0.000000   0.000000   0.000000
    21  H    0.000000   0.000000   0.000000   0.000000   0.000000   0.000000
    22  H   -0.000001   0.000000   0.000000   0.000000   0.000000   0.000000
    23  H    0.000000   0.000000   0.000000   0.000000   0.000000   0.000000
    24  H    0.000000   0.000000   0.000000   0.000000   0.000000   0.000000
    25  H    0.000000   0.000000   0.000000   0.000000   0.000000   0.000000
    26  H    0.000000   0.000000   0.000000   0.000000   0.000000   0.000000
    27  H    0.000000   0.000000   0.000000   0.000000   0.000000   0.000000
    28  H   -0.000002   0.000000   0.000000   0.000000   0.000000   0.000000
    29  H   -0.022536   0.000454   0.000029  -0.000003   0.000027   0.000016
    30  H   -0.026089  -0.008483   0.000365  -0.000049   0.001925  -0.000064
    31  H    0.508160   0.000082  -0.000098  -0.000009  -0.000074  -0.000019
    32  H    0.000082   0.518439  -0.017261  -0.003598  -0.002681   0.006001
    33  H   -0.000098  -0.017261   0.511560  -0.005759   0.005388  -0.001649
    34  H   -0.000009  -0.003598  -0.005759   0.513641  -0.022617  -0.022078
    35  H   -0.000074  -0.002681   0.005388  -0.022617   0.532350  -0.027889
    36  H   -0.000019   0.006001  -0.001649  -0.022078  -0.027889   0.515348
    37  C    0.003074   0.000132  -0.000058  -0.000002  -0.000048   0.000056
    38  C   -0.001582  -0.000056  -0.000003   0.000000   0.000003  -0.000003
    39  C   -0.003293   0.000051   0.000006   0.000000   0.000000   0.000001
    40  H   -0.000062  -0.000001   0.000000   0.000000   0.000001   0.000000
    41  H   -0.000251  -0.000015   0.000006   0.000002  -0.000002  -0.000007
    42  H   -0.002606  -0.000001   0.000000   0.000000   0.000000   0.000000
    43  H   -0.000075   0.000000   0.000000   0.000000   0.000000   0.000000
    44  H   -0.000018  -0.000001   0.000000   0.000000   0.000000   0.000000
              37         38         39         40         41         42
     1  C    0.047461  -0.014545  -0.003468  -0.002457   0.002178   0.000483
     2  C   -0.064228   0.020045   0.002302   0.014608  -0.025332  -0.004266
     3  C    0.142941  -0.006835  -0.002544  -0.068868   0.002817   0.007431
     4  C   -0.065601   0.005074  -0.000573   0.001732  -0.007783  -0.000416
     5  C    0.005157   0.000558   0.000073  -0.003495   0.001061  -0.000036
     6  H    0.010949   0.004182   0.001176   0.000721  -0.011699  -0.000076
     7  H    0.008961  -0.000744  -0.000208  -0.000283  -0.000639  -0.000247
     8  H    0.009646  -0.000636  -0.000008  -0.000614   0.000207   0.000008
     9  H   -0.014635   0.000705   0.000033   0.002886  -0.000779   0.000023
    10  O   -0.013565   0.001262  -0.000004   0.000025   0.005469  -0.000002
    11  O    0.002096   0.000026   0.000002  -0.000174  -0.000891   0.000001
    12  C   -0.003052   0.001006   0.000187   0.000030   0.001048   0.000022
    13  C    0.000363  -0.000031  -0.000015  -0.000001  -0.000095  -0.000003
    14  C   -0.009065  -0.015533  -0.002357  -0.000472   0.001995  -0.000958
    15  O   -0.083406   0.015929   0.003434  -0.004170   0.004235   0.004538
    16  Si   0.018615  -0.006459  -0.000004   0.004020   0.000515  -0.000710
    17  C   -0.001711   0.000629   0.000030   0.000301   0.000010   0.000137
    18  C    0.018446  -0.005043   0.000743  -0.005322   0.000037  -0.003006
    19  C   -0.014162   0.002003   0.000037  -0.000016  -0.000019   0.000249
    20  H   -0.003250  -0.001324   0.000215   0.000181  -0.000024   0.001431
    21  H    0.004818  -0.002165   0.001128   0.000369   0.000075  -0.003472
    22  H   -0.000586   0.000409   0.000001   0.000140   0.000001   0.000401
    23  H    0.001383  -0.000107  -0.000001  -0.000245   0.000000  -0.000010
    24  H    0.000273  -0.000046  -0.000001   0.000007   0.000003  -0.000005
    25  H   -0.003471   0.000388   0.000004   0.002757   0.000032   0.000018
    26  H    0.000067  -0.000024  -0.000001  -0.000007  -0.000001  -0.000009
    27  H    0.000089  -0.000026  -0.000001  -0.000004   0.000000  -0.000001
    28  H    0.000128  -0.000046   0.000000  -0.000012   0.000000   0.000046
    29  H   -0.002181  -0.001733   0.000203  -0.000089  -0.000154  -0.000635
    30  H    0.000029   0.000714   0.000284   0.000032  -0.000001   0.000191
    31  H    0.003074  -0.001582  -0.003293  -0.000062  -0.000251  -0.002606
    32  H    0.000132  -0.000056   0.000051  -0.000001  -0.000015  -0.000001
    33  H   -0.000058  -0.000003   0.000006   0.000000   0.000006   0.000000
    34  H   -0.000002   0.000000   0.000000   0.000000   0.000002   0.000000
    35  H   -0.000048   0.000003   0.000000   0.000001  -0.000002   0.000000
    36  H    0.000056  -0.000003   0.000001   0.000000  -0.000007   0.000000
    37  C    5.546010   0.123718  -0.048141   0.432087   0.408009  -0.061967
    38  C    0.123718   5.324542   0.510731  -0.044729  -0.047180   0.409662
    39  C   -0.048141   0.510731   5.016747  -0.007371   0.006563  -0.010362
    40  H    0.432087  -0.044729  -0.007371   0.491837  -0.010938   0.002849
    41  H    0.408009  -0.047180   0.006563  -0.010938   0.468380   0.002304
    42  H   -0.061967   0.409662  -0.010362   0.002849   0.002304   0.471991
    43  H    0.007072  -0.052102   0.425946  -0.000364   0.000140  -0.006458
    44  H    0.004186  -0.076177   0.442627   0.000869   0.000192   0.004214
              43         44
     1  C    0.000016   0.000028
     2  C   -0.000010  -0.000198
     3  C   -0.000221  -0.000661
     4  C    0.000025  -0.000033
     5  C    0.000002  -0.000003
     6  H   -0.000029   0.000071
     7  H   -0.000001  -0.000007
     8  H    0.000000   0.000001
     9  H   -0.000001   0.000004
    10  O    0.000000  -0.000005
    11  O    0.000000   0.000000
    12  C    0.000003  -0.000049
    13  C    0.000000   0.000000
    14  C    0.000030   0.000227
    15  O   -0.000006   0.000014
    16  Si   0.000013  -0.000013
    17  C    0.000000   0.000000
    18  C    0.000031  -0.000024
    19  C   -0.000001   0.000002
    20  H   -0.000022   0.000005
    21  H    0.000021  -0.000026
    22  H   -0.000001   0.000001
    23  H    0.000000   0.000000
    24  H    0.000000   0.000000
    25  H    0.000000   0.000001
    26  H    0.000000   0.000000
    27  H    0.000000   0.000000
    28  H    0.000000   0.000000
    29  H    0.000016  -0.000014
    30  H   -0.000009   0.000004
    31  H   -0.000075  -0.000018
    32  H    0.000000  -0.000001
    33  H    0.000000   0.000000
    34  H    0.000000   0.000000
    35  H    0.000000   0.000000
    36  H    0.000000   0.000000
    37  C    0.007072   0.004186
    38  C   -0.052102  -0.076177
    39  C    0.425946   0.442627
    40  H   -0.000364   0.000869
    41  H    0.000140   0.000192
    42  H   -0.006458   0.004214
    43  H    0.499408  -0.022764
    44  H   -0.022764   0.503725
 Mulliken charges:
               1
     1  C   -0.000856
     2  C   -0.202183
     3  C    0.231400
     4  C   -0.411881
     5  C    0.339386
     6  H    0.185019
     7  H    0.194142
     8  H    0.212894
     9  H    0.187225
    10  O   -0.240132
    11  O   -0.371470
    12  C   -0.288591
    13  C   -0.463391
    14  C   -0.500787
    15  O   -0.393827
    16  Si   0.488902
    17  C   -0.564481
    18  C   -0.592011
    19  C   -0.594207
    20  H    0.166917
    21  H    0.167331
    22  H    0.168973
    23  H    0.173696
    24  H    0.172014
    25  H    0.167545
    26  H    0.154790
    27  H    0.156679
    28  H    0.157601
    29  H    0.174396
    30  H    0.168061
    31  H    0.173342
    32  H    0.168521
    33  H    0.159726
    34  H    0.155880
    35  H    0.148497
    36  H    0.158973
    37  C   -0.406638
    38  C   -0.144457
    39  C   -0.334173
    40  H    0.194242
    41  H    0.200530
    42  H    0.189248
    43  H    0.149338
    44  H    0.143820
 Sum of Mulliken charges =   0.00000
 Mulliken charges with hydrogens summed into heavy atoms:
               1
     1  C    0.184162
     2  C   -0.008040
     3  C    0.231400
     4  C   -0.011763
     5  C    0.339386
    10  O   -0.240132
    11  O   -0.371470
    12  C    0.039656
    13  C   -0.000042
    14  C    0.015012
    15  O   -0.393827
    16  Si   0.488902
    17  C   -0.095412
    18  C   -0.088790
    19  C   -0.080952
    37  C   -0.011866
    38  C    0.044791
    39  C   -0.041014
 Electronic spatial extent (au):  <R**2>=           5546.1659
 Charge=              0.0000 electrons
 Dipole moment (field-independent basis, Debye):
    X=             -2.6808    Y=              3.4040    Z=              2.9304  Tot=              5.2308
 Quadrupole moment (field-independent basis, Debye-Ang):
   XX=           -119.0319   YY=           -126.1921   ZZ=           -126.5658
   XY=             12.3829   XZ=             10.1730   YZ=             -9.0903
 Traceless Quadrupole moment (field-independent basis, Debye-Ang):
   XX=              4.8980   YY=             -2.2622   ZZ=             -2.6358
   XY=             12.3829   XZ=             10.1730   YZ=             -9.0903
 Octapole moment (field-independent basis, Debye-Ang**2):
  XXX=            -13.9160  YYY=             22.6315  ZZZ=             10.2860  XYY=            -15.3024
  XXY=             16.7788  XXZ=             28.8489  XZZ=             -4.0233  YZZ=             19.5602
  YYZ=             24.9880  XYZ=            -26.7051
 Hexadecapole moment (field-independent basis, Debye-Ang**3):
 XXXX=          -4335.1158 YYYY=          -1793.3093 ZZZZ=          -1374.0226 XXXY=             90.7652
 XXXZ=             59.9792 YYYX=             36.0727 YYYZ=            -65.8354 ZZZX=             27.3088
 ZZZY=            -16.3974 XXYY=          -1106.9382 XXZZ=          -1011.4491 YYZZ=           -582.0789
 XXYZ=            -30.4965 YYXZ=             22.1832 ZZXY=             49.8254
 N-N= 1.624365564280D+03 E-N=-5.741770583597D+03  KE= 1.059308864474D+03
 1\1\GINC-CPU-E-98\SP\RM062X\def2TZVP\C14H26O3Si1\KE291\26-Jun-2019\0\\
 # m062x/def2tzvp int=ultrafine scrf=(solvent=chloroform)\\IP1_2ginp011
 \\0,1\C,0,2.466609,0.389133,0.070259\C,0,1.134387,0.325612,0.825774\C,
 0,-0.027469,-0.009618,-0.15289\C,0,0.302328,-1.404578,-0.715548\C,0,1.
 706941,-1.567333,-1.268155\H,0,2.455579,1.265243,-0.589562\H,0,1.16805
 4,-0.53101,1.510789\H,0,0.196623,-2.136814,0.093892\H,0,-0.384955,-1.7
 04914,-1.508616\O,0,2.685496,-0.759199,-0.812758\O,0,1.991106,-2.43166
 3,-2.071566\C,0,3.723701,0.472692,0.94405\C,0,3.901699,-0.67168,1.9462
 89\C,0,0.924226,1.58251,1.682778\O,0,-1.208606,-0.073557,0.640298\Si,0
 ,-2.831104,-0.46492,0.413812\C,0,-3.431593,-0.891094,2.144639\C,0,-3.7
 98854,1.012245,-0.250974\C,0,-3.09185,-1.935902,-0.740355\H,0,-3.69255
 4,1.886968,0.399372\H,0,-3.482062,1.301668,-1.258007\H,0,-4.865911,0.7
 6498,-0.30012\H,0,-2.547793,-2.825319,-0.407214\H,0,-4.158627,-2.18926
 5,-0.758367\H,0,-2.793856,-1.721303,-1.772017\H,0,-4.504992,-1.111148,
 2.142073\H,0,-2.90967,-1.768975,2.539452\H,0,-3.26243,-0.060642,2.8380
 05\H,0,-0.091862,1.58876,2.081374\H,0,1.615978,1.590805,2.529985\H,0,1
 .074496,2.501479,1.111605\H,0,3.713506,1.436946,1.463313\H,0,4.582046,
 0.500096,0.263615\H,0,4.866842,-0.583773,2.453844\H,0,3.124907,-0.6695
 91,2.717381\H,0,3.877028,-1.642028,1.44152\C,0,-0.209882,0.973049,-1.3
 41945\C,0,-0.50966,2.410814,-1.014411\C,0,0.066276,3.455707,-1.611992\
 H,0,-1.041118,0.568272,-1.937785\H,0,0.667931,0.925107,-1.997108\H,0,-
 1.2786,2.583572,-0.264751\H,0,-0.213313,4.476314,-1.367804\H,0,0.83508
 2,3.329459,-2.371166\\Version=ES64L-G09RevD.01\State=1-A\HF=-1064.3395
 004\RMSD=1.450e-09\Dipole=-1.0547266,1.3392446,1.1528983\Quadrupole=3.
 641564,-1.6818796,-1.9596844,9.2064,7.5633703,-6.7584342\PG=C01 [X(C14
 H26O3Si1)]\\@


 THE ONLY DIFFERENCE BETWEEN ECCENTRICS AND JOGGERS
 IS THAT JOGGERS WEAR SWEATBANDS WHEN THEY RUN IN THE RAIN.
 Job cpu time:       0 days  2 hours 21 minutes  0.4 seconds.
 File lengths (MBytes):  RWF=    405 Int=      0 D2E=      0 Chk=     21 Scr=      1
 Normal termination of Gaussian 09 at Wed Jun 26 13:54:27 2019.
