 Entering Gaussian System, Link 0=/usr/local/Cluster-Apps/gaussian/g09/g09
 Initial command:
 /usr/local/Cluster-Apps/gaussian/g09/l1.exe "/home/ke291/rds/hpc-work/26Jun1304IP1NMR/Gau-429782.inp" -scrdir="/home/ke291/rds/hpc-work/26Jun1304IP1NMR/"
 Entering Link 1 = /usr/local/Cluster-Apps/gaussian/g09/l1.exe PID=    429792.
  
 Copyright (c) 1988,1990,1992,1993,1995,1998,2003,2009,2013,
            Gaussian, Inc.  All Rights Reserved.
  
 This is part of the Gaussian(R) 09 program.  It is based on
 the Gaussian(R) 03 system (copyright 2003, Gaussian, Inc.),
 the Gaussian(R) 98 system (copyright 1998, Gaussian, Inc.),
 the Gaussian(R) 94 system (copyright 1995, Gaussian, Inc.),
 the Gaussian 92(TM) system (copyright 1992, Gaussian, Inc.),
 the Gaussian 90(TM) system (copyright 1990, Gaussian, Inc.),
 the Gaussian 88(TM) system (copyright 1988, Gaussian, Inc.),
 the Gaussian 86(TM) system (copyright 1986, Carnegie Mellon
 University), and the Gaussian 82(TM) system (copyright 1983,
 Carnegie Mellon University). Gaussian is a federally registered
 trademark of Gaussian, Inc.
  
 This software contains proprietary and confidential information,
 including trade secrets, belonging to Gaussian, Inc.
  
 This software is provided under written license and may be
 used, copied, transmitted, or stored only in accord with that
 written license.
  
 The following legend is applicable only to US Government
 contracts under FAR:
  
                    RESTRICTED RIGHTS LEGEND
  
 Use, reproduction and disclosure by the US Government is
 subject to restrictions as set forth in subparagraphs (a)
 and (c) of the Commercial Computer Software - Restricted
 Rights clause in FAR 52.227-19.
  
 Gaussian, Inc.
 340 Quinnipiac St., Bldg. 40, Wallingford CT 06492
  
  
 ---------------------------------------------------------------
 Warning -- This program may not be used in any manner that
 competes with the business of Gaussian, Inc. or will provide
 assistance to any competitor of Gaussian, Inc.  The licensee
 of this program is prohibited from giving any competitor of
 Gaussian, Inc. access to this program.  By using this program,
 the user acknowledges that Gaussian, Inc. is engaged in the
 business of creating and licensing software in the field of
 computational chemistry and represents and warrants to the
 licensee that it is not a competitor of Gaussian, Inc. and that
 it will not use this program in any manner prohibited above.
 ---------------------------------------------------------------
  

 Cite this work as:
 Gaussian 09, Revision D.01,
 M. J. Frisch, G. W. Trucks, H. B. Schlegel, G. E. Scuseria, 
 M. A. Robb, J. R. Cheeseman, G. Scalmani, V. Barone, B. Mennucci, 
 G. A. Petersson, H. Nakatsuji, M. Caricato, X. Li, H. P. Hratchian, 
 A. F. Izmaylov, J. Bloino, G. Zheng, J. L. Sonnenberg, M. Hada, 
 M. Ehara, K. Toyota, R. Fukuda, J. Hasegawa, M. Ishida, T. Nakajima, 
 Y. Honda, O. Kitao, H. Nakai, T. Vreven, J. A. Montgomery, Jr., 
 J. E. Peralta, F. Ogliaro, M. Bearpark, J. J. Heyd, E. Brothers, 
 K. N. Kudin, V. N. Staroverov, T. Keith, R. Kobayashi, J. Normand, 
 K. Raghavachari, A. Rendell, J. C. Burant, S. S. Iyengar, J. Tomasi, 
 M. Cossi, N. Rega, J. M. Millam, M. Klene, J. E. Knox, J. B. Cross, 
 V. Bakken, C. Adamo, J. Jaramillo, R. Gomperts, R. E. Stratmann, 
 O. Yazyev, A. J. Austin, R. Cammi, C. Pomelli, J. W. Ochterski, 
 R. L. Martin, K. Morokuma, V. G. Zakrzewski, G. A. Voth, 
 P. Salvador, J. J. Dannenberg, S. Dapprich, A. D. Daniels, 
 O. Farkas, J. B. Foresman, J. V. Ortiz, J. Cioslowski, 
 and D. J. Fox, Gaussian, Inc., Wallingford CT, 2013.
 
 ******************************************
 Gaussian 09:  ES64L-G09RevD.01 24-Apr-2013
                26-Jun-2019 
 ******************************************
 %nprocshared=4
 Will use up to    4 processors via shared memory.
 %mem=6000MB
 %chk=IP1_4ginp002.chk
 --------------------------------------------------------
 # m062x/def2tzvp int=ultrafine scrf=(solvent=chloroform)
 --------------------------------------------------------
 1/38=1/1;
 2/12=2,17=6,18=5,40=1/2;
 3/5=44,7=101,11=2,16=1,25=1,30=1,70=2201,72=7,74=-55,75=-5/1,2,3;
 4//1;
 5/5=2,38=5,53=7/2;
 6/7=2,8=2,9=2,10=2,28=1/1;
 99/5=1,9=1/99;
 ------------
 IP1_4ginp002
 ------------
 Symbolic Z-matrix:
 Charge =  0 Multiplicity = 1
 C                    -2.42995  -0.11099   0.06317 
 C                    -1.11669   0.24463   0.77464 
 C                     0.06528   0.04326  -0.21388 
 C                     0.07634  -1.43399  -0.63845 
 C                    -1.27451  -2.02126  -1.01731 
 H                    -2.58001   0.58348  -0.77056 
 H                    -1.16197   1.31743   0.99329 
 H                     0.75119  -1.61506  -1.47942 
 H                     0.43943  -2.04451   0.19538 
 O                    -2.39653  -1.44986  -0.53215 
 O                    -1.37242  -3.03396  -1.67881 
 C                    -3.69411  -0.08705   0.92261 
 C                    -4.02411   1.30245   1.47761 
 C                    -0.92205  -0.51184   2.0985 
 O                     1.25817   0.40511   0.47818 
 Si                    2.89113   0.01222   0.35484 
 C                     3.74002   1.30936   1.41959 
 C                     3.23047  -1.70842   1.05391 
 C                     3.53128   0.10777  -1.41897 
 H                     4.31177  -1.87411   1.12796 
 H                     2.81003  -1.81792   2.05931 
 H                     2.82024  -2.5071    0.42768 
 H                     4.6102   -0.08759  -1.42678 
 H                     3.06398  -0.63148  -2.07812 
 H                     3.37271   1.09947  -1.85523 
 H                     4.82226   1.14068   1.44872 
 H                     3.5681    2.31806   1.02991 
 H                     3.36951   1.28016   2.44957 
 H                    -1.64134  -0.17378   2.84888 
 H                    -1.05506  -1.59232   1.98323 
 H                     0.08009  -0.32961   2.48917 
 H                    -3.59964  -0.81397   1.73587 
 H                    -4.51788  -0.4354    0.28996 
 H                    -4.98707   1.28623   1.99595 
 H                    -3.2713    1.64981   2.19206 
 H                    -4.08987   2.04606   0.67581 
 C                    -0.05426   0.94736  -1.47405 
 C                    -0.18458   2.4153   -1.17576 
 C                    -1.11284   3.22122  -1.69466 
 H                    -0.88581   0.61892  -2.10794 
 H                     0.85755   0.77432  -2.05949 
 H                     0.55532   2.82481  -0.4897 
 H                    -1.14606   4.28009  -1.45524 
 H                    -1.86761   2.85533  -2.38747 
 
                          Input orientation:                          
 ---------------------------------------------------------------------
 Center     Atomic      Atomic             Coordinates (Angstroms)
 Number     Number       Type             X           Y           Z
 ---------------------------------------------------------------------
      1          6           0       -2.429946   -0.110986    0.063173
      2          6           0       -1.116690    0.244628    0.774643
      3          6           0        0.065283    0.043257   -0.213875
      4          6           0        0.076339   -1.433985   -0.638452
      5          6           0       -1.274510   -2.021260   -1.017313
      6          1           0       -2.580006    0.583482   -0.770555
      7          1           0       -1.161965    1.317432    0.993289
      8          1           0        0.751189   -1.615061   -1.479418
      9          1           0        0.439429   -2.044513    0.195381
     10          8           0       -2.396527   -1.449862   -0.532148
     11          8           0       -1.372424   -3.033965   -1.678812
     12          6           0       -3.694109   -0.087052    0.922609
     13          6           0       -4.024111    1.302445    1.477605
     14          6           0       -0.922053   -0.511841    2.098503
     15          8           0        1.258171    0.405111    0.478175
     16         14           0        2.891128    0.012215    0.354839
     17          6           0        3.740015    1.309355    1.419590
     18          6           0        3.230467   -1.708416    1.053909
     19          6           0        3.531279    0.107767   -1.418965
     20          1           0        4.311772   -1.874113    1.127964
     21          1           0        2.810034   -1.817919    2.059305
     22          1           0        2.820244   -2.507099    0.427681
     23          1           0        4.610197   -0.087588   -1.426781
     24          1           0        3.063981   -0.631476   -2.078117
     25          1           0        3.372712    1.099466   -1.855234
     26          1           0        4.822259    1.140680    1.448723
     27          1           0        3.568103    2.318059    1.029907
     28          1           0        3.369510    1.280159    2.449565
     29          1           0       -1.641337   -0.173778    2.848879
     30          1           0       -1.055062   -1.592323    1.983228
     31          1           0        0.080086   -0.329605    2.489168
     32          1           0       -3.599641   -0.813967    1.735874
     33          1           0       -4.517885   -0.435401    0.289964
     34          1           0       -4.987067    1.286230    1.995948
     35          1           0       -3.271301    1.649808    2.192061
     36          1           0       -4.089874    2.046060    0.675812
     37          6           0       -0.054260    0.947356   -1.474050
     38          6           0       -0.184584    2.415296   -1.175764
     39          6           0       -1.112839    3.221223   -1.694657
     40          1           0       -0.885814    0.618915   -2.107938
     41          1           0        0.857553    0.774316   -2.059490
     42          1           0        0.555316    2.824814   -0.489703
     43          1           0       -1.146064    4.280088   -1.455235
     44          1           0       -1.867609    2.855327   -2.387469
 ---------------------------------------------------------------------
                    Distance matrix (angstroms):
                    1          2          3          4          5
     1  C    0.000000
     2  C    1.535348   0.000000
     3  C    2.515296   1.553956   0.000000
     4  C    2.919601   2.497578   1.537085   0.000000
     5  C    2.480248   2.893140   2.588974   1.520928   0.000000
     6  H    1.095402   2.154937   2.756681   3.338232   2.924020
     7  H    2.124446   1.095794   2.141706   3.430200   3.898981
     8  H    3.842063   3.468170   2.195925   1.093359   2.117072
     9  H    3.462560   2.827935   2.160153   1.095380   2.099703
    10  O    1.465644   2.493388   2.896759   2.475201   1.349371
    11  O    3.563239   4.102927   3.698964   2.396080   1.213565
    12  C    1.528827   2.602882   3.929581   4.297373   3.654985
    13  C    2.557297   3.172732   4.601065   5.364647   4.983165
    14  C    2.564565   1.537119   2.574890   3.055824   3.480069
    15  O    3.747104   2.398669   1.425782   2.454762   3.812904
    16  Si   5.330486   4.036441   2.882672   3.316799   4.834290
    17  C    6.475002   5.013700   4.216025   5.018364   6.494379
    18  C    5.964362   4.773902   3.833279   3.589975   4.968164
    19  C    6.146608   5.141426   3.670086   3.863005   5.271593
    20  H    7.049337   5.837988   4.848660   4.610079   5.985851
    21  H    5.861361   4.617750   4.020570   3.859843   5.117658
    22  H    5.782622   4.815790   3.808638   3.133246   4.369331
    23  H    7.196119   6.144418   4.705795   4.794801   6.207780
    24  H    5.919397   5.136517   3.594837   3.412134   4.677532
    25  H    6.230274   5.272735   3.840407   4.331860   5.660187
    26  H    7.488718   6.043874   5.157266   5.788692   7.297245
    27  H    6.543044   5.129480   4.357920   5.390146   6.817015
    28  H    6.423694   4.899355   4.420606   5.267580   6.669748
    29  H    2.895860   2.180086   3.512850   4.086565   4.300604
    30  H    2.787701   2.199742   2.959317   2.859781   3.038979
    31  H    3.497643   2.168320   2.728679   3.316877   4.122140
    32  H    2.158772   2.865246   4.238870   4.419805   3.800504
    33  H    2.125128   3.502211   4.635558   4.792288   3.839714
    34  H    3.496670   4.190028   5.652835   6.322793   5.813976
    35  H    2.887982   2.936997   4.416144   5.359877   5.269155
    36  H    2.789899   3.477750   4.697669   5.585278   5.228388
    37  C    3.021097   2.584416   1.555547   2.527066   3.241959
    38  C    3.599822   3.063447   2.571815   3.895350   4.571222
    39  C    3.991034   3.867502   3.698669   4.919418   5.288531
    40  H    2.762394   2.915933   2.196234   2.701763   2.882893
    41  H    4.012120   3.494355   2.137389   2.739751   3.667025
    42  H    4.223314   3.324385   2.837829   4.288230   5.206829
    43  H    4.820316   4.610657   4.578108   5.900172   6.317853
    44  H    3.888558   4.168763   4.045778   5.023564   5.100019
                    6          7          8          9         10
     6  H    0.000000
     7  H    2.379216   0.000000
     8  H    4.053756   4.286485   0.000000
     9  H    4.117812   3.808385   1.756865   0.000000
    10  O    2.055478   3.392494   3.291311   2.987567   0.000000
    11  O    3.920345   5.110682   2.561792   2.788266   2.207489
    12  C    2.134864   2.896433   5.278752   4.631053   2.378505
    13  C    2.767051   2.902872   6.329243   5.724458   3.776682
    14  C    3.489991   2.150650   4.101018   2.797247   3.158209
    15  O    4.040142   2.637182   2.858373   2.598263   4.221196
    16  Si   5.614817   4.305668   3.254515   3.204120   5.557311
    17  C    6.728023   4.920488   5.088176   4.862200   7.005691
    18  C    6.507155   5.334125   3.545882   2.939375   5.851964
    19  C    6.163971   5.413760   3.271191   4.098531   6.192862
    20  H    7.559150   6.337657   4.420780   3.986701   6.923672
    21  H    6.544262   5.171421   4.099092   3.024124   5.827467
    22  H    6.336415   5.550220   2.951906   2.436438   5.408671
    23  H    7.251206   6.414723   4.150649   4.884288   7.193771
    24  H    5.919496   5.575876   2.583580   3.748832   5.733840
    25  H    6.072695   5.359560   3.792397   4.763798   6.444668
    26  H    7.747851   6.004132   5.722039   5.561072   7.921214
    27  H    6.636992   4.834888   5.449876   5.432961   7.225929
    28  H    6.800829   4.759873   5.538485   4.971938   7.042074
    29  H    3.815081   2.428316   5.151275   3.856201   3.691889
    30  H    3.826605   3.075399   3.905506   2.373684   2.854284
    31  H    4.305300   2.548151   4.225216   2.886433   4.064104
    32  H    3.045440   3.322132   5.468965   4.494602   2.644952
    33  H    2.432735   3.850882   5.682029   5.212787   2.491016
    34  H    3.733810   3.954454   7.309120   6.616853   4.537441
    35  H    3.223668   2.448842   6.349768   5.603950   4.218353
    36  H    2.551630   3.033866   6.440863   6.121943   4.067931
    37  C    2.647018   2.729785   2.686030   3.461504   3.481386
    38  C    3.042661   2.620185   4.148693   4.707369   4.499598
    39  C    3.156615   3.294220   5.187540   5.806010   4.981799
    40  H    2.158735   3.190892   2.839976   3.762366   3.007525
    41  H    3.676219   3.700390   2.461081   3.633878   4.227148
    42  H    3.864284   2.724063   4.553064   4.918650   5.195001
    43  H    4.023664   3.843547   6.192975   6.725987   5.937009
    44  H    2.878055   3.780553   5.259946   6.000164   4.717693
                   11         12         13         14         15
    11  O    0.000000
    12  C    4.565294   0.000000
    13  C    5.983215   1.532196   0.000000
    14  C    4.564214   3.040965   3.646904   0.000000
    15  O    4.837341   4.996481   5.450374   2.866992   0.000000
    16  Si   5.620749   6.610413   7.123611   4.225559   1.684081
    17  C    7.389287   7.580445   7.764346   5.050996   2.804188
    18  C    5.514658   7.113073   7.865984   4.445941   2.947612
    19  C    5.829606   7.597839   8.179321   5.708648   2.975664
    20  H    6.444636   8.205479   8.927470   5.494602   3.865432
    21  H    5.739795   6.825823   7.535289   3.954219   3.138489
    22  H    4.721585   6.966949   7.903174   4.558233   3.305085
    23  H    6.673561   8.630245   9.215146   6.573691   3.886861
    24  H    5.060937   7.414347   8.162368   5.774680   3.296982
    25  H    6.295450   7.685323   8.115541   6.055853   3.224626
    26  H    8.098348   8.620478   8.847896   6.012500   3.766397
    27  H    7.771108   7.650869   7.672915   5.414031   3.049519
    28  H    7.625031   7.354969   7.457267   4.663906   3.018251
    29  H    5.362180   2.816365   3.120455   1.093033   3.789788
    30  H    3.948365   3.217969   4.177390   1.094724   3.406754
    31  H    5.176428   4.093591   4.531146   1.090922   2.443724
    32  H    4.642087   1.094865   2.173954   2.718871   5.163942
    33  H    4.530181   1.095533   2.162039   4.025750   5.839924
    34  H    6.725592   2.170184   1.093721   4.446112   6.487141
    35  H    6.366092   2.192478   1.094455   3.193814   5.000279
    36  H    6.223780   2.183508   1.095518   4.313003   5.597621
    37  C    4.198857   4.479115   4.959644   3.955434   2.414060
    38  C    5.599863   4.793921   4.797997   4.453405   2.976222
    39  C    6.260592   4.945475   4.713858   5.325432   4.274737
    40  H    3.710050   4.191554   4.813755   4.355923   3.366061
    41  H    4.429528   5.509310   6.051496   4.702138   2.595487
    42  H    6.281358   5.341461   5.211435   4.473779   2.699214
    43  H    7.320970   5.587360   5.074551   5.970077   4.953167
    44  H    5.952408   4.790648   4.690495   5.688220   4.897548
                   16         17         18         19         20
    16  Si   0.000000
    17  C    1.880658   0.000000
    18  C    1.887967   3.082256   0.000000
    19  C    1.888201   3.089463   3.082874   0.000000
    20  H    2.484791   3.247525   1.096431   3.320221   0.000000
    21  H    2.502233   3.324747   1.095252   4.040646   1.767985
    22  H    2.521363   4.049097   1.094687   3.279207   1.765141
    23  H    2.477767   3.287932   3.268725   1.096489   3.131685
    24  H    2.522596   4.056822   3.316188   1.095139   3.657880
    25  H    2.509673   3.302035   4.045683   1.094962   4.315493
    26  H    2.489836   1.095697   3.287404   3.310162   3.074485
    27  H    2.496183   1.094939   4.040678   3.299048   4.258752
    28  H    2.494876   1.094977   3.301328   4.045516   3.547382
    29  H    5.176685   5.762074   5.414010   6.711909   6.425900
    30  H    4.560549   5.632955   4.386670   5.958166   5.441855
    31  H    3.546006   4.150333   3.726391   5.232163   4.705906
    32  H    6.687295   7.647162   6.922102   7.851918   8.005243
    33  H    7.422806   8.515465   7.889305   8.246485   8.985265
    34  H    8.147534   8.746124   8.796773   9.252709   9.859491
    35  H    6.635708   7.061952   7.405812   7.854457   8.429313
    36  H    7.278320   7.899563   8.235681   8.138000   9.282233
    37  C    3.590910   4.785470   4.922716   3.682938   5.813209
    38  C    4.192559   4.833368   5.799915   4.380808   6.627474
    39  C    5.525388   6.074863   7.121816   5.597986   7.959651
    40  H    4.549576   5.858196   5.688367   4.499630   6.610685
    41  H    3.247339   4.549599   4.635508   2.829023   5.394967
    42  H    3.752330   4.010527   5.485376   4.135484   6.229585
    43  H    6.147359   6.400284   7.830198   6.267943   8.621779
    44  H    6.184587   6.951919   7.659061   6.134743   8.538772
                   21         22         23         24         25
    21  H    0.000000
    22  H    1.771234   0.000000
    23  H    4.288056   3.535109   0.000000
    24  H    4.311658   3.139489   1.763756   0.000000
    25  H    4.914403   4.303979   1.767495   1.772330   0.000000
    26  H    3.629761   4.284493   3.134029   4.320958   3.608187
    27  H    4.329046   4.919768   3.592828   4.314361   3.138022
    28  H    3.172287   4.328167   4.293727   4.924185   4.308591
    29  H    4.810544   5.586796   7.574323   6.828235   6.992175
    30  H    3.872422   4.274873   6.781412   5.863810   6.448620
    31  H    3.138866   4.061979   5.992924   5.463959   5.635376
    32  H    6.495880   6.767052   8.827879   7.680084   8.072855
    33  H    7.664223   7.626207   9.294626   7.945498   8.319808
    34  H    8.392529   8.820596  10.281533   9.224694   9.206106
    35  H    7.001813   7.582864   8.844918   7.973360   7.799127
    36  H    8.028270   8.279043   9.201336   8.119789   7.936777
    37  C    5.323112   4.879817   4.778128   3.546975   3.451460
    38  C    6.111752   5.985817   5.414551   4.544253   3.853238
    39  C    7.407706   7.265475   6.616126   5.695275   4.964656
    40  H    6.079751   5.471398   5.582944   4.143096   4.292998
    41  H    5.243695   4.561344   3.901991   2.616280   2.544301
    42  H    5.756402   5.865219   5.079593   4.556578   3.574804
    43  H    8.073933   8.083494   7.225783   6.498917   5.540369
    44  H    7.968273   7.658763   7.179529   6.047650   5.552233
                   26         27         28         29         30
    26  H    0.000000
    27  H    1.770462   0.000000
    28  H    1.769638   1.769775   0.000000
    29  H    6.742871   6.054434   5.232779   0.000000
    30  H    6.503684   6.129728   5.295796   1.762197   0.000000
    31  H    5.072718   4.615824   3.662406   1.765495   1.771720
    32  H    8.650520   7.853950   7.311893   2.341704   2.672434
    33  H    9.542801   8.573929   8.355718   3.858889   4.024519
    34  H    9.825656   8.671150   8.368882   3.748736   4.873078
    35  H    8.143554   6.969549   6.656074   2.532520   3.932778
    36  H    8.991286   7.670983   7.705531   3.955406   4.915003
    37  C    5.688621   4.611956   5.218018   4.739564   4.405036
    38  C    5.794916   4.353975   5.202224   5.002318   5.176676
    39  C    7.030995   5.490917   6.405760   5.696408   6.058086
    40  H    6.745678   5.707060   6.270236   5.076338   4.653585
    41  H    5.306663   4.390284   5.186269   5.588866   5.059906
    42  H    4.980021   3.412169   4.352579   4.996295   5.312232
    43  H    7.342325   5.678808   6.681126   6.213503   6.805624
    44  H    7.900045   6.443142   7.301059   6.053595   6.288467
                   31         32         33         34         35
    31  H    0.000000
    32  H    3.787143   0.000000
    33  H    5.097944   1.754178   0.000000
    34  H    5.341370   2.530497   2.468709   0.000000
    35  H    3.903606   2.527074   3.085456   1.764795   0.000000
    36  H    5.130362   3.089306   2.547493   1.767783   1.768075
    37  C    4.166026   5.096626   4.994768   6.040555   4.927795
    38  C    4.586530   5.528869   5.390021   5.865014   4.632066
    39  C    5.615678   5.851110   5.376240   5.689851   4.715388
    40  H    4.792289   4.918628   4.478109   5.840160   5.024269
    41  H    4.744827   6.065807   5.989882   7.132196   5.990794
    42  H    4.364616   5.954627   6.080646   6.266076   4.818246
    43  H    6.189590   6.492504   6.053985   5.968849   4.973708
    44  H    6.141571   5.784947   5.002150   5.604233   4.939203
                   36         37         38         39         40
    36  H    0.000000
    37  C    4.702684   0.000000
    38  C    4.337737   1.503598   0.000000
    39  C    3.982822   2.517882   1.334326   0.000000
    40  H    4.477947   1.095979   2.141882   2.644683   0.000000
    41  H    5.794501   1.097308   2.135377   3.162736   1.750950
    42  H    4.852079   2.205758   1.088961   2.095661   3.092172
    43  H    4.265942   3.507063   2.116600   1.086104   3.727994
    44  H    3.870021   2.786202   2.120007   1.087909   2.458373
                   41         42         43         44
    41  H    0.000000
    42  H    2.600023   0.000000
    43  H    4.082896   2.438190   0.000000
    44  H    3.444515   3.077826   1.849225   0.000000
 Stoichiometry    C14H26O3Si
 Framework group  C1[X(C14H26O3Si)]
 Deg. of freedom   126
 Full point group                 C1      NOp   1
 Largest Abelian subgroup         C1      NOp   1
 Largest concise Abelian subgroup C1      NOp   1
                         Standard orientation:                         
 ---------------------------------------------------------------------
 Center     Atomic      Atomic             Coordinates (Angstroms)
 Number     Number       Type             X           Y           Z
 ---------------------------------------------------------------------
      1          6           0       -2.429946   -0.110986    0.063173
      2          6           0       -1.116690    0.244628    0.774643
      3          6           0        0.065283    0.043257   -0.213875
      4          6           0        0.076339   -1.433985   -0.638452
      5          6           0       -1.274510   -2.021260   -1.017313
      6          1           0       -2.580006    0.583482   -0.770555
      7          1           0       -1.161965    1.317432    0.993289
      8          1           0        0.751189   -1.615061   -1.479418
      9          1           0        0.439429   -2.044513    0.195381
     10          8           0       -2.396527   -1.449862   -0.532148
     11          8           0       -1.372424   -3.033965   -1.678812
     12          6           0       -3.694109   -0.087052    0.922609
     13          6           0       -4.024111    1.302445    1.477605
     14          6           0       -0.922053   -0.511841    2.098503
     15          8           0        1.258171    0.405111    0.478175
     16         14           0        2.891128    0.012215    0.354839
     17          6           0        3.740015    1.309355    1.419590
     18          6           0        3.230467   -1.708416    1.053909
     19          6           0        3.531279    0.107767   -1.418965
     20          1           0        4.311772   -1.874113    1.127964
     21          1           0        2.810034   -1.817919    2.059305
     22          1           0        2.820244   -2.507099    0.427681
     23          1           0        4.610197   -0.087588   -1.426781
     24          1           0        3.063981   -0.631476   -2.078117
     25          1           0        3.372712    1.099466   -1.855234
     26          1           0        4.822259    1.140680    1.448723
     27          1           0        3.568103    2.318059    1.029907
     28          1           0        3.369510    1.280159    2.449565
     29          1           0       -1.641337   -0.173778    2.848879
     30          1           0       -1.055062   -1.592323    1.983228
     31          1           0        0.080086   -0.329605    2.489168
     32          1           0       -3.599641   -0.813967    1.735874
     33          1           0       -4.517885   -0.435401    0.289964
     34          1           0       -4.987067    1.286230    1.995948
     35          1           0       -3.271301    1.649808    2.192061
     36          1           0       -4.089874    2.046060    0.675812
     37          6           0       -0.054260    0.947356   -1.474050
     38          6           0       -0.184584    2.415296   -1.175764
     39          6           0       -1.112839    3.221223   -1.694657
     40          1           0       -0.885814    0.618915   -2.107938
     41          1           0        0.857553    0.774316   -2.059490
     42          1           0        0.555316    2.824814   -0.489703
     43          1           0       -1.146064    4.280088   -1.455235
     44          1           0       -1.867609    2.855327   -2.387469
 ---------------------------------------------------------------------
 Rotational constants (GHZ):      0.5016596      0.2619131      0.2332664
 Standard basis: def2TZVP (5D, 7F)
 There are   810 symmetry adapted cartesian basis functions of A   symmetry.
 There are   720 symmetry adapted basis functions of A   symmetry.
   720 basis functions,  1144 primitive gaussians,   810 cartesian basis functions
    74 alpha electrons       74 beta electrons
       nuclear repulsion energy      1626.5293495765 Hartrees.
 NAtoms=   44 NActive=   44 NUniq=   44 SFac= 1.00D+00 NAtFMM=   60 NAOKFM=F Big=F
 Integral buffers will be    131072 words long.
 Raffenetti 2 integral format.
 Two-electron integral symmetry is turned on.
 ------------------------------------------------------------------------------
 Polarizable Continuum Model (PCM)
 =================================
 Model                : PCM (using non-symmetric T matrix).
 Atomic radii         : UFF (Universal Force Field).
 Polarization charges : Total charges.
 Charge compensation  : None.
 Solution method      : On-the-fly selection.
 Cavity type          : Scaled VdW (van der Waals Surface) (Alpha=1.100).
 Cavity algorithm     : GePol (No added spheres)
                        Default sphere list used, NSphG=   44.
                        Lebedev-Laikov grids with approx.  5.0 points / Ang**2.
                        Smoothing algorithm: Karplus/York (Gamma=1.0000).
                        Polarization charges: spherical gaussians, with
                                              point-specific exponents (IZeta= 3).
                        Self-potential: point-specific (ISelfS= 7).
                        Self-field    : sphere-specific E.n sum rule (ISelfD= 2).
 Solvent              : Chloroform, Eps=   4.711300 Eps(inf)=   2.090627
 ------------------------------------------------------------------------------
 One-electron integrals computed using PRISM.
   1 Symmetry operations used in ECPInt.
 ECPInt:  NShTT=   46360 NPrTT=  137514 LenC2=   42119 LenP2D=   90357.
 LDataN:  DoStor=T MaxTD1= 6 Len=  172
 NBasis=   720 RedAO= T EigKep=  4.56D-05  NBF=   720
 NBsUse=   720 1.00D-06 EigRej= -1.00D+00 NBFU=   720
 ExpMin= 7.01D-02 ExpMax= 4.48D+04 ExpMxC= 1.53D+03 IAcc=3 IRadAn=         5 AccDes= 0.00D+00
 Harris functional with IExCor= 1009 and IRadAn=       5 diagonalized for initial guess.
 HarFok:  IExCor= 1009 AccDes= 0.00D+00 IRadAn=         5 IDoV= 1 UseB2=F ITyADJ=14
 ICtDFT=  3500011 ScaDFX=  1.000000  1.000000  1.000000  1.000000
 FoFCou: FMM=F IPFlag=           0 FMFlag=      100000 FMFlg1=           0
         NFxFlg=           0 DoJE=T BraDBF=F KetDBF=T FulRan=T
         wScrn=  0.000000 ICntrl=     500 IOpCl=  0 I1Cent=   200000004 NGrid=           0
         NMat0=    1 NMatS0=      1 NMatT0=    0 NMatD0=    1 NMtDS0=    0 NMtDT0=    0
 Petite list used in FoFCou.
 Requested convergence on RMS density matrix=1.00D-08 within 128 cycles.
 Requested convergence on MAX density matrix=1.00D-06.
 Requested convergence on             energy=1.00D-06.
 No special actions if energy rises.
 Inv3:  Mode=1 IEnd=    24986988.
 Iteration    1 A*A^-1 deviation from unit magnitude is 4.22D-15 for   2876.
 Iteration    1 A*A^-1 deviation from orthogonality  is 2.88D-15 for   2552   1509.
 Iteration    1 A^-1*A deviation from unit magnitude is 3.77D-15 for   2876.
 Iteration    1 A^-1*A deviation from orthogonality  is 1.56D-09 for   2367   2360.
 Iteration    2 A*A^-1 deviation from unit magnitude is 2.78D-15 for      4.
 Iteration    2 A*A^-1 deviation from orthogonality  is 2.70D-15 for   2041    809.
 Iteration    2 A^-1*A deviation from unit magnitude is 9.99D-16 for   1290.
 Iteration    2 A^-1*A deviation from orthogonality  is 4.44D-16 for   2682   1667.
 Error on total polarization charges =  0.01462
 SCF Done:  E(RM062X) =  -1064.34186648     A.U. after   14 cycles
            NFock= 14  Conv=0.16D-08     -V/T= 2.0047

 **********************************************************************

            Population analysis using the SCF density.

 **********************************************************************

 Orbital symmetries:
       Occupied  (A) (A) (A) (A) (A) (A) (A) (A) (A) (A) (A) (A)
                 (A) (A) (A) (A) (A) (A) (A) (A) (A) (A) (A) (A)
                 (A) (A) (A) (A) (A) (A) (A) (A) (A) (A) (A) (A)
                 (A) (A) (A) (A) (A) (A) (A) (A) (A) (A) (A) (A)
                 (A) (A) (A) (A) (A) (A) (A) (A) (A) (A) (A) (A)
                 (A) (A) (A) (A) (A) (A) (A) (A) (A) (A) (A) (A)
                 (A) (A)
       Virtual   (A) (A) (A) (A) (A) (A) (A) (A) (A) (A) (A) (A)
                 (A) (A) (A) (A) (A) (A) (A) (A) (A) (A) (A) (A)
                 (A) (A) (A) (A) (A) (A) (A) (A) (A) (A) (A) (A)
                 (A) (A) (A) (A) (A) (A) (A) (A) (A) (A) (A) (A)
                 (A) (A) (A) (A) (A) (A) (A) (A) (A) (A) (A) (A)
                 (A) (A) (A) (A) (A) (A) (A) (A) (A) (A) (A) (A)
                 (A) (A) (A) (A) (A) (A) (A) (A) (A) (A) (A) (A)
                 (A) (A) (A) (A) (A) (A) (A) (A) (A) (A) (A) (A)
                 (A) (A) (A) (A) (A) (A) (A) (A) (A) (A) (A) (A)
                 (A) (A) (A) (A) (A) (A) (A) (A) (A) (A) (A) (A)
                 (A) (A) (A) (A) (A) (A) (A) (A) (A) (A) (A) (A)
                 (A) (A) (A) (A) (A) (A) (A) (A) (A) (A) (A) (A)
                 (A) (A) (A) (A) (A) (A) (A) (A) (A) (A) (A) (A)
                 (A) (A) (A) (A) (A) (A) (A) (A) (A) (A) (A) (A)
                 (A) (A) (A) (A) (A) (A) (A) (A) (A) (A) (A) (A)
                 (A) (A) (A) (A) (A) (A) (A) (A) (A) (A) (A) (A)
                 (A) (A) (A) (A) (A) (A) (A) (A) (A) (A) (A) (A)
                 (A) (A) (A) (A) (A) (A) (A) (A) (A) (A) (A) (A)
                 (A) (A) (A) (A) (A) (A) (A) (A) (A) (A) (A) (A)
                 (A) (A) (A) (A) (A) (A) (A) (A) (A) (A) (A) (A)
                 (A) (A) (A) (A) (A) (A) (A) (A) (A) (A) (A) (A)
                 (A) (A) (A) (A) (A) (A) (A) (A) (A) (A) (A) (A)
                 (A) (A) (A) (A) (A) (A) (A) (A) (A) (A) (A) (A)
                 (A) (A) (A) (A) (A) (A) (A) (A) (A) (A) (A) (A)
                 (A) (A) (A) (A) (A) (A) (A) (A) (A) (A) (A) (A)
                 (A) (A) (A) (A) (A) (A) (A) (A) (A) (A) (A) (A)
                 (A) (A) (A) (A) (A) (A) (A) (A) (A) (A) (A) (A)
                 (A) (A) (A) (A) (A) (A) (A) (A) (A) (A) (A) (A)
                 (A) (A) (A) (A) (A) (A) (A) (A) (A) (A) (A) (A)
                 (A) (A) (A) (A) (A) (A) (A) (A) (A) (A) (A) (A)
                 (A) (A) (A) (A) (A) (A) (A) (A) (A) (A) (A) (A)
                 (A) (A) (A) (A) (A) (A) (A) (A) (A) (A) (A) (A)
                 (A) (A) (A) (A) (A) (A) (A) (A) (A) (A) (A) (A)
                 (A) (A) (A) (A) (A) (A) (A) (A) (A) (A) (A) (A)
                 (A) (A) (A) (A) (A) (A) (A) (A) (A) (A) (A) (A)
                 (A) (A) (A) (A) (A) (A) (A) (A) (A) (A) (A) (A)
                 (A) (A) (A) (A) (A) (A) (A) (A) (A) (A) (A) (A)
                 (A) (A) (A) (A) (A) (A) (A) (A) (A) (A) (A) (A)
                 (A) (A) (A) (A) (A) (A) (A) (A) (A) (A) (A) (A)
                 (A) (A) (A) (A) (A) (A) (A) (A) (A) (A) (A) (A)
                 (A) (A) (A) (A) (A) (A) (A) (A) (A) (A) (A) (A)
                 (A) (A) (A) (A) (A) (A) (A) (A) (A) (A) (A) (A)
                 (A) (A) (A) (A) (A) (A) (A) (A) (A) (A) (A) (A)
                 (A) (A) (A) (A) (A) (A) (A) (A) (A) (A) (A) (A)
                 (A) (A) (A) (A) (A) (A) (A) (A) (A) (A) (A) (A)
                 (A) (A) (A) (A) (A) (A) (A) (A) (A) (A) (A) (A)
                 (A) (A) (A) (A) (A) (A) (A) (A) (A) (A) (A) (A)
                 (A) (A) (A) (A) (A) (A) (A) (A) (A) (A) (A) (A)
                 (A) (A) (A) (A) (A) (A) (A) (A) (A) (A) (A) (A)
                 (A) (A) (A) (A) (A) (A) (A) (A) (A) (A) (A) (A)
                 (A) (A) (A) (A) (A) (A) (A) (A) (A) (A) (A) (A)
                 (A) (A) (A) (A) (A) (A) (A) (A) (A) (A) (A) (A)
                 (A) (A) (A) (A) (A) (A) (A) (A) (A) (A) (A) (A)
                 (A) (A) (A) (A) (A) (A) (A) (A) (A) (A)
 The electronic state is 1-A.
 Alpha  occ. eigenvalues --  -67.01763 -19.67338 -19.62041 -19.61753 -10.68406
 Alpha  occ. eigenvalues --  -10.62131 -10.60885 -10.55934 -10.55299 -10.54857
 Alpha  occ. eigenvalues --  -10.54761 -10.54056 -10.53643 -10.53121 -10.52932
 Alpha  occ. eigenvalues --  -10.51306 -10.51092 -10.50896  -5.55213  -3.86399
 Alpha  occ. eigenvalues --   -3.86256  -3.86243  -1.22973  -1.14306  -1.13431
 Alpha  occ. eigenvalues --   -0.93690  -0.90578  -0.88347  -0.84571  -0.81006
 Alpha  occ. eigenvalues --   -0.80303  -0.78684  -0.77061  -0.76885  -0.73724
 Alpha  occ. eigenvalues --   -0.69845  -0.68472  -0.64870  -0.60839  -0.59384
 Alpha  occ. eigenvalues --   -0.58923  -0.57582  -0.57061  -0.54043  -0.53467
 Alpha  occ. eigenvalues --   -0.52205  -0.50526  -0.50400  -0.49737  -0.49046
 Alpha  occ. eigenvalues --   -0.48220  -0.47771  -0.47458  -0.46488  -0.46123
 Alpha  occ. eigenvalues --   -0.45974  -0.45242  -0.44638  -0.44447  -0.43967
 Alpha  occ. eigenvalues --   -0.43729  -0.43115  -0.42686  -0.42496  -0.41283
 Alpha  occ. eigenvalues --   -0.40618  -0.39506  -0.38297  -0.36804  -0.36634
 Alpha  occ. eigenvalues --   -0.35850  -0.34546  -0.33847  -0.32002
 Alpha virt. eigenvalues --    0.03069   0.03599   0.04789   0.06580   0.07344
 Alpha virt. eigenvalues --    0.07632   0.08594   0.09413   0.09669   0.10287
 Alpha virt. eigenvalues --    0.10952   0.11131   0.11401   0.12496   0.12889
 Alpha virt. eigenvalues --    0.13064   0.13660   0.14331   0.14466   0.15010
 Alpha virt. eigenvalues --    0.15343   0.15450   0.15678   0.16340   0.16616
 Alpha virt. eigenvalues --    0.16958   0.17383   0.17602   0.18148   0.18658
 Alpha virt. eigenvalues --    0.18679   0.19521   0.19554   0.20190   0.20749
 Alpha virt. eigenvalues --    0.21108   0.21654   0.22340   0.22842   0.23285
 Alpha virt. eigenvalues --    0.23491   0.24125   0.24712   0.25451   0.25945
 Alpha virt. eigenvalues --    0.25958   0.26855   0.27246   0.27539   0.27779
 Alpha virt. eigenvalues --    0.28689   0.29269   0.29844   0.30250   0.30618
 Alpha virt. eigenvalues --    0.31354   0.31704   0.32799   0.33188   0.33627
 Alpha virt. eigenvalues --    0.34464   0.34991   0.35702   0.36122   0.36491
 Alpha virt. eigenvalues --    0.37053   0.37396   0.38248   0.38873   0.39156
 Alpha virt. eigenvalues --    0.39177   0.39946   0.40126   0.40899   0.41711
 Alpha virt. eigenvalues --    0.42249   0.43020   0.43448   0.43885   0.44401
 Alpha virt. eigenvalues --    0.44706   0.45050   0.45398   0.46103   0.46494
 Alpha virt. eigenvalues --    0.46674   0.46971   0.47450   0.47523   0.47797
 Alpha virt. eigenvalues --    0.48203   0.48383   0.48506   0.49036   0.49687
 Alpha virt. eigenvalues --    0.49820   0.50431   0.50588   0.50947   0.51058
 Alpha virt. eigenvalues --    0.51961   0.52556   0.52805   0.53450   0.53936
 Alpha virt. eigenvalues --    0.54364   0.55007   0.55532   0.55570   0.55991
 Alpha virt. eigenvalues --    0.56555   0.57318   0.57457   0.58196   0.59202
 Alpha virt. eigenvalues --    0.59856   0.60655   0.60996   0.61241   0.61587
 Alpha virt. eigenvalues --    0.62744   0.63102   0.63853   0.64769   0.65397
 Alpha virt. eigenvalues --    0.66456   0.66771   0.66860   0.68016   0.68933
 Alpha virt. eigenvalues --    0.69398   0.70755   0.71701   0.72875   0.73453
 Alpha virt. eigenvalues --    0.74266   0.74872   0.75985   0.76331   0.76749
 Alpha virt. eigenvalues --    0.77361   0.78535   0.78887   0.80177   0.81070
 Alpha virt. eigenvalues --    0.82224   0.82989   0.83313   0.84444   0.85124
 Alpha virt. eigenvalues --    0.86534   0.88393   0.88872   0.89694   0.89776
 Alpha virt. eigenvalues --    0.90821   0.91867   0.93172   0.93281   0.94091
 Alpha virt. eigenvalues --    0.94584   0.95444   0.96003   0.96664   0.97183
 Alpha virt. eigenvalues --    0.98258   0.98738   0.99373   1.00567   1.01442
 Alpha virt. eigenvalues --    1.02667   1.03520   1.03697   1.04243   1.05103
 Alpha virt. eigenvalues --    1.05363   1.05973   1.06550   1.07043   1.07505
 Alpha virt. eigenvalues --    1.08257   1.09142   1.09804   1.10447   1.10759
 Alpha virt. eigenvalues --    1.11294   1.12596   1.13146   1.14703   1.15385
 Alpha virt. eigenvalues --    1.16653   1.17514   1.18224   1.18452   1.19788
 Alpha virt. eigenvalues --    1.20344   1.21731   1.22969   1.23881   1.24204
 Alpha virt. eigenvalues --    1.25149   1.26343   1.27302   1.27656   1.28893
 Alpha virt. eigenvalues --    1.29461   1.30585   1.31466   1.32423   1.33808
 Alpha virt. eigenvalues --    1.34452   1.35412   1.36668   1.37332   1.38861
 Alpha virt. eigenvalues --    1.39457   1.39685   1.40905   1.41915   1.42935
 Alpha virt. eigenvalues --    1.43853   1.44986   1.45366   1.45936   1.46608
 Alpha virt. eigenvalues --    1.47436   1.47913   1.50158   1.50343   1.52750
 Alpha virt. eigenvalues --    1.54051   1.54442   1.55208   1.55874   1.57587
 Alpha virt. eigenvalues --    1.57770   1.58113   1.58251   1.58695   1.58711
 Alpha virt. eigenvalues --    1.59873   1.60039   1.60805   1.61245   1.61581
 Alpha virt. eigenvalues --    1.62120   1.62405   1.62772   1.63708   1.63875
 Alpha virt. eigenvalues --    1.64864   1.65845   1.66362   1.66498   1.67142
 Alpha virt. eigenvalues --    1.67844   1.68084   1.68254   1.68966   1.69729
 Alpha virt. eigenvalues --    1.70422   1.70941   1.71639   1.72327   1.72858
 Alpha virt. eigenvalues --    1.74427   1.75362   1.75837   1.76530   1.76805
 Alpha virt. eigenvalues --    1.78874   1.80018   1.81469   1.82655   1.83460
 Alpha virt. eigenvalues --    1.83831   1.85330   1.86347   1.86952   1.87406
 Alpha virt. eigenvalues --    1.87852   1.88974   1.90260   1.91345   1.92716
 Alpha virt. eigenvalues --    1.94419   1.95360   1.96120   1.96878   1.98214
 Alpha virt. eigenvalues --    1.99027   2.00121   2.00715   2.01436   2.02238
 Alpha virt. eigenvalues --    2.03453   2.04581   2.05778   2.06327   2.06658
 Alpha virt. eigenvalues --    2.07457   2.07590   2.08206   2.08484   2.09469
 Alpha virt. eigenvalues --    2.10917   2.11909   2.13005   2.13741   2.14134
 Alpha virt. eigenvalues --    2.14755   2.15766   2.18268   2.19236   2.20451
 Alpha virt. eigenvalues --    2.20912   2.21463   2.22636   2.23024   2.23744
 Alpha virt. eigenvalues --    2.23972   2.25735   2.26359   2.26864   2.28611
 Alpha virt. eigenvalues --    2.30078   2.30486   2.31452   2.32066   2.32742
 Alpha virt. eigenvalues --    2.33822   2.34125   2.35047   2.35842   2.36998
 Alpha virt. eigenvalues --    2.37295   2.38541   2.39007   2.39027   2.40273
 Alpha virt. eigenvalues --    2.40468   2.40596   2.41336   2.42227   2.42689
 Alpha virt. eigenvalues --    2.43173   2.43755   2.44191   2.44499   2.45371
 Alpha virt. eigenvalues --    2.45588   2.46077   2.46959   2.48188   2.49142
 Alpha virt. eigenvalues --    2.49368   2.51335   2.52200   2.53397   2.54380
 Alpha virt. eigenvalues --    2.55673   2.56541   2.57276   2.58019   2.58473
 Alpha virt. eigenvalues --    2.59177   2.59271   2.59356   2.60947   2.61747
 Alpha virt. eigenvalues --    2.62543   2.62852   2.63229   2.63575   2.64391
 Alpha virt. eigenvalues --    2.65668   2.65972   2.66355   2.67112   2.67771
 Alpha virt. eigenvalues --    2.68274   2.69153   2.69471   2.70212   2.70615
 Alpha virt. eigenvalues --    2.70722   2.71935   2.72115   2.73117   2.73762
 Alpha virt. eigenvalues --    2.74228   2.75710   2.76720   2.78559   2.79807
 Alpha virt. eigenvalues --    2.80568   2.81961   2.82445   2.82853   2.83505
 Alpha virt. eigenvalues --    2.84855   2.86132   2.86986   2.87577   2.88400
 Alpha virt. eigenvalues --    2.88914   2.89787   2.91700   2.92913   2.93472
 Alpha virt. eigenvalues --    2.94940   2.95583   2.97836   2.98446   2.98904
 Alpha virt. eigenvalues --    3.00966   3.03019   3.03259   3.05115   3.06945
 Alpha virt. eigenvalues --    3.07506   3.08578   3.09065   3.09918   3.10486
 Alpha virt. eigenvalues --    3.11255   3.11766   3.12423   3.12690   3.13118
 Alpha virt. eigenvalues --    3.13555   3.14827   3.15884   3.16318   3.16625
 Alpha virt. eigenvalues --    3.16883   3.17086   3.17832   3.18855   3.20001
 Alpha virt. eigenvalues --    3.20924   3.21358   3.22644   3.23330   3.23799
 Alpha virt. eigenvalues --    3.24412   3.24820   3.25109   3.25822   3.27064
 Alpha virt. eigenvalues --    3.27369   3.27933   3.28957   3.29619   3.29918
 Alpha virt. eigenvalues --    3.30460   3.31059   3.31824   3.32860   3.33102
 Alpha virt. eigenvalues --    3.33492   3.34163   3.34631   3.35217   3.35767
 Alpha virt. eigenvalues --    3.36124   3.36942   3.37435   3.38156   3.38660
 Alpha virt. eigenvalues --    3.40131   3.40367   3.41245   3.41730   3.42236
 Alpha virt. eigenvalues --    3.42598   3.43218   3.44186   3.44553   3.45407
 Alpha virt. eigenvalues --    3.46114   3.46774   3.47642   3.49016   3.50903
 Alpha virt. eigenvalues --    3.52495   3.53099   3.53891   3.54408   3.55264
 Alpha virt. eigenvalues --    3.55514   3.56686   3.57513   3.57943   3.58238
 Alpha virt. eigenvalues --    3.58463   3.59688   3.60948   3.62118   3.62761
 Alpha virt. eigenvalues --    3.63262   3.64361   3.64656   3.65612   3.65994
 Alpha virt. eigenvalues --    3.66997   3.68166   3.68814   3.69876   3.70776
 Alpha virt. eigenvalues --    3.71560   3.73037   3.73888   3.75491   3.76892
 Alpha virt. eigenvalues --    3.78176   3.78834   3.80321   3.82331   3.83620
 Alpha virt. eigenvalues --    3.85940   3.87213   3.88579   3.90777   3.93113
 Alpha virt. eigenvalues --    3.93868   3.94941   3.95174   3.99105   4.01279
 Alpha virt. eigenvalues --    4.02899   4.06102   4.07274   4.07714   4.11582
 Alpha virt. eigenvalues --    4.12289   4.12766   4.14277   4.16182   4.18563
 Alpha virt. eigenvalues --    4.21826   4.22816   4.24096   4.25862   4.26449
 Alpha virt. eigenvalues --    4.27122   4.27492   4.28796   4.28936   4.29456
 Alpha virt. eigenvalues --    4.30259   4.30695   4.32377   4.35134   4.36054
 Alpha virt. eigenvalues --    4.37021   4.37738   4.38400   4.38531   4.39309
 Alpha virt. eigenvalues --    4.40728   4.44572   4.45649   4.47273   4.48481
 Alpha virt. eigenvalues --    4.50681   4.53276   4.54072   4.55645   4.56870
 Alpha virt. eigenvalues --    4.60304   4.64412   4.66436   4.68705   4.69769
 Alpha virt. eigenvalues --    4.72039   4.73885   4.77503   4.79495   4.82523
 Alpha virt. eigenvalues --    4.86156   4.88018   4.92032   4.95030   5.00145
 Alpha virt. eigenvalues --    5.07611   5.10993   5.12993   5.17043   5.21647
 Alpha virt. eigenvalues --    5.24820   5.26051   5.26456   5.29245   5.38193
 Alpha virt. eigenvalues --    5.48103   5.49063   5.53100   5.60492   5.80809
 Alpha virt. eigenvalues --    5.84937   5.86611   5.89350   5.91439   6.01146
 Alpha virt. eigenvalues --    6.12892   6.17515   6.22150   6.36562   6.38537
 Alpha virt. eigenvalues --    6.51124   6.60934   6.63313   6.66024   6.66363
 Alpha virt. eigenvalues --    6.69573   6.75061   6.81438   6.84927   6.88458
 Alpha virt. eigenvalues --    6.91994   6.97930   7.04722   7.05770   7.16391
 Alpha virt. eigenvalues --    7.20823   7.34251   7.42388  12.16816  22.31393
 Alpha virt. eigenvalues --   22.37974  22.41357  22.43118  22.44566  22.56866
 Alpha virt. eigenvalues --   22.61219  22.66393  22.71837  22.77784  22.83297
 Alpha virt. eigenvalues --   22.87430  22.91234  23.44411  44.05433  44.50462
 Alpha virt. eigenvalues --   44.53421
          Condensed to atoms (all electrons):
               1          2          3          4          5          6
     1  C    5.432570  -0.020390  -0.029840  -0.017699  -0.030480   0.466978
     2  C   -0.020390   6.058134   0.000994   0.021329  -0.027798  -0.081307
     3  C   -0.029840   0.000994   5.820303  -0.249157   0.089908  -0.035310
     4  C   -0.017699   0.021329  -0.249157   6.264356   0.078650   0.005885
     5  C   -0.030480  -0.027798   0.089908   0.078650   4.437179  -0.004623
     6  H    0.466978  -0.081307  -0.035310   0.005885  -0.004623   0.527742
     7  H   -0.015384   0.408505  -0.038201   0.011240   0.000981   0.002580
     8  H   -0.001463   0.014610  -0.022616   0.364995  -0.003945   0.000326
     9  H    0.004176  -0.026535  -0.030277   0.401464  -0.005538  -0.000410
    10  O    0.160340  -0.002301   0.022135  -0.161222   0.399563  -0.034156
    11  O    0.001012   0.000205   0.014822  -0.161354   0.742948   0.000355
    12  C    0.190746  -0.045673   0.021341  -0.005808   0.002712  -0.037422
    13  C   -0.042498   0.038978  -0.002571   0.001656  -0.000363  -0.004297
    14  C   -0.019995   0.126901  -0.025911   0.010053  -0.007086   0.006150
    15  O    0.010534  -0.075183   0.166310  -0.022514  -0.003821  -0.000226
    16  Si  -0.001472   0.005932  -0.064418   0.011193  -0.002572  -0.000042
    17  C   -0.000037  -0.000038   0.001216  -0.001675  -0.000076   0.000002
    18  C    0.000179   0.000617  -0.007179   0.012940   0.000634   0.000000
    19  C    0.000200  -0.001014   0.017597  -0.009779   0.000574  -0.000001
    20  H   -0.000001  -0.000050   0.000004  -0.000208  -0.000019   0.000000
    21  H   -0.000004   0.000005   0.003793  -0.003286  -0.000027   0.000000
    22  H   -0.000015   0.000098  -0.003783   0.002930   0.000570   0.000000
    23  H   -0.000003   0.000036  -0.000750   0.000270  -0.000010   0.000000
    24  H   -0.000036   0.000194   0.006135  -0.003867  -0.000141  -0.000003
    25  H    0.000007  -0.000235  -0.002218   0.000950  -0.000017  -0.000001
    26  H    0.000001   0.000007  -0.000020   0.000020   0.000000   0.000000
    27  H    0.000000   0.000108   0.000479   0.000081  -0.000001   0.000000
    28  H    0.000010   0.000117  -0.000063   0.000116   0.000000   0.000000
    29  H   -0.024313  -0.035308   0.010811  -0.001011   0.000141  -0.000178
    30  H    0.013456  -0.045074  -0.029845   0.025169  -0.005983   0.000318
    31  H    0.008577  -0.063431   0.019210  -0.010316   0.000425  -0.000183
    32  H   -0.011810  -0.031501  -0.001932   0.000645  -0.000209   0.006526
    33  H   -0.070516   0.015402  -0.000212   0.000548  -0.000069  -0.007109
    34  H    0.012007  -0.000916   0.000056  -0.000023  -0.000004  -0.000236
    35  H   -0.026470   0.019904   0.000942   0.000016  -0.000057   0.001259
    36  H    0.018810  -0.012008  -0.000379  -0.000022   0.000044   0.000591
    37  C    0.050067  -0.123138   0.237877  -0.063012  -0.004136   0.010094
    38  C   -0.008494   0.014341  -0.036492   0.002860   0.001543   0.004366
    39  C   -0.006989   0.006675  -0.009317  -0.000340   0.000049   0.002368
    40  H    0.001700  -0.021913  -0.008096  -0.004243   0.001077  -0.012223
    41  H   -0.002325   0.018005  -0.063701   0.002009  -0.002298   0.001301
    42  H    0.000792  -0.004618   0.004834   0.000438  -0.000014  -0.000117
    43  H    0.000001   0.000020  -0.000125   0.000019   0.000003  -0.000072
    44  H   -0.000242  -0.000589  -0.000907   0.000009   0.000001   0.000652
               7          8          9         10         11         12
     1  C   -0.015384  -0.001463   0.004176   0.160340   0.001012   0.190746
     2  C    0.408505   0.014610  -0.026535  -0.002301   0.000205  -0.045673
     3  C   -0.038201  -0.022616  -0.030277   0.022135   0.014822   0.021341
     4  C    0.011240   0.364995   0.401464  -0.161222  -0.161354  -0.005808
     5  C    0.000981  -0.003945  -0.005538   0.399563   0.742948   0.002712
     6  H    0.002580   0.000326  -0.000410  -0.034156   0.000355  -0.037422
     7  H    0.488598  -0.000029  -0.000392   0.002625   0.000035  -0.015731
     8  H   -0.000029   0.455883  -0.010934   0.006350   0.011641  -0.000020
     9  H   -0.000392  -0.010934   0.450281   0.000523   0.003448   0.000371
    10  O    0.002625   0.006350   0.000523   7.991407  -0.102096  -0.059168
    11  O    0.000035   0.011641   0.003448  -0.102096   7.857968   0.000100
    12  C   -0.015731  -0.000020   0.000371  -0.059168   0.000100   5.269341
    13  C   -0.001754  -0.000008  -0.000052   0.008456   0.000000   0.206178
    14  C   -0.029238   0.000752  -0.004615  -0.004383  -0.000073   0.027541
    15  O    0.003908  -0.001245  -0.003274  -0.000330  -0.000197  -0.000290
    16  Si  -0.000777   0.001401  -0.006179  -0.000314  -0.000656   0.000089
    17  C   -0.000021   0.000083   0.000056  -0.000001  -0.000001  -0.000001
    18  C    0.000061  -0.003262  -0.003809  -0.000002  -0.000003  -0.000002
    19  C    0.000031  -0.000582   0.000820  -0.000004   0.000045   0.000000
    20  H   -0.000002   0.000044   0.000463   0.000000  -0.000001   0.000000
    21  H   -0.000018   0.000173   0.000349   0.000001   0.000003   0.000001
    22  H    0.000007  -0.000515  -0.002619  -0.000001   0.000001   0.000000
    23  H   -0.000001   0.000029  -0.000031   0.000000   0.000000   0.000000
    24  H   -0.000007   0.002168  -0.000079  -0.000007  -0.000080   0.000000
    25  H    0.000008  -0.000254  -0.000026   0.000000   0.000000   0.000000
    26  H    0.000003  -0.000003  -0.000004   0.000000   0.000000   0.000000
    27  H   -0.000006  -0.000004  -0.000012   0.000000   0.000000   0.000000
    28  H   -0.000020  -0.000011  -0.000002   0.000000   0.000000   0.000000
    29  H   -0.007096   0.000021   0.000305   0.000673  -0.000006   0.014255
    30  H    0.005895   0.000415  -0.006755   0.004514  -0.000066  -0.013183
    31  H   -0.002543  -0.000246   0.001319  -0.000239  -0.000005  -0.000798
    32  H    0.001879   0.000001  -0.000060   0.002389  -0.000038   0.413455
    33  H   -0.000711  -0.000012   0.000005   0.004100  -0.000067   0.446968
    34  H    0.000337   0.000000   0.000000  -0.000235   0.000000  -0.042397
    35  H   -0.008034   0.000001  -0.000001  -0.000093   0.000000  -0.022867
    36  H    0.001553   0.000000   0.000001   0.000065   0.000000  -0.057166
    37  C   -0.012750  -0.015132   0.009211  -0.011094   0.001768  -0.002992
    38  C    0.000117   0.000496  -0.000565   0.001045  -0.000011   0.001301
    39  C    0.000126   0.000025  -0.000015   0.000017   0.000000   0.000358
    40  H    0.001053  -0.000478   0.000236   0.003137  -0.000458   0.000801
    41  H   -0.000137   0.003356  -0.000637  -0.000076  -0.000066   0.000004
    42  H    0.000686  -0.000013   0.000001  -0.000005   0.000000  -0.000014
    43  H    0.000061   0.000000   0.000000   0.000000   0.000000   0.000006
    44  H    0.000162   0.000000   0.000001   0.000002  -0.000001  -0.000121
              13         14         15         16         17         18
     1  C   -0.042498  -0.019995   0.010534  -0.001472  -0.000037   0.000179
     2  C    0.038978   0.126901  -0.075183   0.005932  -0.000038   0.000617
     3  C   -0.002571  -0.025911   0.166310  -0.064418   0.001216  -0.007179
     4  C    0.001656   0.010053  -0.022514   0.011193  -0.001675   0.012940
     5  C   -0.000363  -0.007086  -0.003821  -0.002572  -0.000076   0.000634
     6  H   -0.004297   0.006150  -0.000226  -0.000042   0.000002   0.000000
     7  H   -0.001754  -0.029238   0.003908  -0.000777  -0.000021   0.000061
     8  H   -0.000008   0.000752  -0.001245   0.001401   0.000083  -0.003262
     9  H   -0.000052  -0.004615  -0.003274  -0.006179   0.000056  -0.003809
    10  O    0.008456  -0.004383  -0.000330  -0.000314  -0.000001  -0.000002
    11  O    0.000000  -0.000073  -0.000197  -0.000656  -0.000001  -0.000003
    12  C    0.206178   0.027541  -0.000290   0.000089  -0.000001  -0.000002
    13  C    5.107522  -0.014541   0.000016  -0.000008   0.000000   0.000000
    14  C   -0.014541   5.178818  -0.010962   0.004034  -0.000055  -0.002627
    15  O    0.000016  -0.010962   8.089426   0.371064  -0.018029  -0.019491
    16  Si  -0.000008   0.004034   0.371064  12.424382   0.388528   0.350135
    17  C    0.000000  -0.000055  -0.018029   0.388528   5.103068  -0.046311
    18  C    0.000000  -0.002627  -0.019491   0.350135  -0.046311   5.162350
    19  C    0.000000  -0.000186  -0.026306   0.336637  -0.047461  -0.045809
    20  H    0.000000   0.000046   0.001268  -0.028833   0.001353   0.385441
    21  H    0.000000  -0.000508  -0.001190  -0.039168   0.002204   0.392903
    22  H    0.000000   0.000107   0.001552  -0.037462   0.002649   0.394736
    23  H    0.000000   0.000002   0.001180  -0.022914   0.000340   0.000870
    24  H    0.000000   0.000020   0.000609  -0.034450   0.003474   0.000515
    25  H    0.000000   0.000001   0.000344  -0.040172   0.000471   0.003666
    26  H    0.000000  -0.000014   0.001292  -0.043182   0.393443   0.002865
    27  H    0.000000   0.000022  -0.000008  -0.032719   0.391444   0.002984
    28  H    0.000000  -0.000197   0.000648  -0.032804   0.390506   0.000915
    29  H   -0.004091   0.422229   0.000536  -0.000025   0.000006  -0.000001
    30  H    0.001408   0.418847   0.000156  -0.000649  -0.000009   0.000266
    31  H    0.000167   0.426047   0.004282  -0.001917  -0.000088  -0.000444
    32  H   -0.039916   0.004984  -0.000001  -0.000003   0.000000   0.000000
    33  H   -0.034384  -0.001345   0.000009   0.000000   0.000000   0.000000
    34  H    0.415966   0.000367   0.000000   0.000000   0.000000   0.000000
    35  H    0.406267  -0.004415  -0.000018  -0.000002   0.000000   0.000000
    36  H    0.414732   0.001180   0.000001   0.000000   0.000000   0.000000
    37  C    0.000580   0.009224  -0.079744  -0.003555   0.000247   0.000420
    38  C   -0.000837   0.000531   0.009105  -0.002769  -0.000186   0.000101
    39  C   -0.000872  -0.000166   0.003189  -0.000066  -0.000006   0.000010
    40  H    0.000031  -0.001017   0.004925   0.000829  -0.000005   0.000035
    41  H   -0.000008  -0.000118  -0.006648  -0.002784   0.000344   0.000017
    42  H    0.000020  -0.000461   0.007352  -0.001138  -0.000427   0.000130
    43  H    0.000013   0.000002  -0.000011   0.000012   0.000000   0.000000
    44  H    0.000111  -0.000023  -0.000008  -0.000007   0.000000   0.000000
              19         20         21         22         23         24
     1  C    0.000200  -0.000001  -0.000004  -0.000015  -0.000003  -0.000036
     2  C   -0.001014  -0.000050   0.000005   0.000098   0.000036   0.000194
     3  C    0.017597   0.000004   0.003793  -0.003783  -0.000750   0.006135
     4  C   -0.009779  -0.000208  -0.003286   0.002930   0.000270  -0.003867
     5  C    0.000574  -0.000019  -0.000027   0.000570  -0.000010  -0.000141
     6  H   -0.000001   0.000000   0.000000   0.000000   0.000000  -0.000003
     7  H    0.000031  -0.000002  -0.000018   0.000007  -0.000001  -0.000007
     8  H   -0.000582   0.000044   0.000173  -0.000515   0.000029   0.002168
     9  H    0.000820   0.000463   0.000349  -0.002619  -0.000031  -0.000079
    10  O   -0.000004   0.000000   0.000001  -0.000001   0.000000  -0.000007
    11  O    0.000045  -0.000001   0.000003   0.000001   0.000000  -0.000080
    12  C    0.000000   0.000000   0.000001   0.000000   0.000000   0.000000
    13  C    0.000000   0.000000   0.000000   0.000000   0.000000   0.000000
    14  C   -0.000186   0.000046  -0.000508   0.000107   0.000002   0.000020
    15  O   -0.026306   0.001268  -0.001190   0.001552   0.001180   0.000609
    16  Si   0.336637  -0.028833  -0.039168  -0.037462  -0.022914  -0.034450
    17  C   -0.047461   0.001353   0.002204   0.002649   0.000340   0.003474
    18  C   -0.045809   0.385441   0.392903   0.394736   0.000870   0.000515
    19  C    5.192671   0.001514   0.003074   0.001367   0.382301   0.390261
    20  H    0.001514   0.504049  -0.015072  -0.016751   0.000162   0.000138
    21  H    0.003074  -0.015072   0.508269  -0.019655  -0.000118  -0.000199
    22  H    0.001367  -0.016751  -0.019655   0.509716   0.000210   0.000763
    23  H    0.382301   0.000162  -0.000118   0.000210   0.493838  -0.013987
    24  H    0.390261   0.000138  -0.000199   0.000763  -0.013987   0.508701
    25  H    0.395766  -0.000177  -0.000096  -0.000160  -0.014626  -0.021334
    26  H    0.003143  -0.000042   0.000222  -0.000159   0.000121  -0.000166
    27  H    0.000489  -0.000111  -0.000181  -0.000096   0.000261  -0.000119
    28  H    0.003148   0.000264   0.000782  -0.000147  -0.000142  -0.000090
    29  H    0.000002   0.000001   0.000013  -0.000001   0.000000   0.000000
    30  H    0.000013  -0.000009   0.000020   0.000052   0.000000  -0.000005
    31  H    0.000262   0.000009   0.000860  -0.000068  -0.000006  -0.000005
    32  H    0.000000   0.000000   0.000000   0.000000   0.000000   0.000000
    33  H    0.000000   0.000000   0.000000   0.000000   0.000000   0.000000
    34  H    0.000000   0.000000   0.000000   0.000000   0.000000   0.000000
    35  H    0.000000   0.000000   0.000000   0.000000   0.000000   0.000000
    36  H    0.000000   0.000000   0.000000   0.000000   0.000000   0.000000
    37  C    0.000047   0.000022  -0.000104   0.000380   0.000365  -0.005355
    38  C   -0.000711  -0.000005   0.000015  -0.000034  -0.000046   0.000798
    39  C   -0.000136   0.000000   0.000000   0.000000   0.000001   0.000015
    40  H   -0.000359  -0.000001  -0.000002   0.000006   0.000006  -0.000048
    41  H   -0.003195  -0.000004   0.000003  -0.000068   0.000586  -0.000134
    42  H    0.000126  -0.000003  -0.000004  -0.000004  -0.000005  -0.000004
    43  H   -0.000002   0.000000   0.000000   0.000000   0.000000   0.000000
    44  H   -0.000001   0.000000   0.000000   0.000000   0.000000   0.000001
              25         26         27         28         29         30
     1  C    0.000007   0.000001   0.000000   0.000010  -0.024313   0.013456
     2  C   -0.000235   0.000007   0.000108   0.000117  -0.035308  -0.045074
     3  C   -0.002218  -0.000020   0.000479  -0.000063   0.010811  -0.029845
     4  C    0.000950   0.000020   0.000081   0.000116  -0.001011   0.025169
     5  C   -0.000017   0.000000  -0.000001   0.000000   0.000141  -0.005983
     6  H   -0.000001   0.000000   0.000000   0.000000  -0.000178   0.000318
     7  H    0.000008   0.000003  -0.000006  -0.000020  -0.007096   0.005895
     8  H   -0.000254  -0.000003  -0.000004  -0.000011   0.000021   0.000415
     9  H   -0.000026  -0.000004  -0.000012  -0.000002   0.000305  -0.006755
    10  O    0.000000   0.000000   0.000000   0.000000   0.000673   0.004514
    11  O    0.000000   0.000000   0.000000   0.000000  -0.000006  -0.000066
    12  C    0.000000   0.000000   0.000000   0.000000   0.014255  -0.013183
    13  C    0.000000   0.000000   0.000000   0.000000  -0.004091   0.001408
    14  C    0.000001  -0.000014   0.000022  -0.000197   0.422229   0.418847
    15  O    0.000344   0.001292  -0.000008   0.000648   0.000536   0.000156
    16  Si  -0.040172  -0.043182  -0.032719  -0.032804  -0.000025  -0.000649
    17  C    0.000471   0.393443   0.391444   0.390506   0.000006  -0.000009
    18  C    0.003666   0.002865   0.002984   0.000915  -0.000001   0.000266
    19  C    0.395766   0.003143   0.000489   0.003148   0.000002   0.000013
    20  H   -0.000177  -0.000042  -0.000111   0.000264   0.000001  -0.000009
    21  H   -0.000096   0.000222  -0.000181   0.000782   0.000013   0.000020
    22  H   -0.000160  -0.000159  -0.000096  -0.000147  -0.000001   0.000052
    23  H   -0.014626   0.000121   0.000261  -0.000142   0.000000   0.000000
    24  H   -0.021334  -0.000166  -0.000119  -0.000090   0.000000  -0.000005
    25  H    0.508277   0.000263   0.000841  -0.000187   0.000000   0.000000
    26  H    0.000263   0.525699  -0.019486  -0.018796   0.000000   0.000000
    27  H    0.000841  -0.019486   0.517220  -0.018217   0.000000  -0.000001
    28  H   -0.000187  -0.018796  -0.018217   0.514744   0.000002   0.000001
    29  H    0.000000   0.000000   0.000000   0.000002   0.502653  -0.023447
    30  H    0.000000   0.000000  -0.000001   0.000001  -0.023447   0.504548
    31  H   -0.000006   0.000015  -0.000001   0.000613  -0.018496  -0.022453
    32  H    0.000000   0.000000   0.000000   0.000000  -0.008946   0.000555
    33  H    0.000000   0.000000   0.000000   0.000000   0.000396  -0.000148
    34  H    0.000000   0.000000   0.000000   0.000000   0.000012  -0.000013
    35  H    0.000000   0.000000   0.000000   0.000000   0.002536  -0.000027
    36  H    0.000000   0.000000   0.000000   0.000000  -0.000036  -0.000039
    37  C    0.002338  -0.000033  -0.000553   0.000051  -0.000457  -0.000209
    38  C   -0.000716   0.000013   0.000161   0.000005  -0.000027  -0.000087
    39  C    0.000087   0.000002   0.000023   0.000000   0.000005  -0.000004
    40  H    0.000142   0.000000   0.000003   0.000000   0.000007  -0.000027
    41  H   -0.003130  -0.000008   0.000034  -0.000012   0.000010   0.000002
    42  H    0.000198   0.000039   0.000658  -0.000010   0.000006   0.000002
    43  H    0.000002   0.000000  -0.000002   0.000000   0.000000   0.000000
    44  H   -0.000003   0.000000   0.000000   0.000000   0.000000   0.000000
              31         32         33         34         35         36
     1  C    0.008577  -0.011810  -0.070516   0.012007  -0.026470   0.018810
     2  C   -0.063431  -0.031501   0.015402  -0.000916   0.019904  -0.012008
     3  C    0.019210  -0.001932  -0.000212   0.000056   0.000942  -0.000379
     4  C   -0.010316   0.000645   0.000548  -0.000023   0.000016  -0.000022
     5  C    0.000425  -0.000209  -0.000069  -0.000004  -0.000057   0.000044
     6  H   -0.000183   0.006526  -0.007109  -0.000236   0.001259   0.000591
     7  H   -0.002543   0.001879  -0.000711   0.000337  -0.008034   0.001553
     8  H   -0.000246   0.000001  -0.000012   0.000000   0.000001   0.000000
     9  H    0.001319  -0.000060   0.000005   0.000000  -0.000001   0.000001
    10  O   -0.000239   0.002389   0.004100  -0.000235  -0.000093   0.000065
    11  O   -0.000005  -0.000038  -0.000067   0.000000   0.000000   0.000000
    12  C   -0.000798   0.413455   0.446968  -0.042397  -0.022867  -0.057166
    13  C    0.000167  -0.039916  -0.034384   0.415966   0.406267   0.414732
    14  C    0.426047   0.004984  -0.001345   0.000367  -0.004415   0.001180
    15  O    0.004282  -0.000001   0.000009   0.000000  -0.000018   0.000001
    16  Si  -0.001917  -0.000003   0.000000   0.000000  -0.000002   0.000000
    17  C   -0.000088   0.000000   0.000000   0.000000   0.000000   0.000000
    18  C   -0.000444   0.000000   0.000000   0.000000   0.000000   0.000000
    19  C    0.000262   0.000000   0.000000   0.000000   0.000000   0.000000
    20  H    0.000009   0.000000   0.000000   0.000000   0.000000   0.000000
    21  H    0.000860   0.000000   0.000000   0.000000   0.000000   0.000000
    22  H   -0.000068   0.000000   0.000000   0.000000   0.000000   0.000000
    23  H   -0.000006   0.000000   0.000000   0.000000   0.000000   0.000000
    24  H   -0.000005   0.000000   0.000000   0.000000   0.000000   0.000000
    25  H   -0.000006   0.000000   0.000000   0.000000   0.000000   0.000000
    26  H    0.000015   0.000000   0.000000   0.000000   0.000000   0.000000
    27  H   -0.000001   0.000000   0.000000   0.000000   0.000000   0.000000
    28  H    0.000613   0.000000   0.000000   0.000000   0.000000   0.000000
    29  H   -0.018496  -0.008946   0.000396   0.000012   0.002536  -0.000036
    30  H   -0.022453   0.000555  -0.000148  -0.000013  -0.000027  -0.000039
    31  H    0.488527   0.000377   0.000032  -0.000004   0.000036   0.000002
    32  H    0.000377   0.516467  -0.020792  -0.003709  -0.003157   0.005930
    33  H    0.000032  -0.020792   0.512373  -0.005822   0.004977  -0.002168
    34  H   -0.000004  -0.003709  -0.005822   0.510581  -0.022469  -0.022280
    35  H    0.000036  -0.003157   0.004977  -0.022469   0.529068  -0.027692
    36  H    0.000002   0.005930  -0.002168  -0.022280  -0.027692   0.526520
    37  C    0.000790   0.000218   0.000000  -0.000011  -0.000017  -0.000042
    38  C    0.000024  -0.000045   0.000012   0.000008   0.000280   0.000284
    39  C    0.000000  -0.000024   0.000047   0.000020   0.000090  -0.000016
    40  H   -0.000028  -0.000042   0.000015   0.000004  -0.000022  -0.000016
    41  H   -0.000071   0.000001  -0.000001   0.000000   0.000002   0.000005
    42  H    0.000077  -0.000001   0.000001   0.000000  -0.000005  -0.000005
    43  H   -0.000001   0.000000   0.000000   0.000000   0.000008  -0.000022
    44  H    0.000001   0.000001   0.000004  -0.000002  -0.000009   0.000054
              37         38         39         40         41         42
     1  C    0.050067  -0.008494  -0.006989   0.001700  -0.002325   0.000792
     2  C   -0.123138   0.014341   0.006675  -0.021913   0.018005  -0.004618
     3  C    0.237877  -0.036492  -0.009317  -0.008096  -0.063701   0.004834
     4  C   -0.063012   0.002860  -0.000340  -0.004243   0.002009   0.000438
     5  C   -0.004136   0.001543   0.000049   0.001077  -0.002298  -0.000014
     6  H    0.010094   0.004366   0.002368  -0.012223   0.001301  -0.000117
     7  H   -0.012750   0.000117   0.000126   0.001053  -0.000137   0.000686
     8  H   -0.015132   0.000496   0.000025  -0.000478   0.003356  -0.000013
     9  H    0.009211  -0.000565  -0.000015   0.000236  -0.000637   0.000001
    10  O   -0.011094   0.001045   0.000017   0.003137  -0.000076  -0.000005
    11  O    0.001768  -0.000011   0.000000  -0.000458  -0.000066   0.000000
    12  C   -0.002992   0.001301   0.000358   0.000801   0.000004  -0.000014
    13  C    0.000580  -0.000837  -0.000872   0.000031  -0.000008   0.000020
    14  C    0.009224   0.000531  -0.000166  -0.001017  -0.000118  -0.000461
    15  O   -0.079744   0.009105   0.003189   0.004925  -0.006648   0.007352
    16  Si  -0.003555  -0.002769  -0.000066   0.000829  -0.002784  -0.001138
    17  C    0.000247  -0.000186  -0.000006  -0.000005   0.000344  -0.000427
    18  C    0.000420   0.000101   0.000010   0.000035   0.000017   0.000130
    19  C    0.000047  -0.000711  -0.000136  -0.000359  -0.003195   0.000126
    20  H    0.000022  -0.000005   0.000000  -0.000001  -0.000004  -0.000003
    21  H   -0.000104   0.000015   0.000000  -0.000002   0.000003  -0.000004
    22  H    0.000380  -0.000034   0.000000   0.000006  -0.000068  -0.000004
    23  H    0.000365  -0.000046   0.000001   0.000006   0.000586  -0.000005
    24  H   -0.005355   0.000798   0.000015  -0.000048  -0.000134  -0.000004
    25  H    0.002338  -0.000716   0.000087   0.000142  -0.003130   0.000198
    26  H   -0.000033   0.000013   0.000002   0.000000  -0.000008   0.000039
    27  H   -0.000553   0.000161   0.000023   0.000003   0.000034   0.000658
    28  H    0.000051   0.000005   0.000000   0.000000  -0.000012  -0.000010
    29  H   -0.000457  -0.000027   0.000005   0.000007   0.000010   0.000006
    30  H   -0.000209  -0.000087  -0.000004  -0.000027   0.000002   0.000002
    31  H    0.000790   0.000024   0.000000  -0.000028  -0.000071   0.000077
    32  H    0.000218  -0.000045  -0.000024  -0.000042   0.000001  -0.000001
    33  H    0.000000   0.000012   0.000047   0.000015  -0.000001   0.000001
    34  H   -0.000011   0.000008   0.000020   0.000004   0.000000   0.000000
    35  H   -0.000017   0.000280   0.000090  -0.000022   0.000002  -0.000005
    36  H   -0.000042   0.000284  -0.000016  -0.000016   0.000005  -0.000005
    37  C    5.383152   0.200153  -0.046126   0.416463   0.437674  -0.045021
    38  C    0.200153   5.217506   0.528427  -0.049585  -0.044209   0.407632
    39  C   -0.046126   0.528427   5.015282   0.004022  -0.004455  -0.019773
    40  H    0.416463  -0.049585   0.004022   0.482800  -0.014306   0.002836
    41  H    0.437674  -0.044209  -0.004455  -0.014306   0.497606   0.001297
    42  H   -0.045021   0.407632  -0.019773   0.002836   0.001297   0.475607
    43  H    0.006408  -0.053004   0.426727   0.000197  -0.000331  -0.005617
    44  H    0.006413  -0.070833   0.435577  -0.000039   0.000717   0.003803
              43         44
     1  C    0.000001  -0.000242
     2  C    0.000020  -0.000589
     3  C   -0.000125  -0.000907
     4  C    0.000019   0.000009
     5  C    0.000003   0.000001
     6  H   -0.000072   0.000652
     7  H    0.000061   0.000162
     8  H    0.000000   0.000000
     9  H    0.000000   0.000001
    10  O    0.000000   0.000002
    11  O    0.000000  -0.000001
    12  C    0.000006  -0.000121
    13  C    0.000013   0.000111
    14  C    0.000002  -0.000023
    15  O   -0.000011  -0.000008
    16  Si   0.000012  -0.000007
    17  C    0.000000   0.000000
    18  C    0.000000   0.000000
    19  C   -0.000002  -0.000001
    20  H    0.000000   0.000000
    21  H    0.000000   0.000000
    22  H    0.000000   0.000000
    23  H    0.000000   0.000000
    24  H    0.000000   0.000001
    25  H    0.000002  -0.000003
    26  H    0.000000   0.000000
    27  H   -0.000002   0.000000
    28  H    0.000000   0.000000
    29  H    0.000000   0.000000
    30  H    0.000000   0.000000
    31  H   -0.000001   0.000001
    32  H    0.000000   0.000001
    33  H    0.000000   0.000004
    34  H    0.000000  -0.000002
    35  H    0.000008  -0.000009
    36  H   -0.000022   0.000054
    37  C    0.006408   0.006413
    38  C   -0.053004  -0.070833
    39  C    0.426727   0.435577
    40  H    0.000197  -0.000039
    41  H   -0.000331   0.000717
    42  H   -0.005617   0.003803
    43  H    0.498892  -0.022312
    44  H   -0.022312   0.501475
 Mulliken charges:
               1
     1  C   -0.041688
     2  C   -0.132098
     3  C    0.224551
     4  C   -0.504303
     5  C    0.342283
     6  H    0.180422
     7  H    0.202401
     8  H    0.198006
     9  H    0.229791
    10  O   -0.231617
    11  O   -0.369174
    12  C   -0.291914
    13  C   -0.455905
    14  C   -0.509923
    15  O   -0.408210
    16  Si   0.506822
    17  C   -0.565008
    18  C   -0.583850
    19  C   -0.594541
    20  H    0.166512
    21  H    0.166941
    22  H    0.166392
    23  H    0.172061
    24  H    0.166323
    25  H    0.169996
    26  H    0.154765
    27  H    0.156705
    28  H    0.158775
    29  H    0.168819
    30  H    0.172392
    31  H    0.169696
    32  H    0.168757
    33  H    0.158466
    34  H    0.158761
    35  H    0.149965
    36  H    0.152119
    37  C   -0.360484
    38  C   -0.122470
    39  C   -0.334838
    40  H    0.192585
    41  H    0.185748
    42  H    0.170723
    43  H    0.149129
    44  H    0.146115
 Sum of Mulliken charges =   0.00000
 Mulliken charges with hydrogens summed into heavy atoms:
               1
     1  C    0.138734
     2  C    0.070303
     3  C    0.224551
     4  C   -0.076506
     5  C    0.342283
    10  O   -0.231617
    11  O   -0.369174
    12  C    0.035309
    13  C    0.004941
    14  C    0.000984
    15  O   -0.408210
    16  Si   0.506822
    17  C   -0.094763
    18  C   -0.084005
    19  C   -0.086160
    37  C    0.017849
    38  C    0.048253
    39  C   -0.039594
 Electronic spatial extent (au):  <R**2>=           5513.9156
 Charge=              0.0000 electrons
 Dipole moment (field-independent basis, Debye):
    X=              1.8775    Y=              4.1391    Z=              2.2578  Tot=              5.0749
 Quadrupole moment (field-independent basis, Debye-Ang):
   XX=           -113.3409   YY=           -134.8677   ZZ=           -122.7842
   XY=            -12.3110   XZ=             -5.8061   YZ=             -9.5535
 Traceless Quadrupole moment (field-independent basis, Debye-Ang):
   XX=             10.3234   YY=            -11.2034   ZZ=              0.8800
   XY=            -12.3110   XZ=             -5.8061   YZ=             -9.5535
 Octapole moment (field-independent basis, Debye-Ang**2):
  XXX=              3.2085  YYY=             49.5201  ZZZ=             11.0004  XYY=             21.0526
  XXY=             16.0860  XXZ=             12.3337  XZZ=             -5.5325  YZZ=              8.1139
  YYZ=             29.1297  XYZ=             18.6437
 Hexadecapole moment (field-independent basis, Debye-Ang**3):
 XXXX=          -4252.9177 YYYY=          -1946.9164 ZZZZ=          -1280.6980 XXXY=            -46.7026
 XXXZ=            -27.9243 YYYX=            -68.2365 YYYZ=            -85.2191 ZZZX=              5.9685
 ZZZY=              4.2462 XXYY=          -1114.9949 XXZZ=           -958.8064 YYZZ=           -588.1256
 XXYZ=            -30.7535 YYXZ=            -40.6291 ZZXY=            -31.9241
 N-N= 1.626529349577D+03 E-N=-5.746075869911D+03  KE= 1.059312644017D+03
 1\1\GINC-CPU-E-126\SP\RM062X\def2TZVP\C14H26O3Si1\KE291\26-Jun-2019\0\
 \# m062x/def2tzvp int=ultrafine scrf=(solvent=chloroform)\\IP1_4ginp00
 2\\0,1\C,0,-2.429946,-0.110986,0.063173\C,0,-1.11669,0.244628,0.774643
 \C,0,0.065283,0.043257,-0.213875\C,0,0.076339,-1.433985,-0.638452\C,0,
 -1.27451,-2.02126,-1.017313\H,0,-2.580006,0.583482,-0.770555\H,0,-1.16
 1965,1.317432,0.993289\H,0,0.751189,-1.615061,-1.479418\H,0,0.439429,-
 2.044513,0.195381\O,0,-2.396527,-1.449862,-0.532148\O,0,-1.372424,-3.0
 33965,-1.678812\C,0,-3.694109,-0.087052,0.922609\C,0,-4.024111,1.30244
 5,1.477605\C,0,-0.922053,-0.511841,2.098503\O,0,1.258171,0.405111,0.47
 8175\Si,0,2.891128,0.012215,0.354839\C,0,3.740015,1.309355,1.41959\C,0
 ,3.230467,-1.708416,1.053909\C,0,3.531279,0.107767,-1.418965\H,0,4.311
 772,-1.874113,1.127964\H,0,2.810034,-1.817919,2.059305\H,0,2.820244,-2
 .507099,0.427681\H,0,4.610197,-0.087588,-1.426781\H,0,3.063981,-0.6314
 76,-2.078117\H,0,3.372712,1.099466,-1.855234\H,0,4.822259,1.14068,1.44
 8723\H,0,3.568103,2.318059,1.029907\H,0,3.36951,1.280159,2.449565\H,0,
 -1.641337,-0.173778,2.848879\H,0,-1.055062,-1.592323,1.983228\H,0,0.08
 0086,-0.329605,2.489168\H,0,-3.599641,-0.813967,1.735874\H,0,-4.517885
 ,-0.435401,0.289964\H,0,-4.987067,1.28623,1.995948\H,0,-3.271301,1.649
 808,2.192061\H,0,-4.089874,2.04606,0.675812\C,0,-0.05426,0.947356,-1.4
 7405\C,0,-0.184584,2.415296,-1.175764\C,0,-1.112839,3.221223,-1.694657
 \H,0,-0.885814,0.618915,-2.107938\H,0,0.857553,0.774316,-2.05949\H,0,0
 .555316,2.824814,-0.489703\H,0,-1.146064,4.280088,-1.455235\H,0,-1.867
 609,2.855327,-2.387469\\Version=ES64L-G09RevD.01\State=1-A\HF=-1064.34
 18665\RMSD=1.579e-09\Dipole=0.7386603,1.6284435,0.8882954\Quadrupole=7
 .6751929,-8.3294879,0.654295,-9.1528935,-4.3166612,-7.1028279\PG=C01 [
 X(C14H26O3Si1)]\\@


 WHEN ALL ELSE FAILS, LOOK AT THE SCHRODINGER EQUATION.
     -- RUSSELL T. PACK, APRIL 1978
 Job cpu time:       0 days  2 hours 27 minutes 19.8 seconds.
 File lengths (MBytes):  RWF=    409 Int=      0 D2E=      0 Chk=     21 Scr=      1
 Normal termination of Gaussian 09 at Wed Jun 26 13:56:00 2019.
