 Entering Gaussian System, Link 0=/usr/local/Cluster-Apps/gaussian/g09/g09
 Initial command:
 /usr/local/Cluster-Apps/gaussian/g09/l1.exe "/home/ke291/rds/hpc-work/26Jun1304IP1NMR/Gau-297300.inp" -scrdir="/home/ke291/rds/hpc-work/26Jun1304IP1NMR/"
 Entering Link 1 = /usr/local/Cluster-Apps/gaussian/g09/l1.exe PID=    297326.
  
 Copyright (c) 1988,1990,1992,1993,1995,1998,2003,2009,2013,
            Gaussian, Inc.  All Rights Reserved.
  
 This is part of the Gaussian(R) 09 program.  It is based on
 the Gaussian(R) 03 system (copyright 2003, Gaussian, Inc.),
 the Gaussian(R) 98 system (copyright 1998, Gaussian, Inc.),
 the Gaussian(R) 94 system (copyright 1995, Gaussian, Inc.),
 the Gaussian 92(TM) system (copyright 1992, Gaussian, Inc.),
 the Gaussian 90(TM) system (copyright 1990, Gaussian, Inc.),
 the Gaussian 88(TM) system (copyright 1988, Gaussian, Inc.),
 the Gaussian 86(TM) system (copyright 1986, Carnegie Mellon
 University), and the Gaussian 82(TM) system (copyright 1983,
 Carnegie Mellon University). Gaussian is a federally registered
 trademark of Gaussian, Inc.
  
 This software contains proprietary and confidential information,
 including trade secrets, belonging to Gaussian, Inc.
  
 This software is provided under written license and may be
 used, copied, transmitted, or stored only in accord with that
 written license.
  
 The following legend is applicable only to US Government
 contracts under FAR:
  
                    RESTRICTED RIGHTS LEGEND
  
 Use, reproduction and disclosure by the US Government is
 subject to restrictions as set forth in subparagraphs (a)
 and (c) of the Commercial Computer Software - Restricted
 Rights clause in FAR 52.227-19.
  
 Gaussian, Inc.
 340 Quinnipiac St., Bldg. 40, Wallingford CT 06492
  
  
 ---------------------------------------------------------------
 Warning -- This program may not be used in any manner that
 competes with the business of Gaussian, Inc. or will provide
 assistance to any competitor of Gaussian, Inc.  The licensee
 of this program is prohibited from giving any competitor of
 Gaussian, Inc. access to this program.  By using this program,
 the user acknowledges that Gaussian, Inc. is engaged in the
 business of creating and licensing software in the field of
 computational chemistry and represents and warrants to the
 licensee that it is not a competitor of Gaussian, Inc. and that
 it will not use this program in any manner prohibited above.
 ---------------------------------------------------------------
  

 Cite this work as:
 Gaussian 09, Revision D.01,
 M. J. Frisch, G. W. Trucks, H. B. Schlegel, G. E. Scuseria, 
 M. A. Robb, J. R. Cheeseman, G. Scalmani, V. Barone, B. Mennucci, 
 G. A. Petersson, H. Nakatsuji, M. Caricato, X. Li, H. P. Hratchian, 
 A. F. Izmaylov, J. Bloino, G. Zheng, J. L. Sonnenberg, M. Hada, 
 M. Ehara, K. Toyota, R. Fukuda, J. Hasegawa, M. Ishida, T. Nakajima, 
 Y. Honda, O. Kitao, H. Nakai, T. Vreven, J. A. Montgomery, Jr., 
 J. E. Peralta, F. Ogliaro, M. Bearpark, J. J. Heyd, E. Brothers, 
 K. N. Kudin, V. N. Staroverov, T. Keith, R. Kobayashi, J. Normand, 
 K. Raghavachari, A. Rendell, J. C. Burant, S. S. Iyengar, J. Tomasi, 
 M. Cossi, N. Rega, J. M. Millam, M. Klene, J. E. Knox, J. B. Cross, 
 V. Bakken, C. Adamo, J. Jaramillo, R. Gomperts, R. E. Stratmann, 
 O. Yazyev, A. J. Austin, R. Cammi, C. Pomelli, J. W. Ochterski, 
 R. L. Martin, K. Morokuma, V. G. Zakrzewski, G. A. Voth, 
 P. Salvador, J. J. Dannenberg, S. Dapprich, A. D. Daniels, 
 O. Farkas, J. B. Foresman, J. V. Ortiz, J. Cioslowski, 
 and D. J. Fox, Gaussian, Inc., Wallingford CT, 2013.
 
 ******************************************
 Gaussian 09:  ES64L-G09RevD.01 24-Apr-2013
                26-Jun-2019 
 ******************************************
 %nprocshared=4
 Will use up to    4 processors via shared memory.
 %mem=6000MB
 %chk=IP1_2ginp006.chk
 --------------------------------------------------------
 # m062x/def2tzvp int=ultrafine scrf=(solvent=chloroform)
 --------------------------------------------------------
 1/38=1/1;
 2/12=2,17=6,18=5,40=1/2;
 3/5=44,7=101,11=2,16=1,25=1,30=1,70=2201,72=7,74=-55,75=-5/1,2,3;
 4//1;
 5/5=2,38=5,53=7/2;
 6/7=2,8=2,9=2,10=2,28=1/1;
 99/5=1,9=1/99;
 ------------
 IP1_2ginp006
 ------------
 Symbolic Z-matrix:
 Charge =  0 Multiplicity = 1
 C                    -2.35695   0.4156    0.11805 
 C                    -1.18201   0.20328  -0.85318 
 C                     0.12607   0.84093  -0.26875 
 C                     0.02922   0.88768   1.28447 
 C                    -0.83466  -0.18742   1.89608 
 H                    -2.45033   1.48119   0.36993 
 H                    -0.99785  -0.8761   -0.85927 
 H                     1.01854   0.86021   1.73719 
 H                    -0.42314   1.8447    1.57339 
 O                    -2.06537  -0.31409   1.35187 
 O                    -0.51923  -0.89115   2.83445 
 C                    -3.72838  -0.08787  -0.33763 
 C                    -3.80156  -1.58358  -0.66226 
 C                    -1.49201   0.62385  -2.29529 
 O                     1.2495    0.08261  -0.7121 
 Si                    2.01138  -1.36207  -0.29296 
 C                     2.82056  -1.25627   1.40722 
 C                     0.83783  -2.84112  -0.32371 
 C                     3.3202   -1.56066  -1.62935 
 H                     0.34664  -2.95615  -1.29579 
 H                     1.41138  -3.75665  -0.13479 
 H                     0.06324  -2.78167   0.44754 
 H                     2.86517  -1.63485  -2.62251 
 H                     4.01148  -0.71157  -1.63925 
 H                     3.90917  -2.46947  -1.46194 
 H                     3.4465   -2.14165   1.57071 
 H                     3.46525  -0.37509   1.49499 
 H                     2.07823  -1.22295   2.2107 
 H                    -0.60407   0.50399  -2.92189 
 H                    -2.27951  -0.00182  -2.72197 
 H                    -1.82008   1.66539  -2.3664 
 H                    -4.03751   0.5095   -1.20219 
 H                    -4.43835   0.14476   0.46423 
 H                    -3.49663  -2.18429   0.1986 
 H                    -4.82637  -1.86344  -0.92351 
 H                    -3.16082  -1.85566  -1.50684 
 C                     0.36734   2.28293  -0.78895 
 C                     1.55146   2.96809  -0.16506 
 C                     1.50501   4.13508   0.47949 
 H                    -0.53565   2.88377  -0.62761 
 H                     0.52734   2.21532  -1.87054 
 H                     2.50546   2.45511  -0.27563 
 H                     2.39746   4.59199   0.89717 
 H                     0.57328   4.68229   0.60659 
 
                          Input orientation:                          
 ---------------------------------------------------------------------
 Center     Atomic      Atomic             Coordinates (Angstroms)
 Number     Number       Type             X           Y           Z
 ---------------------------------------------------------------------
      1          6           0       -2.356946    0.415601    0.118053
      2          6           0       -1.182014    0.203283   -0.853180
      3          6           0        0.126069    0.840925   -0.268746
      4          6           0        0.029220    0.887679    1.284466
      5          6           0       -0.834657   -0.187423    1.896075
      6          1           0       -2.450333    1.481190    0.369925
      7          1           0       -0.997846   -0.876098   -0.859273
      8          1           0        1.018544    0.860214    1.737187
      9          1           0       -0.423139    1.844699    1.573385
     10          8           0       -2.065373   -0.314088    1.351872
     11          8           0       -0.519231   -0.891147    2.834451
     12          6           0       -3.728378   -0.087872   -0.337633
     13          6           0       -3.801559   -1.583581   -0.662263
     14          6           0       -1.492011    0.623851   -2.295291
     15          8           0        1.249497    0.082608   -0.712095
     16         14           0        2.011375   -1.362068   -0.292960
     17          6           0        2.820564   -1.256267    1.407222
     18          6           0        0.837832   -2.841118   -0.323706
     19          6           0        3.320201   -1.560661   -1.629350
     20          1           0        0.346638   -2.956145   -1.295791
     21          1           0        1.411377   -3.756652   -0.134791
     22          1           0        0.063244   -2.781667    0.447538
     23          1           0        2.865165   -1.634852   -2.622507
     24          1           0        4.011481   -0.711565   -1.639253
     25          1           0        3.909173   -2.469474   -1.461935
     26          1           0        3.446504   -2.141648    1.570710
     27          1           0        3.465246   -0.375094    1.494992
     28          1           0        2.078230   -1.222945    2.210704
     29          1           0       -0.604070    0.503989   -2.921886
     30          1           0       -2.279508   -0.001820   -2.721973
     31          1           0       -1.820079    1.665388   -2.366397
     32          1           0       -4.037510    0.509495   -1.202186
     33          1           0       -4.438348    0.144761    0.464229
     34          1           0       -3.496633   -2.184294    0.198600
     35          1           0       -4.826373   -1.863441   -0.923512
     36          1           0       -3.160825   -1.855663   -1.506838
     37          6           0        0.367340    2.282931   -0.788954
     38          6           0        1.551458    2.968085   -0.165064
     39          6           0        1.505009    4.135083    0.479489
     40          1           0       -0.535646    2.883767   -0.627607
     41          1           0        0.527336    2.215325   -1.870542
     42          1           0        2.505461    2.455109   -0.275634
     43          1           0        2.397465    4.591992    0.897170
     44          1           0        0.573284    4.682291    0.606591
 ---------------------------------------------------------------------
                    Distance matrix (angstroms):
                    1          2          3          4          5
     1  C    0.000000
     2  C    1.539103   0.000000
     3  C    2.548701   1.568194   0.000000
     4  C    2.697622   2.550493   1.556931   0.000000
     5  C    2.417098   2.798519   2.582043   1.508706   0.000000
     6  H    1.098927   2.176618   2.730510   2.708657   2.779175
     7  H    2.114428   1.094997   2.135433   2.959965   2.844793
     8  H    3.770041   3.461794   2.195598   1.088335   2.134747
     9  H    2.810680   3.026277   2.168557   1.097265   2.098332
    10  O    1.462795   2.431101   2.960215   2.415804   1.351615
    11  O    3.530383   3.903291   3.611969   2.422287   1.214607
    12  C    1.530347   2.614293   3.965371   4.207428   3.656909
    13  C    2.586992   3.176688   4.632423   4.956990   4.158949
    14  C    2.572102   1.533838   2.602343   3.898514   4.319471
    15  O    3.715705   2.438588   1.426076   2.474565   3.349502
    16  Si   4.734054   3.600264   2.899680   3.388004   3.777772
    17  C    5.591396   4.822897   3.803602   3.521814   3.839537
    18  C    4.583446   3.691680   3.750609   4.140531   3.842752
    19  C    6.260114   4.897334   4.221533   5.031426   5.619364
    20  H    4.547196   3.537607   3.939697   4.640416   4.387401
    21  H    5.627778   4.787781   4.775738   5.049204   4.680650
    22  H    4.023481   3.486038   3.693262   3.763736   3.103963
    23  H    6.243835   4.784236   4.378620   5.447034   6.016753
    24  H    6.701902   5.331721   4.402833   5.192698   6.021488
    25  H    7.077024   5.782248   5.166654   5.819556   6.244030
    26  H    6.506133   5.726877   4.827487   4.575652   4.717329
    27  H    6.034822   5.238841   3.967314   3.666769   4.322644
    28  H    5.170571   4.695818   3.770698   3.084006   3.107444
    29  H    3.510216   2.168868   2.772324   4.271027   4.872778
    30  H    2.871582   2.176912   3.537703   4.708820   4.842356
    31  H    2.832435   2.198796   2.977813   4.165758   4.751066
    32  H    2.139192   2.892996   4.279783   4.781710   4.510342
    33  H    2.127305   3.513218   4.675019   4.602595   3.891930
    34  H    2.839864   3.487725   4.742819   4.800809   3.735643
    35  H    3.518090   4.190185   5.680581   6.001717   5.166518
    36  H    2.906051   2.929543   4.428107   5.049128   4.446785
    37  C    3.425101   2.594139   1.551841   2.521929   3.841461
    38  C    4.676639   3.948354   2.562673   2.957437   4.460837
    39  C    5.374000   4.945215   3.648672   3.656716   5.115155
    40  H    3.156737   2.766527   2.177120   2.821252   3.986300
    41  H    3.938604   2.829349   2.148428   3.459023   4.670720
    42  H    5.287493   4.359100   2.875264   3.320018   4.780762
    43  H    6.376025   5.927661   4.537522   4.413674   5.855530
    44  H    5.198996   5.027277   3.965137   3.892891   5.230600
                    6          7          8          9         10
     6  H    0.000000
     7  H    3.029431   0.000000
     8  H    3.779964   3.717824   0.000000
     9  H    2.385366   3.694706   1.753423   0.000000
    10  O    2.082171   2.518855   3.322348   2.721463   0.000000
    11  O    3.928234   3.724634   2.576045   3.014030   2.218466
    12  C    2.143827   2.889501   5.266594   4.279185   2.381425
    13  C    3.504860   2.898302   5.912942   5.307066   2.946641
    14  C    2.959187   2.134524   4.756010   4.195189   3.809235
    15  O    4.100676   2.447719   2.580115   3.335580   3.925008
    16  Si   5.332014   3.100369   3.169503   4.437731   4.519249
    17  C    6.029263   4.456656   2.799222   4.490569   4.976258
    18  C    5.474989   2.741870   4.240259   5.210171   4.197862
    19  C    6.822684   4.439276   4.742555   5.988872   6.280608
    20  H    5.503417   2.514912   4.920875   5.645603   4.450661
    21  H    6.527061   3.824503   4.997406   6.136648   5.113629
    22  H    4.949348   2.542609   3.979835   4.786164   3.381978
    23  H    6.849736   4.313648   5.351850   6.365982   6.469182
    24  H    7.113368   5.072356   4.777919   6.043292   6.784760
    25  H    7.707579   5.194313   5.447655   6.825993   6.946827
    26  H    7.024210   5.220985   3.864438   5.555637   5.811080
    27  H    6.301241   5.070775   2.751544   4.478076   5.532807
    28  H    5.586474   4.359737   2.384681   4.009172   4.328170
    29  H    3.898670   2.512782   4.946386   4.694433   4.590170
    30  H    3.433414   2.424185   5.612874   5.030491   4.091403
    31  H    2.814002   3.067025   5.054254   4.183955   4.219481
    32  H    2.436156   3.358127   5.858891   4.748709   3.330289
    33  H    2.397319   3.825031   5.648891   4.499102   2.574774
    34  H    3.815740   3.012376   5.658896   5.250637   2.622253
    35  H    4.301756   3.954313   6.975720   6.274812   3.898844
    36  H    3.893793   2.461172   5.947000   5.538536   3.427636
    37  C    3.150408   3.442113   2.971461   2.529338   4.152799
    38  C    4.302488   4.664614   2.888888   2.860635   5.114218
    39  C    4.764439   5.759210   3.541641   3.187510   5.770945
    40  H    2.574552   3.795245   3.478868   2.436532   4.060133
    41  H    3.798047   3.592456   3.885012   3.591852   4.848095
    42  H    5.091675   4.869367   2.967501   3.516841   5.586569
    43  H    5.784135   6.671824   4.066106   3.995084   6.647804
    44  H    4.409685   5.959270   4.010583   3.159031   5.699277
                   11         12         13         14         15
    11  O    0.000000
    12  C    4.583229   0.000000
    13  C    4.845632   1.532281   0.000000
    14  C    5.436522   3.056192   3.587973   0.000000
    15  O    4.081003   4.994850   5.319007   3.211747   0.000000
    16  Si   4.050486   5.879654   5.828864   4.497435   1.686185
    17  C    3.650278   6.877376   6.945676   5.986798   2.958436
    18  C    3.951957   5.332057   4.818710   4.617502   2.978001
    19  C    5.925792   7.315744   7.187159   5.326627   2.798125
    20  H    4.698175   5.074526   4.415068   4.146806   3.223333
    21  H    4.555740   6.318083   5.672316   5.682097   3.885795
    22  H    3.100112   4.716929   4.195685   4.641065   3.309987
    23  H    6.464180   7.147629   6.949129   4.918719   3.034753
    24  H    6.369743   7.873286   7.922027   5.701065   3.019750
    25  H    6.368737   8.078878   7.802543   6.279803   3.761550
    26  H    4.346015   7.703162   7.604737   6.854406   3.871092
    27  H    4.235153   7.428946   7.675978   6.319694   3.160738
    28  H    2.691831   6.441980   6.554076   6.038317   3.306663
    29  H    5.923598   4.097556   4.437091   1.093356   2.914867
    30  H    5.896043   2.791363   3.010152   1.092554   4.062095
    31  H    5.939436   3.291111   4.169668   1.094296   3.829387
    32  H    5.534846   1.095382   2.174433   2.772638   5.326806
    33  H    4.695800   1.095974   2.159086   4.065142   5.808544
    34  H    4.181490   2.176290   1.093124   4.257192   5.337973
    35  H    5.798199   2.168293   1.093991   4.380225   6.383416
    36  H    5.172533   2.194138   1.094475   3.091050   4.882566
    37  C    4.897943   4.753872   5.687327   2.911835   2.371820
    38  C    5.308344   6.102895   7.044122   4.392722   2.952355
    39  C    5.908162   6.774170   7.884566   5.386119   4.231751
    40  H    5.122118   4.371300   5.533949   2.966989   3.322705
    41  H    5.734320   5.075985   5.884807   2.605948   2.532192
    42  H    5.478943   6.732856   7.499267   4.838626   2.719688
    43  H    6.505766   7.807165   8.888050   6.408274   4.923628
    44  H    6.100833   6.492327   7.746638   5.399750   4.832523
                   16         17         18         19         20
    16  Si   0.000000
    17  C    1.885895   0.000000
    18  C    1.888316   3.072310   0.000000
    19  C    1.881064   3.092420   3.083250   0.000000
    20  H    2.513583   4.039328   1.095195   3.301623   0.000000
    21  H    2.473671   3.258149   1.096743   3.271038   1.767032
    22  H    2.521669   3.294033   1.094686   4.051184   1.774810
    23  H    2.496028   4.047719   3.293880   1.094953   3.138307
    24  H    2.497215   3.316021   4.041993   1.094957   4.311285
    25  H    2.488873   3.299849   3.296486   1.095836   3.599459
    26  H    2.478025   1.096553   3.298976   3.254824   4.299931
    27  H    2.506917   1.095347   4.036365   3.344865   4.916911
    28  H    2.508417   1.094419   3.252738   4.050007   4.277605
    29  H    4.151382   5.793772   4.474300   4.618802   3.939614
    30  H    5.114886   6.680915   4.850887   5.914436   4.202223
    31  H    5.305155   6.656714   5.616554   6.113355   5.215307
    32  H    6.396753   7.547192   5.980576   7.655320   5.589291
    33  H    6.666543   7.452779   6.113460   8.215024   5.967360
    34  H    5.590692   6.498383   4.414953   7.085164   4.195198
    35  H    6.885039   8.017271   5.779173   8.182698   5.300249
    36  H    5.335615   6.680422   4.284878   6.488893   3.682105
    37  C    4.029253   4.833986   5.166594   4.919233   5.263576
    38  C    4.356387   4.682720   5.855021   5.077610   6.150336
    39  C    5.574204   5.626547   7.053909   6.339055   7.401281
    40  H    4.962501   5.704784   5.895176   5.968583   5.943860
    41  H    4.181971   5.296658   5.296860   4.702801   5.206447
    42  H    3.849060   4.087249   5.552776   4.315409   5.914635
    43  H    6.084103   5.885686   7.692471   6.714900   8.123382
    44  H    6.277864   6.399824   7.585323   7.177704   7.875032
                   21         22         23         24         25
    21  H    0.000000
    22  H    1.762715   0.000000
    23  H    3.578305   4.311742   0.000000
    24  H    4.277441   4.922255   1.770110   0.000000
    25  H    3.107591   4.305197   1.770162   1.769789   0.000000
    26  H    3.107847   3.621821   4.263551   3.559241   3.085201
    27  H    4.278961   4.296786   4.347515   3.199231   3.650605
    28  H    3.516491   3.098151   4.914149   4.338334   4.288877
    29  H    5.475672   4.753300   4.086546   4.942270   5.598420
    30  H    5.866422   4.823053   5.398550   6.422816   6.780618
    31  H    6.694841   5.589404   5.736609   6.339222   7.123164
    32  H    7.002122   5.510855   7.366306   8.152808   8.490671
    33  H    7.056850   5.369226   8.126270   8.749717   8.956865
    34  H    5.164496   3.618225   6.980903   7.868825   7.595042
    35  H    6.566266   5.160550   7.880266   8.941296   8.773080
    36  H    5.138220   3.882227   6.132376   7.264191   7.096735
    37  C    6.163968   5.222216   4.995005   4.792680   5.965135
    38  C    6.726264   5.970738   5.380695   4.665273   6.066938
    39  C    7.916160   7.065489   6.690632   5.853330   7.291729
    40  H    6.937502   5.797564   5.996921   5.884403   7.007832
    41  H    6.281630   5.528002   4.566701   4.556254   5.792333
    42  H    6.308949   5.823334   4.729163   3.762363   5.256352
    43  H    8.469780   7.747361   7.168016   6.096409   7.597035
    44  H    8.512802   7.483055   7.455608   6.779284   8.158106
                   26         27         28         29         30
    26  H    0.000000
    27  H    1.768275   0.000000
    28  H    1.767988   1.776206   0.000000
    29  H    6.602270   6.069673   6.043221   0.000000
    30  H    7.469485   7.136128   6.694201   1.761505   0.000000
    31  H    7.598107   6.856278   6.670018   1.770902   1.765529
    32  H    8.409993   8.021759   7.214669   3.840040   2.379447
    33  H    8.283891   7.987460   6.883791   5.128012   3.851488
    34  H    7.077546   7.309008   6.004319   5.033013   3.843739
    35  H    8.645174   8.764433   7.609671   5.236990   3.631338
    36  H    7.294511   7.423469   6.455087   3.755971   2.385373
    37  C    5.884400   4.677449   4.921002   2.942392   3.995304
    38  C    5.719570   4.194665   4.846287   4.279969   5.480367
    39  C    6.660144   5.021501   5.659872   5.403925   6.456461
    40  H    6.778268   5.579672   5.635019   3.306318   3.969135
    41  H    6.272716   5.164146   5.557296   2.305228   3.676825
    42  H    5.042293   3.473666   4.460099   4.525340   5.909061
    43  H    6.848069   5.115612   5.969990   6.348714   7.488350
    44  H    7.466663   5.893203   6.301575   5.594151   6.415501
                   31         32         33         34         35
    31  H    0.000000
    32  H    2.758347   0.000000
    33  H    4.144886   1.752324   0.000000
    34  H    4.920375   3.084031   2.526239   0.000000
    35  H    4.855137   2.516106   2.471692   1.769263   0.000000
    36  H    3.864485   2.540740   3.085266   1.768978   1.764761
    37  C    2.766674   4.766397   5.407113   5.988460   6.647192
    38  C    4.232038   6.193291   6.651687   7.222360   8.037140
    39  C    5.025403   6.833186   7.158659   8.064109   8.833861
    40  H    2.481452   4.269703   4.891354   5.927504   6.405769
    41  H    2.461435   4.918778   5.864845   6.311127   6.796720
    42  H    4.868803   6.888714   7.355378   7.600927   8.533781
    43  H    6.083055   7.904618   8.166617   9.008132   9.857552
    44  H    4.865033   6.476366   6.762093   7.992538   8.622304
                   36         37         38         39         40
    36  H    0.000000
    37  C    5.485551   0.000000
    38  C    6.875646   1.503599   0.000000
    39  C    7.848856   2.516685   1.333975   0.000000
    40  H    5.488789   1.096549   2.139406   2.637371   0.000000
    41  H    5.505248   1.095446   2.127000   3.188097   1.766814
    42  H    7.225332   2.205607   1.088803   2.096050   3.091272
    43  H    8.845682   3.506592   2.116871   1.086140   3.721037
    44  H    7.820166   2.783323   2.119146   1.087981   2.446969
                   41         42         43         44
    41  H    0.000000
    42  H    2.552294   0.000000
    43  H    4.099531   2.439959   0.000000
    44  H    3.496315   3.077656   1.849385   0.000000
 Stoichiometry    C14H26O3Si
 Framework group  C1[X(C14H26O3Si)]
 Deg. of freedom   126
 Full point group                 C1      NOp   1
 Largest Abelian subgroup         C1      NOp   1
 Largest concise Abelian subgroup C1      NOp   1
                         Standard orientation:                         
 ---------------------------------------------------------------------
 Center     Atomic      Atomic             Coordinates (Angstroms)
 Number     Number       Type             X           Y           Z
 ---------------------------------------------------------------------
      1          6           0       -2.356946    0.415601    0.118053
      2          6           0       -1.182014    0.203283   -0.853180
      3          6           0        0.126069    0.840925   -0.268746
      4          6           0        0.029220    0.887679    1.284466
      5          6           0       -0.834657   -0.187423    1.896075
      6          1           0       -2.450333    1.481190    0.369925
      7          1           0       -0.997846   -0.876098   -0.859273
      8          1           0        1.018544    0.860214    1.737187
      9          1           0       -0.423139    1.844699    1.573385
     10          8           0       -2.065373   -0.314088    1.351872
     11          8           0       -0.519231   -0.891147    2.834451
     12          6           0       -3.728378   -0.087872   -0.337633
     13          6           0       -3.801559   -1.583581   -0.662263
     14          6           0       -1.492011    0.623851   -2.295291
     15          8           0        1.249497    0.082608   -0.712095
     16         14           0        2.011375   -1.362068   -0.292960
     17          6           0        2.820564   -1.256267    1.407222
     18          6           0        0.837832   -2.841118   -0.323706
     19          6           0        3.320201   -1.560660   -1.629350
     20          1           0        0.346638   -2.956145   -1.295791
     21          1           0        1.411378   -3.756652   -0.134791
     22          1           0        0.063244   -2.781667    0.447538
     23          1           0        2.865165   -1.634852   -2.622507
     24          1           0        4.011481   -0.711564   -1.639253
     25          1           0        3.909173   -2.469473   -1.461935
     26          1           0        3.446504   -2.141647    1.570710
     27          1           0        3.465246   -0.375093    1.494992
     28          1           0        2.078230   -1.222945    2.210704
     29          1           0       -0.604070    0.503989   -2.921886
     30          1           0       -2.279508   -0.001820   -2.721973
     31          1           0       -1.820079    1.665388   -2.366397
     32          1           0       -4.037510    0.509495   -1.202186
     33          1           0       -4.438348    0.144760    0.464229
     34          1           0       -3.496633   -2.184294    0.198600
     35          1           0       -4.826373   -1.863442   -0.923512
     36          1           0       -3.160825   -1.855663   -1.506838
     37          6           0        0.367340    2.282931   -0.788954
     38          6           0        1.551458    2.968085   -0.165064
     39          6           0        1.505008    4.135083    0.479489
     40          1           0       -0.535646    2.883767   -0.627607
     41          1           0        0.527336    2.215325   -1.870542
     42          1           0        2.505461    2.455109   -0.275634
     43          1           0        2.397464    4.591992    0.897170
     44          1           0        0.573283    4.682291    0.606591
 ---------------------------------------------------------------------
 Rotational constants (GHZ):      0.4173991      0.3187645      0.2633252
 Standard basis: def2TZVP (5D, 7F)
 There are   810 symmetry adapted cartesian basis functions of A   symmetry.
 There are   720 symmetry adapted basis functions of A   symmetry.
   720 basis functions,  1144 primitive gaussians,   810 cartesian basis functions
    74 alpha electrons       74 beta electrons
       nuclear repulsion energy      1647.5273576350 Hartrees.
 NAtoms=   44 NActive=   44 NUniq=   44 SFac= 1.00D+00 NAtFMM=   60 NAOKFM=F Big=F
 Integral buffers will be    131072 words long.
 Raffenetti 2 integral format.
 Two-electron integral symmetry is turned on.
 ------------------------------------------------------------------------------
 Polarizable Continuum Model (PCM)
 =================================
 Model                : PCM (using non-symmetric T matrix).
 Atomic radii         : UFF (Universal Force Field).
 Polarization charges : Total charges.
 Charge compensation  : None.
 Solution method      : On-the-fly selection.
 Cavity type          : Scaled VdW (van der Waals Surface) (Alpha=1.100).
 Cavity algorithm     : GePol (No added spheres)
                        Default sphere list used, NSphG=   44.
                        Lebedev-Laikov grids with approx.  5.0 points / Ang**2.
                        Smoothing algorithm: Karplus/York (Gamma=1.0000).
                        Polarization charges: spherical gaussians, with
                                              point-specific exponents (IZeta= 3).
                        Self-potential: point-specific (ISelfS= 7).
                        Self-field    : sphere-specific E.n sum rule (ISelfD= 2).
 Solvent              : Chloroform, Eps=   4.711300 Eps(inf)=   2.090627
 ------------------------------------------------------------------------------
 One-electron integrals computed using PRISM.
   1 Symmetry operations used in ECPInt.
 ECPInt:  NShTT=   46360 NPrTT=  137514 LenC2=   42500 LenP2D=   91322.
 LDataN:  DoStor=T MaxTD1= 6 Len=  172
 NBasis=   720 RedAO= T EigKep=  2.23D-05  NBF=   720
 NBsUse=   720 1.00D-06 EigRej= -1.00D+00 NBFU=   720
 ExpMin= 7.01D-02 ExpMax= 4.48D+04 ExpMxC= 1.53D+03 IAcc=3 IRadAn=         5 AccDes= 0.00D+00
 Harris functional with IExCor= 1009 and IRadAn=       5 diagonalized for initial guess.
 HarFok:  IExCor= 1009 AccDes= 0.00D+00 IRadAn=         5 IDoV= 1 UseB2=F ITyADJ=14
 ICtDFT=  3500011 ScaDFX=  1.000000  1.000000  1.000000  1.000000
 FoFCou: FMM=F IPFlag=           0 FMFlag=      100000 FMFlg1=           0
         NFxFlg=           0 DoJE=T BraDBF=F KetDBF=T FulRan=T
         wScrn=  0.000000 ICntrl=     500 IOpCl=  0 I1Cent=   200000004 NGrid=           0
         NMat0=    1 NMatS0=      1 NMatT0=    0 NMatD0=    1 NMtDS0=    0 NMtDT0=    0
 Petite list used in FoFCou.
 Requested convergence on RMS density matrix=1.00D-08 within 128 cycles.
 Requested convergence on MAX density matrix=1.00D-06.
 Requested convergence on             energy=1.00D-06.
 No special actions if energy rises.
 Inv3:  Mode=1 IEnd=    24265008.
 Iteration    1 A*A^-1 deviation from unit magnitude is 6.99D-15 for    664.
 Iteration    1 A*A^-1 deviation from orthogonality  is 3.83D-15 for   2838   1532.
 Iteration    1 A^-1*A deviation from unit magnitude is 6.66D-15 for   2843.
 Iteration    1 A^-1*A deviation from orthogonality  is 2.59D-14 for   2500   2489.
 Error on total polarization charges =  0.01456
 SCF Done:  E(RM062X) =  -1064.34127637     A.U. after   14 cycles
            NFock= 14  Conv=0.11D-08     -V/T= 2.0048

 **********************************************************************

            Population analysis using the SCF density.

 **********************************************************************

 Orbital symmetries:
       Occupied  (A) (A) (A) (A) (A) (A) (A) (A) (A) (A) (A) (A)
                 (A) (A) (A) (A) (A) (A) (A) (A) (A) (A) (A) (A)
                 (A) (A) (A) (A) (A) (A) (A) (A) (A) (A) (A) (A)
                 (A) (A) (A) (A) (A) (A) (A) (A) (A) (A) (A) (A)
                 (A) (A) (A) (A) (A) (A) (A) (A) (A) (A) (A) (A)
                 (A) (A) (A) (A) (A) (A) (A) (A) (A) (A) (A) (A)
                 (A) (A)
       Virtual   (A) (A) (A) (A) (A) (A) (A) (A) (A) (A) (A) (A)
                 (A) (A) (A) (A) (A) (A) (A) (A) (A) (A) (A) (A)
                 (A) (A) (A) (A) (A) (A) (A) (A) (A) (A) (A) (A)
                 (A) (A) (A) (A) (A) (A) (A) (A) (A) (A) (A) (A)
                 (A) (A) (A) (A) (A) (A) (A) (A) (A) (A) (A) (A)
                 (A) (A) (A) (A) (A) (A) (A) (A) (A) (A) (A) (A)
                 (A) (A) (A) (A) (A) (A) (A) (A) (A) (A) (A) (A)
                 (A) (A) (A) (A) (A) (A) (A) (A) (A) (A) (A) (A)
                 (A) (A) (A) (A) (A) (A) (A) (A) (A) (A) (A) (A)
                 (A) (A) (A) (A) (A) (A) (A) (A) (A) (A) (A) (A)
                 (A) (A) (A) (A) (A) (A) (A) (A) (A) (A) (A) (A)
                 (A) (A) (A) (A) (A) (A) (A) (A) (A) (A) (A) (A)
                 (A) (A) (A) (A) (A) (A) (A) (A) (A) (A) (A) (A)
                 (A) (A) (A) (A) (A) (A) (A) (A) (A) (A) (A) (A)
                 (A) (A) (A) (A) (A) (A) (A) (A) (A) (A) (A) (A)
                 (A) (A) (A) (A) (A) (A) (A) (A) (A) (A) (A) (A)
                 (A) (A) (A) (A) (A) (A) (A) (A) (A) (A) (A) (A)
                 (A) (A) (A) (A) (A) (A) (A) (A) (A) (A) (A) (A)
                 (A) (A) (A) (A) (A) (A) (A) (A) (A) (A) (A) (A)
                 (A) (A) (A) (A) (A) (A) (A) (A) (A) (A) (A) (A)
                 (A) (A) (A) (A) (A) (A) (A) (A) (A) (A) (A) (A)
                 (A) (A) (A) (A) (A) (A) (A) (A) (A) (A) (A) (A)
                 (A) (A) (A) (A) (A) (A) (A) (A) (A) (A) (A) (A)
                 (A) (A) (A) (A) (A) (A) (A) (A) (A) (A) (A) (A)
                 (A) (A) (A) (A) (A) (A) (A) (A) (A) (A) (A) (A)
                 (A) (A) (A) (A) (A) (A) (A) (A) (A) (A) (A) (A)
                 (A) (A) (A) (A) (A) (A) (A) (A) (A) (A) (A) (A)
                 (A) (A) (A) (A) (A) (A) (A) (A) (A) (A) (A) (A)
                 (A) (A) (A) (A) (A) (A) (A) (A) (A) (A) (A) (A)
                 (A) (A) (A) (A) (A) (A) (A) (A) (A) (A) (A) (A)
                 (A) (A) (A) (A) (A) (A) (A) (A) (A) (A) (A) (A)
                 (A) (A) (A) (A) (A) (A) (A) (A) (A) (A) (A) (A)
                 (A) (A) (A) (A) (A) (A) (A) (A) (A) (A) (A) (A)
                 (A) (A) (A) (A) (A) (A) (A) (A) (A) (A) (A) (A)
                 (A) (A) (A) (A) (A) (A) (A) (A) (A) (A) (A) (A)
                 (A) (A) (A) (A) (A) (A) (A) (A) (A) (A) (A) (A)
                 (A) (A) (A) (A) (A) (A) (A) (A) (A) (A) (A) (A)
                 (A) (A) (A) (A) (A) (A) (A) (A) (A) (A) (A) (A)
                 (A) (A) (A) (A) (A) (A) (A) (A) (A) (A) (A) (A)
                 (A) (A) (A) (A) (A) (A) (A) (A) (A) (A) (A) (A)
                 (A) (A) (A) (A) (A) (A) (A) (A) (A) (A) (A) (A)
                 (A) (A) (A) (A) (A) (A) (A) (A) (A) (A) (A) (A)
                 (A) (A) (A) (A) (A) (A) (A) (A) (A) (A) (A) (A)
                 (A) (A) (A) (A) (A) (A) (A) (A) (A) (A) (A) (A)
                 (A) (A) (A) (A) (A) (A) (A) (A) (A) (A) (A) (A)
                 (A) (A) (A) (A) (A) (A) (A) (A) (A) (A) (A) (A)
                 (A) (A) (A) (A) (A) (A) (A) (A) (A) (A) (A) (A)
                 (A) (A) (A) (A) (A) (A) (A) (A) (A) (A) (A) (A)
                 (A) (A) (A) (A) (A) (A) (A) (A) (A) (A) (A) (A)
                 (A) (A) (A) (A) (A) (A) (A) (A) (A) (A) (A) (A)
                 (A) (A) (A) (A) (A) (A) (A) (A) (A) (A) (A) (A)
                 (A) (A) (A) (A) (A) (A) (A) (A) (A) (A) (A) (A)
                 (A) (A) (A) (A) (A) (A) (A) (A) (A) (A) (A) (A)
                 (A) (A) (A) (A) (A) (A) (A) (A) (A) (A)
 The electronic state is 1-A.
 Alpha  occ. eigenvalues --  -67.01485 -19.67322 -19.62015 -19.61895 -10.68101
 Alpha  occ. eigenvalues --  -10.62469 -10.61133 -10.55714 -10.55634 -10.54653
 Alpha  occ. eigenvalues --  -10.54470 -10.54365 -10.53552 -10.53491 -10.52743
 Alpha  occ. eigenvalues --  -10.50926 -10.50688 -10.50597  -5.54935  -3.86123
 Alpha  occ. eigenvalues --   -3.85977  -3.85963  -1.23143  -1.14478  -1.13206
 Alpha  occ. eigenvalues --   -0.93493  -0.90767  -0.87799  -0.84866  -0.80865
 Alpha  occ. eigenvalues --   -0.79420  -0.79289  -0.76753  -0.76568  -0.73869
 Alpha  occ. eigenvalues --   -0.69164  -0.68703  -0.64608  -0.62201  -0.60814
 Alpha  occ. eigenvalues --   -0.58246  -0.57343  -0.55381  -0.54562  -0.51988
 Alpha  occ. eigenvalues --   -0.51396  -0.50951  -0.50365  -0.49593  -0.48812
 Alpha  occ. eigenvalues --   -0.48196  -0.47863  -0.47309  -0.47120  -0.46470
 Alpha  occ. eigenvalues --   -0.45766  -0.45244  -0.44717  -0.44262  -0.43977
 Alpha  occ. eigenvalues --   -0.43362  -0.43011  -0.42972  -0.41468  -0.41099
 Alpha  occ. eigenvalues --   -0.40996  -0.40014  -0.38641  -0.37010  -0.36453
 Alpha  occ. eigenvalues --   -0.35538  -0.34211  -0.33368  -0.31997
 Alpha virt. eigenvalues --    0.03221   0.03654   0.04923   0.06156   0.06947
 Alpha virt. eigenvalues --    0.07650   0.08969   0.09798   0.10160   0.10606
 Alpha virt. eigenvalues --    0.11270   0.11508   0.11887   0.12286   0.12613
 Alpha virt. eigenvalues --    0.13174   0.13550   0.14044   0.14507   0.14739
 Alpha virt. eigenvalues --    0.15153   0.15840   0.16199   0.16658   0.16780
 Alpha virt. eigenvalues --    0.16861   0.17197   0.17754   0.17954   0.18444
 Alpha virt. eigenvalues --    0.18739   0.19262   0.19680   0.20256   0.20699
 Alpha virt. eigenvalues --    0.21215   0.21704   0.22471   0.22869   0.23136
 Alpha virt. eigenvalues --    0.23269   0.23772   0.24178   0.24648   0.25332
 Alpha virt. eigenvalues --    0.25865   0.26203   0.26785   0.27629   0.28240
 Alpha virt. eigenvalues --    0.29106   0.29546   0.30068   0.30579   0.31274
 Alpha virt. eigenvalues --    0.31745   0.32119   0.32529   0.33194   0.33897
 Alpha virt. eigenvalues --    0.34373   0.35356   0.35961   0.36791   0.36969
 Alpha virt. eigenvalues --    0.37669   0.38015   0.38281   0.38586   0.39513
 Alpha virt. eigenvalues --    0.40042   0.40407   0.40588   0.41332   0.41634
 Alpha virt. eigenvalues --    0.42145   0.42745   0.44052   0.44333   0.44623
 Alpha virt. eigenvalues --    0.45211   0.45304   0.45799   0.46075   0.46272
 Alpha virt. eigenvalues --    0.46511   0.46708   0.46914   0.47724   0.47900
 Alpha virt. eigenvalues --    0.48193   0.48421   0.48732   0.49454   0.49596
 Alpha virt. eigenvalues --    0.50087   0.50294   0.50438   0.50740   0.51506
 Alpha virt. eigenvalues --    0.51795   0.52355   0.52547   0.52681   0.53720
 Alpha virt. eigenvalues --    0.54389   0.54589   0.54998   0.55176   0.55693
 Alpha virt. eigenvalues --    0.56048   0.56689   0.57464   0.58141   0.58378
 Alpha virt. eigenvalues --    0.60013   0.60167   0.60996   0.62118   0.62581
 Alpha virt. eigenvalues --    0.63361   0.63923   0.64134   0.65486   0.66521
 Alpha virt. eigenvalues --    0.66808   0.67679   0.68207   0.68880   0.70279
 Alpha virt. eigenvalues --    0.70986   0.71110   0.72292   0.73262   0.73509
 Alpha virt. eigenvalues --    0.73826   0.74800   0.76081   0.76298   0.77468
 Alpha virt. eigenvalues --    0.77884   0.78231   0.80169   0.80995   0.81820
 Alpha virt. eigenvalues --    0.82980   0.84010   0.85265   0.86179   0.87427
 Alpha virt. eigenvalues --    0.87735   0.88245   0.88558   0.89003   0.90664
 Alpha virt. eigenvalues --    0.91209   0.91458   0.91923   0.93394   0.93667
 Alpha virt. eigenvalues --    0.94588   0.95442   0.96504   0.97356   0.97607
 Alpha virt. eigenvalues --    0.98445   0.98740   0.99617   1.00338   1.01656
 Alpha virt. eigenvalues --    1.02100   1.02809   1.03580   1.03986   1.05110
 Alpha virt. eigenvalues --    1.05684   1.05945   1.07037   1.07569   1.08015
 Alpha virt. eigenvalues --    1.08571   1.09458   1.10435   1.10739   1.11640
 Alpha virt. eigenvalues --    1.11841   1.12486   1.12932   1.13679   1.15819
 Alpha virt. eigenvalues --    1.16955   1.18302   1.18409   1.19413   1.20103
 Alpha virt. eigenvalues --    1.20387   1.21632   1.22547   1.23510   1.24334
 Alpha virt. eigenvalues --    1.24893   1.25987   1.26455   1.27539   1.29203
 Alpha virt. eigenvalues --    1.29759   1.30691   1.32291   1.32435   1.34264
 Alpha virt. eigenvalues --    1.34808   1.35536   1.36727   1.38175   1.38808
 Alpha virt. eigenvalues --    1.39368   1.40203   1.40663   1.42167   1.43107
 Alpha virt. eigenvalues --    1.43854   1.45225   1.45674   1.46565   1.47102
 Alpha virt. eigenvalues --    1.47628   1.49647   1.50353   1.51144   1.53328
 Alpha virt. eigenvalues --    1.53765   1.55630   1.55800   1.56187   1.56565
 Alpha virt. eigenvalues --    1.57258   1.58097   1.58924   1.59123   1.59391
 Alpha virt. eigenvalues --    1.60127   1.60221   1.60684   1.61455   1.61808
 Alpha virt. eigenvalues --    1.62693   1.63375   1.63724   1.63817   1.64651
 Alpha virt. eigenvalues --    1.65151   1.65401   1.66139   1.66373   1.67309
 Alpha virt. eigenvalues --    1.67703   1.67873   1.68466   1.68860   1.69221
 Alpha virt. eigenvalues --    1.70287   1.70559   1.71477   1.71944   1.72886
 Alpha virt. eigenvalues --    1.73608   1.74438   1.74740   1.75246   1.77901
 Alpha virt. eigenvalues --    1.78357   1.80123   1.80998   1.81662   1.82698
 Alpha virt. eigenvalues --    1.84207   1.84349   1.85316   1.85974   1.87560
 Alpha virt. eigenvalues --    1.88199   1.90277   1.91250   1.92633   1.93779
 Alpha virt. eigenvalues --    1.94121   1.95369   1.96048   1.97603   1.98267
 Alpha virt. eigenvalues --    1.98473   2.00001   2.00685   2.02027   2.02780
 Alpha virt. eigenvalues --    2.04043   2.04687   2.05535   2.06438   2.06912
 Alpha virt. eigenvalues --    2.07572   2.07925   2.08261   2.08641   2.09822
 Alpha virt. eigenvalues --    2.10239   2.10956   2.12879   2.13274   2.14228
 Alpha virt. eigenvalues --    2.14723   2.15656   2.16151   2.18143   2.18601
 Alpha virt. eigenvalues --    2.19856   2.20723   2.21164   2.22560   2.23285
 Alpha virt. eigenvalues --    2.23896   2.24816   2.25712   2.27308   2.28252
 Alpha virt. eigenvalues --    2.29291   2.30782   2.31365   2.32048   2.33736
 Alpha virt. eigenvalues --    2.34021   2.34948   2.35073   2.35885   2.37104
 Alpha virt. eigenvalues --    2.37980   2.39844   2.40226   2.40509   2.40733
 Alpha virt. eigenvalues --    2.40817   2.41870   2.42096   2.42525   2.43028
 Alpha virt. eigenvalues --    2.43388   2.44073   2.44861   2.45347   2.46191
 Alpha virt. eigenvalues --    2.47361   2.47826   2.48479   2.49192   2.49665
 Alpha virt. eigenvalues --    2.51136   2.51791   2.52770   2.53848   2.54075
 Alpha virt. eigenvalues --    2.56032   2.56239   2.57983   2.58410   2.58726
 Alpha virt. eigenvalues --    2.59056   2.60289   2.60571   2.61414   2.61782
 Alpha virt. eigenvalues --    2.62431   2.63500   2.64098   2.65032   2.65247
 Alpha virt. eigenvalues --    2.65502   2.66547   2.66842   2.67583   2.68439
 Alpha virt. eigenvalues --    2.68824   2.69390   2.69637   2.70524   2.71253
 Alpha virt. eigenvalues --    2.71355   2.72258   2.72625   2.73074   2.74146
 Alpha virt. eigenvalues --    2.74856   2.75858   2.76859   2.78043   2.79032
 Alpha virt. eigenvalues --    2.79980   2.81193   2.81358   2.83063   2.83799
 Alpha virt. eigenvalues --    2.85556   2.86524   2.87542   2.88210   2.89835
 Alpha virt. eigenvalues --    2.90812   2.91736   2.92980   2.94779   2.95094
 Alpha virt. eigenvalues --    2.96202   2.96867   2.97045   2.98687   2.99443
 Alpha virt. eigenvalues --    2.99932   3.00889   3.02389   3.03771   3.05599
 Alpha virt. eigenvalues --    3.06210   3.07293   3.08539   3.09141   3.11072
 Alpha virt. eigenvalues --    3.11377   3.12385   3.12566   3.13226   3.13435
 Alpha virt. eigenvalues --    3.14072   3.15254   3.15675   3.15771   3.16579
 Alpha virt. eigenvalues --    3.17744   3.17834   3.18796   3.19084   3.19614
 Alpha virt. eigenvalues --    3.21164   3.22034   3.23003   3.24243   3.24511
 Alpha virt. eigenvalues --    3.25400   3.25773   3.26059   3.26564   3.26914
 Alpha virt. eigenvalues --    3.27227   3.27902   3.29101   3.29579   3.30555
 Alpha virt. eigenvalues --    3.30612   3.31397   3.31940   3.32390   3.32876
 Alpha virt. eigenvalues --    3.33665   3.33933   3.34348   3.34468   3.35875
 Alpha virt. eigenvalues --    3.36762   3.37042   3.37486   3.38199   3.39073
 Alpha virt. eigenvalues --    3.39361   3.41169   3.41940   3.42082   3.42508
 Alpha virt. eigenvalues --    3.43379   3.43622   3.44202   3.44890   3.45583
 Alpha virt. eigenvalues --    3.46634   3.47466   3.48678   3.49371   3.50700
 Alpha virt. eigenvalues --    3.51428   3.52914   3.53822   3.54989   3.55266
 Alpha virt. eigenvalues --    3.56167   3.56870   3.57677   3.58137   3.59196
 Alpha virt. eigenvalues --    3.60106   3.60519   3.61632   3.62788   3.63171
 Alpha virt. eigenvalues --    3.64352   3.64697   3.65389   3.65902   3.67110
 Alpha virt. eigenvalues --    3.67704   3.68151   3.69769   3.70157   3.72167
 Alpha virt. eigenvalues --    3.72374   3.73696   3.74761   3.75008   3.76087
 Alpha virt. eigenvalues --    3.79943   3.80853   3.82194   3.83139   3.83939
 Alpha virt. eigenvalues --    3.85574   3.88034   3.89715   3.90879   3.93363
 Alpha virt. eigenvalues --    3.93851   3.94535   3.98101   3.99410   4.00426
 Alpha virt. eigenvalues --    4.02715   4.04700   4.06292   4.07586   4.08635
 Alpha virt. eigenvalues --    4.11577   4.12780   4.14176   4.16305   4.18065
 Alpha virt. eigenvalues --    4.18975   4.21011   4.22507   4.23911   4.25415
 Alpha virt. eigenvalues --    4.26575   4.27522   4.27878   4.29377   4.29572
 Alpha virt. eigenvalues --    4.30771   4.31210   4.33108   4.35222   4.36079
 Alpha virt. eigenvalues --    4.37641   4.38499   4.39409   4.39907   4.40710
 Alpha virt. eigenvalues --    4.42420   4.42675   4.44752   4.46602   4.49869
 Alpha virt. eigenvalues --    4.51780   4.52373   4.53929   4.57489   4.59809
 Alpha virt. eigenvalues --    4.62536   4.65406   4.67226   4.68434   4.71563
 Alpha virt. eigenvalues --    4.72130   4.74549   4.77192   4.82768   4.83653
 Alpha virt. eigenvalues --    4.85436   4.89272   4.91550   4.97835   5.00178
 Alpha virt. eigenvalues --    5.01493   5.05959   5.10888   5.20200   5.22414
 Alpha virt. eigenvalues --    5.23845   5.25090   5.27386   5.30691   5.45564
 Alpha virt. eigenvalues --    5.48461   5.49107   5.51804   5.60781   5.80631
 Alpha virt. eigenvalues --    5.84834   5.85970   5.87942   5.92015   5.98945
 Alpha virt. eigenvalues --    6.13856   6.17661   6.21488   6.36232   6.40117
 Alpha virt. eigenvalues --    6.51703   6.60261   6.63087   6.66906   6.69201
 Alpha virt. eigenvalues --    6.73099   6.78159   6.83002   6.84303   6.88958
 Alpha virt. eigenvalues --    6.90530   6.97903   7.05258   7.07125   7.14954
 Alpha virt. eigenvalues --    7.22402   7.33860   7.41209  12.18584  22.30157
 Alpha virt. eigenvalues --   22.39180  22.43211  22.44112  22.45322  22.55008
 Alpha virt. eigenvalues --   22.61484  22.66490  22.68700  22.75471  22.81354
 Alpha virt. eigenvalues --   22.84051  22.94220  23.45245  44.12475  44.48675
 Alpha virt. eigenvalues --   44.54812
          Condensed to atoms (all electrons):
               1          2          3          4          5          6
     1  C    5.456695  -0.069370   0.056679  -0.060319  -0.044126   0.438959
     2  C   -0.069370   6.057237  -0.003809  -0.015460  -0.013735  -0.069326
     3  C    0.056679  -0.003809   5.851294  -0.105919   0.066390  -0.003670
     4  C   -0.060319  -0.015460  -0.105919   6.111852   0.075709   0.005233
     5  C   -0.044126  -0.013735   0.066390   0.075709   4.547183  -0.011607
     6  H    0.438959  -0.069326  -0.003670   0.005233  -0.011607   0.515992
     7  H   -0.015928   0.411342  -0.072478   0.004812  -0.006482   0.006683
     8  H   -0.000797   0.011563  -0.029202   0.403189  -0.026412  -0.000194
     9  H   -0.003494   0.004231  -0.054543   0.401076  -0.015786  -0.002316
    10  O    0.183030  -0.038342   0.005658  -0.141250   0.377637  -0.030983
    11  O    0.003803  -0.003201   0.011340  -0.139307   0.697902  -0.000067
    12  C    0.189988  -0.025990   0.013883  -0.006149   0.002866  -0.034342
    13  C   -0.046963   0.030480  -0.000488  -0.000800  -0.000975   0.007690
    14  C   -0.025983   0.114132  -0.026092  -0.000496   0.001146   0.006776
    15  O    0.006277  -0.016780   0.150783  -0.036120  -0.001918   0.000201
    16  Si  -0.001065  -0.001213  -0.073066   0.004349   0.007610  -0.000082
    17  C    0.000687  -0.002426  -0.006220   0.024965  -0.006167  -0.000001
    18  C   -0.001313  -0.006351   0.022389  -0.015783   0.008075  -0.000002
    19  C   -0.000177   0.001795  -0.002016  -0.000043  -0.000270  -0.000001
    20  H    0.000729  -0.004575   0.000902   0.001246  -0.001096  -0.000008
    21  H   -0.000032   0.000508  -0.000726   0.000300  -0.000157   0.000001
    22  H   -0.001893   0.004588  -0.004353  -0.001118   0.008067  -0.000005
    23  H    0.000014  -0.000285   0.000506   0.000043   0.000021   0.000000
    24  H    0.000001  -0.000027  -0.000011   0.000057   0.000007   0.000000
    25  H    0.000002  -0.000012   0.000004   0.000005   0.000008   0.000000
    26  H   -0.000015   0.000091   0.000166  -0.000659   0.000187   0.000000
    27  H   -0.000004  -0.000180   0.004926  -0.005958   0.000190   0.000000
    28  H    0.000001   0.000927  -0.006612   0.003900  -0.000218  -0.000014
    29  H    0.013744  -0.073985   0.024475   0.001080   0.000012  -0.000552
    30  H   -0.025534  -0.025570   0.012551  -0.000746   0.000012  -0.000047
    31  H   -0.001051  -0.017082  -0.040101   0.000643  -0.000211   0.002390
    32  H   -0.025096  -0.025835  -0.000742   0.000348  -0.000082  -0.001335
    33  H   -0.059324   0.017043  -0.000608   0.000651  -0.000090  -0.008051
    34  H    0.011188  -0.011553  -0.000428   0.000723  -0.000663   0.000333
    35  H    0.012391  -0.001382   0.000005   0.000013   0.000024  -0.000157
    36  H   -0.028360   0.029786   0.000685   0.000214   0.000105  -0.000621
    37  C   -0.009495  -0.036980   0.113999  -0.006580  -0.001283   0.002050
    38  C   -0.002672   0.017015  -0.038144  -0.019416  -0.001481  -0.000228
    39  C    0.000016   0.000029  -0.004684  -0.002564   0.000406   0.000066
    40  H   -0.001648   0.011813  -0.043961  -0.011530  -0.000218   0.001067
    41  H    0.002904  -0.024066  -0.041235   0.005373   0.000177  -0.000173
    42  H   -0.000003   0.000319   0.008352  -0.004551   0.000122  -0.000006
    43  H   -0.000002   0.000024  -0.000228   0.000018   0.000000  -0.000001
    44  H    0.000003   0.000062  -0.001237  -0.000385  -0.000047   0.000049
               7          8          9         10         11         12
     1  C   -0.015928  -0.000797  -0.003494   0.183030   0.003803   0.189988
     2  C    0.411342   0.011563   0.004231  -0.038342  -0.003201  -0.025990
     3  C   -0.072478  -0.029202  -0.054543   0.005658   0.011340   0.013883
     4  C    0.004812   0.403189   0.401076  -0.141250  -0.139307  -0.006149
     5  C   -0.006482  -0.026412  -0.015786   0.377637   0.697902   0.002866
     6  H    0.006683  -0.000194  -0.002316  -0.030983  -0.000067  -0.034342
     7  H    0.543198  -0.000350  -0.000616  -0.000658  -0.001074  -0.015117
     8  H   -0.000350   0.439944  -0.005021   0.004711   0.003047   0.000159
     9  H   -0.000616  -0.005021   0.445354   0.002896   0.004380   0.000357
    10  O   -0.000658   0.004711   0.002896   7.992799  -0.093362  -0.035874
    11  O   -0.001074   0.003047   0.004380  -0.093362   7.874896  -0.000508
    12  C   -0.015117   0.000159   0.000357  -0.035874  -0.000508   5.222616
    13  C   -0.004910   0.000013  -0.000039  -0.007413  -0.000067   0.234350
    14  C   -0.028254  -0.000107   0.000314   0.007391  -0.000104   0.023433
    15  O   -0.010434  -0.002865   0.003913  -0.000035   0.000186  -0.000432
    16  Si   0.003262  -0.004882   0.001222  -0.002676   0.008524  -0.000346
    17  C    0.000414  -0.010550  -0.000105  -0.000108  -0.012282   0.000004
    18  C   -0.007600   0.001261   0.000014   0.000333  -0.004395   0.000479
    19  C   -0.000064   0.000193   0.000018  -0.000010   0.000046   0.000006
    20  H    0.002031  -0.000041   0.000000  -0.000056   0.000116   0.000032
    21  H    0.000379  -0.000036   0.000000   0.000019   0.000032   0.000002
    22  H   -0.003118   0.000029   0.000007  -0.001088   0.001703   0.000190
    23  H    0.000103  -0.000011   0.000000  -0.000001   0.000000  -0.000001
    24  H    0.000003  -0.000007   0.000002   0.000000   0.000001   0.000000
    25  H   -0.000007  -0.000004   0.000000   0.000000   0.000001   0.000000
    26  H   -0.000029   0.000822   0.000002   0.000002   0.000188   0.000000
    27  H   -0.000004   0.001312  -0.000039  -0.000005   0.000145   0.000000
    28  H   -0.000183  -0.004002   0.000582   0.000378   0.013598   0.000007
    29  H   -0.004419  -0.000060  -0.000016  -0.000276   0.000002  -0.000843
    30  H   -0.013534   0.000007   0.000025   0.000132   0.000000   0.014218
    31  H    0.008608   0.000019  -0.000138  -0.000066   0.000000  -0.007192
    32  H    0.002976  -0.000009  -0.000016   0.003447   0.000012   0.425265
    33  H   -0.000963  -0.000010   0.000006   0.002145   0.000000   0.435962
    34  H    0.003758  -0.000010  -0.000012   0.005312   0.000234  -0.049906
    35  H    0.000399   0.000000   0.000000   0.000110   0.000000  -0.044623
    36  H   -0.012216  -0.000002   0.000004   0.000528   0.000010  -0.032335
    37  C    0.013527  -0.007449  -0.004606  -0.000256  -0.000178  -0.000200
    38  C   -0.000744   0.000328   0.000170  -0.000258  -0.000269   0.000025
    39  C   -0.000019   0.000165   0.001236  -0.000008   0.000003   0.000012
    40  H    0.000255   0.000597  -0.001956  -0.000089   0.000003   0.000503
    41  H   -0.000913  -0.000023   0.000841  -0.000024   0.000009   0.000057
    42  H    0.000016   0.000843   0.000420   0.000003   0.000015   0.000005
    43  H    0.000000   0.000034  -0.000001   0.000000   0.000000   0.000000
    44  H    0.000002   0.000097   0.000152   0.000001   0.000000   0.000004
              13         14         15         16         17         18
     1  C   -0.046963  -0.025983   0.006277  -0.001065   0.000687  -0.001313
     2  C    0.030480   0.114132  -0.016780  -0.001213  -0.002426  -0.006351
     3  C   -0.000488  -0.026092   0.150783  -0.073066  -0.006220   0.022389
     4  C   -0.000800  -0.000496  -0.036120   0.004349   0.024965  -0.015783
     5  C   -0.000975   0.001146  -0.001918   0.007610  -0.006167   0.008075
     6  H    0.007690   0.006776   0.000201  -0.000082  -0.000001  -0.000002
     7  H   -0.004910  -0.028254  -0.010434   0.003262   0.000414  -0.007600
     8  H    0.000013  -0.000107  -0.002865  -0.004882  -0.010550   0.001261
     9  H   -0.000039   0.000314   0.003913   0.001222  -0.000105   0.000014
    10  O   -0.007413   0.007391  -0.000035  -0.002676  -0.000108   0.000333
    11  O   -0.000067  -0.000104   0.000186   0.008524  -0.012282  -0.004395
    12  C    0.234350   0.023433  -0.000432  -0.000346   0.000004   0.000479
    13  C    5.106726  -0.012214  -0.000027   0.000213  -0.000006  -0.000273
    14  C   -0.012214   5.217603  -0.011471  -0.002624  -0.000108   0.000690
    15  O   -0.000027  -0.011471   8.041306   0.386455  -0.026497  -0.026780
    16  Si   0.000213  -0.002624   0.386455  12.429140   0.328252   0.324014
    17  C   -0.000006  -0.000108  -0.026497   0.328252   5.221024  -0.046858
    18  C   -0.000273   0.000690  -0.026780   0.324014  -0.046858   5.218711
    19  C   -0.000004   0.000190  -0.018277   0.399257  -0.052358  -0.042981
    20  H   -0.000271  -0.000623   0.000174  -0.041746   0.003529   0.390194
    21  H   -0.000001  -0.000006   0.001192  -0.021269   0.000506   0.379520
    22  H   -0.000270   0.000582   0.001323  -0.034610   0.002059   0.390353
    23  H    0.000000  -0.000099   0.000470  -0.032130   0.003294   0.000402
    24  H    0.000000  -0.000025   0.000467  -0.034925   0.000561   0.003099
    25  H    0.000000  -0.000012   0.001218  -0.043613   0.003871   0.003037
    26  H    0.000000   0.000001   0.001185  -0.023485   0.378323   0.001581
    27  H    0.000000   0.000002  -0.000680  -0.042671   0.393557   0.003433
    28  H    0.000000  -0.000003   0.002317  -0.031128   0.385645   0.001761
    29  H   -0.000059   0.427366   0.006728  -0.000347   0.000076  -0.000106
    30  H   -0.003348   0.417897  -0.000234  -0.000151  -0.000001   0.000210
    31  H    0.000982   0.412852   0.000869   0.000164   0.000004  -0.000045
    32  H   -0.043031   0.002343  -0.000010   0.000018   0.000000  -0.000025
    33  H   -0.039187  -0.001383   0.000011   0.000016   0.000000  -0.000006
    34  H    0.414376   0.000978   0.000006   0.000058   0.000001  -0.000310
    35  H    0.416255   0.000695  -0.000001  -0.000005   0.000000  -0.000003
    36  H    0.409035  -0.005921   0.000030  -0.000023   0.000002   0.000216
    37  C    0.000038  -0.004642  -0.088920   0.008033   0.001090  -0.001130
    38  C    0.000006  -0.001148   0.009629   0.000740  -0.001541   0.000213
    39  C    0.000000  -0.000363   0.002695  -0.000081   0.000070   0.000014
    40  H    0.000003  -0.009118   0.004469  -0.000288   0.000020   0.000030
    41  H   -0.000011   0.002775  -0.000883  -0.000837   0.000030   0.000096
    42  H    0.000000  -0.000090   0.004755  -0.001351  -0.000134   0.000157
    43  H    0.000000   0.000002   0.000004   0.000003   0.000000   0.000000
    44  H    0.000000   0.000000  -0.000019   0.000001  -0.000003   0.000000
              19         20         21         22         23         24
     1  C   -0.000177   0.000729  -0.000032  -0.001893   0.000014   0.000001
     2  C    0.001795  -0.004575   0.000508   0.004588  -0.000285  -0.000027
     3  C   -0.002016   0.000902  -0.000726  -0.004353   0.000506  -0.000011
     4  C   -0.000043   0.001246   0.000300  -0.001118   0.000043   0.000057
     5  C   -0.000270  -0.001096  -0.000157   0.008067   0.000021   0.000007
     6  H   -0.000001  -0.000008   0.000001  -0.000005   0.000000   0.000000
     7  H   -0.000064   0.002031   0.000379  -0.003118   0.000103   0.000003
     8  H    0.000193  -0.000041  -0.000036   0.000029  -0.000011  -0.000007
     9  H    0.000018   0.000000   0.000000   0.000007   0.000000   0.000002
    10  O   -0.000010  -0.000056   0.000019  -0.001088  -0.000001   0.000000
    11  O    0.000046   0.000116   0.000032   0.001703   0.000000   0.000001
    12  C    0.000006   0.000032   0.000002   0.000190  -0.000001   0.000000
    13  C   -0.000004  -0.000271  -0.000001  -0.000270   0.000000   0.000000
    14  C    0.000190  -0.000623  -0.000006   0.000582  -0.000099  -0.000025
    15  O   -0.018277   0.000174   0.001192   0.001323   0.000470   0.000467
    16  Si   0.399257  -0.041746  -0.021269  -0.034610  -0.032130  -0.034925
    17  C   -0.052358   0.003529   0.000506   0.002059   0.003294   0.000561
    18  C   -0.042981   0.390194   0.379520   0.390353   0.000402   0.003099
    19  C    5.113224   0.001273   0.000581   0.002974   0.389492   0.392611
    20  H    0.001273   0.514837  -0.015220  -0.018589   0.001064  -0.000186
    21  H    0.000581  -0.015220   0.495760  -0.013359   0.000243  -0.000140
    22  H    0.002974  -0.018589  -0.013359   0.487688  -0.000132  -0.000089
    23  H    0.389492   0.001064   0.000243  -0.000132   0.518684  -0.018097
    24  H    0.392611  -0.000186  -0.000140  -0.000089  -0.018097   0.517408
    25  H    0.392456   0.000253   0.000267  -0.000191  -0.019377  -0.018943
    26  H    0.001413  -0.000186   0.000264   0.000196  -0.000132   0.000297
    27  H    0.002217  -0.000100  -0.000142  -0.000207  -0.000184   0.000877
    28  H    0.002764  -0.000177   0.000282   0.000202  -0.000093  -0.000109
    29  H   -0.000125   0.000258  -0.000003  -0.000028   0.000224   0.000006
    30  H    0.000003   0.000009   0.000001  -0.000002  -0.000002   0.000000
    31  H   -0.000005   0.000005   0.000000  -0.000005   0.000003   0.000000
    32  H    0.000000  -0.000002   0.000000   0.000002   0.000000   0.000000
    33  H    0.000000   0.000002   0.000000   0.000001   0.000000   0.000000
    34  H    0.000000   0.000038  -0.000005   0.000248   0.000000   0.000000
    35  H    0.000000  -0.000005   0.000000   0.000010   0.000000   0.000000
    36  H    0.000000   0.000261   0.000007  -0.000053  -0.000001   0.000000
    37  C   -0.000685   0.000019   0.000017  -0.000186   0.000158   0.000094
    38  C   -0.000119   0.000001  -0.000002  -0.000004   0.000001  -0.000140
    39  C   -0.000011   0.000000   0.000000   0.000000   0.000000   0.000008
    40  H    0.000000  -0.000001   0.000000  -0.000003  -0.000001   0.000003
    41  H   -0.000058   0.000000  -0.000001  -0.000004  -0.000005  -0.000023
    42  H    0.000001  -0.000004  -0.000003  -0.000007  -0.000010   0.000588
    43  H    0.000000   0.000000   0.000000   0.000000   0.000000  -0.000001
    44  H    0.000000   0.000000   0.000000   0.000000   0.000000   0.000000
              25         26         27         28         29         30
     1  C    0.000002  -0.000015  -0.000004   0.000001   0.013744  -0.025534
     2  C   -0.000012   0.000091  -0.000180   0.000927  -0.073985  -0.025570
     3  C    0.000004   0.000166   0.004926  -0.006612   0.024475   0.012551
     4  C    0.000005  -0.000659  -0.005958   0.003900   0.001080  -0.000746
     5  C    0.000008   0.000187   0.000190  -0.000218   0.000012   0.000012
     6  H    0.000000   0.000000   0.000000  -0.000014  -0.000552  -0.000047
     7  H   -0.000007  -0.000029  -0.000004  -0.000183  -0.004419  -0.013534
     8  H   -0.000004   0.000822   0.001312  -0.004002  -0.000060   0.000007
     9  H    0.000000   0.000002  -0.000039   0.000582  -0.000016   0.000025
    10  O    0.000000   0.000002  -0.000005   0.000378  -0.000276   0.000132
    11  O    0.000001   0.000188   0.000145   0.013598   0.000002   0.000000
    12  C    0.000000   0.000000   0.000000   0.000007  -0.000843   0.014218
    13  C    0.000000   0.000000   0.000000   0.000000  -0.000059  -0.003348
    14  C   -0.000012   0.000001   0.000002  -0.000003   0.427366   0.417897
    15  O    0.001218   0.001185  -0.000680   0.002317   0.006728  -0.000234
    16  Si  -0.043613  -0.023485  -0.042671  -0.031128  -0.000347  -0.000151
    17  C    0.003871   0.378323   0.393557   0.385645   0.000076  -0.000001
    18  C    0.003037   0.001581   0.003433   0.001761  -0.000106   0.000210
    19  C    0.392456   0.001413   0.002217   0.002764  -0.000125   0.000003
    20  H    0.000253  -0.000186  -0.000100  -0.000177   0.000258   0.000009
    21  H    0.000267   0.000264  -0.000142   0.000282  -0.000003   0.000001
    22  H   -0.000191   0.000196  -0.000207   0.000202  -0.000028  -0.000002
    23  H   -0.019377  -0.000132  -0.000184  -0.000093   0.000224  -0.000002
    24  H   -0.018943   0.000297   0.000877  -0.000109   0.000006   0.000000
    25  H    0.527567   0.000168   0.000199  -0.000136   0.000006   0.000000
    26  H    0.000168   0.503588  -0.014766  -0.014247  -0.000001   0.000000
    27  H    0.000199  -0.014766   0.510955  -0.019205  -0.000002   0.000000
    28  H   -0.000136  -0.014247  -0.019205   0.490909  -0.000001   0.000000
    29  H    0.000006  -0.000001  -0.000002  -0.000001   0.485675  -0.018690
    30  H    0.000000   0.000000   0.000000   0.000000  -0.018690   0.502896
    31  H    0.000000   0.000000   0.000000   0.000000  -0.022417  -0.023658
    32  H    0.000000   0.000000   0.000000   0.000000   0.000533  -0.008378
    33  H    0.000000   0.000000   0.000000   0.000000   0.000029   0.000404
    34  H    0.000000   0.000000   0.000000  -0.000002   0.000014  -0.000033
    35  H    0.000000   0.000000   0.000000   0.000000  -0.000007   0.000035
    36  H    0.000000   0.000000   0.000000   0.000000   0.000065   0.002013
    37  C    0.000000  -0.000038  -0.000095  -0.000115  -0.016718  -0.000239
    38  C    0.000003   0.000008  -0.000009   0.000051  -0.000243   0.000054
    39  C    0.000001  -0.000001   0.000040   0.000005   0.000014   0.000003
    40  H    0.000000   0.000000   0.000005  -0.000004   0.001030  -0.000086
    41  H    0.000003  -0.000001   0.000002   0.000003  -0.000459   0.000715
    42  H    0.000010   0.000008   0.000794  -0.000009   0.000028   0.000001
    43  H    0.000000   0.000000  -0.000002  -0.000001   0.000000   0.000000
    44  H    0.000000   0.000000   0.000002   0.000000  -0.000002   0.000000
              31         32         33         34         35         36
     1  C   -0.001051  -0.025096  -0.059324   0.011188   0.012391  -0.028360
     2  C   -0.017082  -0.025835   0.017043  -0.011553  -0.001382   0.029786
     3  C   -0.040101  -0.000742  -0.000608  -0.000428   0.000005   0.000685
     4  C    0.000643   0.000348   0.000651   0.000723   0.000013   0.000214
     5  C   -0.000211  -0.000082  -0.000090  -0.000663   0.000024   0.000105
     6  H    0.002390  -0.001335  -0.008051   0.000333  -0.000157  -0.000621
     7  H    0.008608   0.002976  -0.000963   0.003758   0.000399  -0.012216
     8  H    0.000019  -0.000009  -0.000010  -0.000010   0.000000  -0.000002
     9  H   -0.000138  -0.000016   0.000006  -0.000012   0.000000   0.000004
    10  O   -0.000066   0.003447   0.002145   0.005312   0.000110   0.000528
    11  O    0.000000   0.000012   0.000000   0.000234   0.000000   0.000010
    12  C   -0.007192   0.425265   0.435962  -0.049906  -0.044623  -0.032335
    13  C    0.000982  -0.043031  -0.039187   0.414376   0.416255   0.409035
    14  C    0.412852   0.002343  -0.001383   0.000978   0.000695  -0.005921
    15  O    0.000869  -0.000010   0.000011   0.000006  -0.000001   0.000030
    16  Si   0.000164   0.000018   0.000016   0.000058  -0.000005  -0.000023
    17  C    0.000004   0.000000   0.000000   0.000001   0.000000   0.000002
    18  C   -0.000045  -0.000025  -0.000006  -0.000310  -0.000003   0.000216
    19  C   -0.000005   0.000000   0.000000   0.000000   0.000000   0.000000
    20  H    0.000005  -0.000002   0.000002   0.000038  -0.000005   0.000261
    21  H    0.000000   0.000000   0.000000  -0.000005   0.000000   0.000007
    22  H   -0.000005   0.000002   0.000001   0.000248   0.000010  -0.000053
    23  H    0.000003   0.000000   0.000000   0.000000   0.000000  -0.000001
    24  H    0.000000   0.000000   0.000000   0.000000   0.000000   0.000000
    25  H    0.000000   0.000000   0.000000   0.000000   0.000000   0.000000
    26  H    0.000000   0.000000   0.000000   0.000000   0.000000   0.000000
    27  H    0.000000   0.000000   0.000000   0.000000   0.000000   0.000000
    28  H    0.000000   0.000000   0.000000  -0.000002   0.000000   0.000000
    29  H   -0.022417   0.000533   0.000029   0.000014  -0.000007   0.000065
    30  H   -0.023658  -0.008378   0.000404  -0.000033   0.000035   0.002013
    31  H    0.499229  -0.000425  -0.000081  -0.000026  -0.000021   0.000016
    32  H   -0.000425   0.516066  -0.016992   0.005970  -0.004091  -0.002265
    33  H   -0.000081  -0.016992   0.511942  -0.002130  -0.004865   0.005532
    34  H   -0.000026   0.005970  -0.002130   0.507722  -0.021638  -0.026853
    35  H   -0.000021  -0.004091  -0.004865  -0.021638   0.511585  -0.021505
    36  H    0.000016  -0.002265   0.005532  -0.026853  -0.021505   0.535699
    37  C    0.013849  -0.000001  -0.000030   0.000005   0.000001  -0.000055
    38  C    0.000145   0.000003  -0.000001   0.000000   0.000000   0.000003
    39  C    0.000009  -0.000001   0.000000   0.000000   0.000000   0.000000
    40  H   -0.000131   0.000048  -0.000014   0.000001   0.000000  -0.000006
    41  H   -0.007179  -0.000007   0.000001   0.000000   0.000000  -0.000001
    42  H    0.000008   0.000000   0.000000   0.000000   0.000000   0.000000
    43  H    0.000000   0.000000   0.000000   0.000000   0.000000   0.000000
    44  H    0.000008   0.000000   0.000000   0.000000   0.000000   0.000000
              37         38         39         40         41         42
     1  C   -0.009495  -0.002672   0.000016  -0.001648   0.002904  -0.000003
     2  C   -0.036980   0.017015   0.000029   0.011813  -0.024066   0.000319
     3  C    0.113999  -0.038144  -0.004684  -0.043961  -0.041235   0.008352
     4  C   -0.006580  -0.019416  -0.002564  -0.011530   0.005373  -0.004551
     5  C   -0.001283  -0.001481   0.000406  -0.000218   0.000177   0.000122
     6  H    0.002050  -0.000228   0.000066   0.001067  -0.000173  -0.000006
     7  H    0.013527  -0.000744  -0.000019   0.000255  -0.000913   0.000016
     8  H   -0.007449   0.000328   0.000165   0.000597  -0.000023   0.000843
     9  H   -0.004606   0.000170   0.001236  -0.001956   0.000841   0.000420
    10  O   -0.000256  -0.000258  -0.000008  -0.000089  -0.000024   0.000003
    11  O   -0.000178  -0.000269   0.000003   0.000003   0.000009   0.000015
    12  C   -0.000200   0.000025   0.000012   0.000503   0.000057   0.000005
    13  C    0.000038   0.000006   0.000000   0.000003  -0.000011   0.000000
    14  C   -0.004642  -0.001148  -0.000363  -0.009118   0.002775  -0.000090
    15  O   -0.088920   0.009629   0.002695   0.004469  -0.000883   0.004755
    16  Si   0.008033   0.000740  -0.000081  -0.000288  -0.000837  -0.001351
    17  C    0.001090  -0.001541   0.000070   0.000020   0.000030  -0.000134
    18  C   -0.001130   0.000213   0.000014   0.000030   0.000096   0.000157
    19  C   -0.000685  -0.000119  -0.000011   0.000000  -0.000058   0.000001
    20  H    0.000019   0.000001   0.000000  -0.000001   0.000000  -0.000004
    21  H    0.000017  -0.000002   0.000000   0.000000  -0.000001  -0.000003
    22  H   -0.000186  -0.000004   0.000000  -0.000003  -0.000004  -0.000007
    23  H    0.000158   0.000001   0.000000  -0.000001  -0.000005  -0.000010
    24  H    0.000094  -0.000140   0.000008   0.000003  -0.000023   0.000588
    25  H    0.000000   0.000003   0.000001   0.000000   0.000003   0.000010
    26  H   -0.000038   0.000008  -0.000001   0.000000  -0.000001   0.000008
    27  H   -0.000095  -0.000009   0.000040   0.000005   0.000002   0.000794
    28  H   -0.000115   0.000051   0.000005  -0.000004   0.000003  -0.000009
    29  H   -0.016718  -0.000243   0.000014   0.001030  -0.000459   0.000028
    30  H   -0.000239   0.000054   0.000003  -0.000086   0.000715   0.000001
    31  H    0.013849   0.000145   0.000009  -0.000131  -0.007179   0.000008
    32  H   -0.000001   0.000003  -0.000001   0.000048  -0.000007   0.000000
    33  H   -0.000030  -0.000001   0.000000  -0.000014   0.000001   0.000000
    34  H    0.000005   0.000000   0.000000   0.000001   0.000000   0.000000
    35  H    0.000001   0.000000   0.000000   0.000000   0.000000   0.000000
    36  H   -0.000055   0.000003   0.000000  -0.000006  -0.000001   0.000000
    37  C    5.363206   0.246568  -0.050327   0.428782   0.441581  -0.047482
    38  C    0.246568   5.167705   0.539660  -0.042463  -0.035722   0.411534
    39  C   -0.050327   0.539660   5.005655   0.002816  -0.003544  -0.026749
    40  H    0.428782  -0.042463   0.002816   0.489240  -0.015851   0.003584
    41  H    0.441581  -0.035722  -0.003544  -0.015851   0.493658   0.000374
    42  H   -0.047482   0.411534  -0.026749   0.003584   0.000374   0.488967
    43  H    0.006932  -0.053698   0.427620   0.000240  -0.000295  -0.005907
    44  H    0.004703  -0.062936   0.428701  -0.000309   0.000654   0.004122
              43         44
     1  C   -0.000002   0.000003
     2  C    0.000024   0.000062
     3  C   -0.000228  -0.001237
     4  C    0.000018  -0.000385
     5  C    0.000000  -0.000047
     6  H   -0.000001   0.000049
     7  H    0.000000   0.000002
     8  H    0.000034   0.000097
     9  H   -0.000001   0.000152
    10  O    0.000000   0.000001
    11  O    0.000000   0.000000
    12  C    0.000000   0.000004
    13  C    0.000000   0.000000
    14  C    0.000002   0.000000
    15  O    0.000004  -0.000019
    16  Si   0.000003   0.000001
    17  C    0.000000  -0.000003
    18  C    0.000000   0.000000
    19  C    0.000000   0.000000
    20  H    0.000000   0.000000
    21  H    0.000000   0.000000
    22  H    0.000000   0.000000
    23  H    0.000000   0.000000
    24  H   -0.000001   0.000000
    25  H    0.000000   0.000000
    26  H    0.000000   0.000000
    27  H   -0.000002   0.000002
    28  H   -0.000001   0.000000
    29  H    0.000000  -0.000002
    30  H    0.000000   0.000000
    31  H    0.000000   0.000008
    32  H    0.000000   0.000000
    33  H    0.000000   0.000000
    34  H    0.000000   0.000000
    35  H    0.000000   0.000000
    36  H    0.000000   0.000000
    37  C    0.006932   0.004703
    38  C   -0.053698  -0.062936
    39  C    0.427620   0.428701
    40  H    0.000240  -0.000309
    41  H   -0.000295   0.000654
    42  H   -0.005907   0.004122
    43  H    0.501305  -0.023455
    44  H   -0.023455   0.509632
 Mulliken charges:
               1
     1  C    0.047551
     2  C   -0.225452
     3  C    0.215585
     4  C   -0.470647
     5  C    0.339166
     6  H    0.176299
     7  H    0.198353
     8  H    0.223710
     9  H    0.221485
    10  O   -0.233695
    11  O   -0.365384
    12  C   -0.310565
    13  C   -0.459810
    14  C   -0.506281
    15  O   -0.384280
    16  Si   0.493284
    17  C   -0.582617
    18  C   -0.596322
    19  C   -0.583312
    20  H    0.165912
    21  H    0.171222
    22  H    0.179093
    23  H    0.155836
    24  H    0.156633
    25  H    0.153218
    26  H    0.165069
    27  H    0.165595
    28  H    0.172927
    29  H    0.177993
    30  H    0.169067
    31  H    0.180030
    32  H    0.171313
    33  H    0.159989
    34  H    0.162603
    35  H    0.156779
    36  H    0.146005
    37  C   -0.366963
    38  C   -0.132624
    39  C   -0.320890
    40  H    0.183170
    41  H    0.182064
    42  H    0.161281
    43  H    0.147413
    44  H    0.140201
 Sum of Mulliken charges =   0.00000
 Mulliken charges with hydrogens summed into heavy atoms:
               1
     1  C    0.223850
     2  C   -0.027100
     3  C    0.215585
     4  C   -0.025452
     5  C    0.339166
    10  O   -0.233695
    11  O   -0.365384
    12  C    0.020737
    13  C    0.005576
    14  C    0.020808
    15  O   -0.384280
    16  Si   0.493284
    17  C   -0.079026
    18  C   -0.080095
    19  C   -0.117626
    37  C   -0.001729
    38  C    0.028656
    39  C   -0.033276
 Electronic spatial extent (au):  <R**2>=           5141.6642
 Charge=              0.0000 electrons
 Dipole moment (field-independent basis, Debye):
    X=             -1.0772    Y=              2.5481    Z=             -4.0541  Tot=              4.9080
 Quadrupole moment (field-independent basis, Debye-Ang):
   XX=           -112.8628   YY=           -116.9037   ZZ=           -133.4134
   XY=             -6.0046   XZ=              6.8380   YZ=              8.2700
 Traceless Quadrupole moment (field-independent basis, Debye-Ang):
   XX=              8.1971   YY=              4.1563   ZZ=            -12.3534
   XY=             -6.0046   XZ=              6.8380   YZ=              8.2700
 Octapole moment (field-independent basis, Debye-Ang**2):
  XXX=            -24.4647  YYY=              1.1502  ZZZ=            -38.7587  XYY=              1.2750
  XXY=              1.0101  XXZ=             -1.7905  XZZ=             -1.5984  YZZ=             15.9582
  YYZ=              8.1590  XYZ=             -2.7047
 Hexadecapole moment (field-independent basis, Debye-Ang**3):
 XXXX=          -3253.4323 YYYY=          -2358.7382 ZZZZ=          -1445.4233 XXXY=             11.0114
 XXXZ=             27.7035 YYYX=            -48.8987 YYYZ=             45.1139 ZZZX=              8.0345
 ZZZY=             42.5990 XXYY=           -923.5358 XXZZ=           -812.5766 YYZZ=           -639.7393
 XXYZ=             12.0227 YYXZ=             20.3467 ZZXY=             -9.7559
 N-N= 1.647527357635D+03 E-N=-5.788482756917D+03  KE= 1.059306579907D+03
 1\1\GINC-CPU-E-68\SP\RM062X\def2TZVP\C14H26O3Si1\KE291\26-Jun-2019\0\\
 # m062x/def2tzvp int=ultrafine scrf=(solvent=chloroform)\\IP1_2ginp006
 \\0,1\C,0,-2.356946,0.415601,0.118053\C,0,-1.182014,0.203283,-0.85318\
 C,0,0.126069,0.840925,-0.268746\C,0,0.02922,0.887679,1.284466\C,0,-0.8
 34657,-0.187423,1.896075\H,0,-2.450333,1.48119,0.369925\H,0,-0.997846,
 -0.876098,-0.859273\H,0,1.018544,0.860214,1.737187\H,0,-0.423139,1.844
 699,1.573385\O,0,-2.065373,-0.314088,1.351872\O,0,-0.519231,-0.891147,
 2.834451\C,0,-3.728378,-0.087872,-0.337633\C,0,-3.801559,-1.583581,-0.
 662263\C,0,-1.492011,0.623851,-2.295291\O,0,1.249497,0.082608,-0.71209
 5\Si,0,2.011375,-1.362068,-0.29296\C,0,2.820564,-1.256267,1.407222\C,0
 ,0.837832,-2.841118,-0.323706\C,0,3.320201,-1.560661,-1.62935\H,0,0.34
 6638,-2.956145,-1.295791\H,0,1.411377,-3.756652,-0.134791\H,0,0.063244
 ,-2.781667,0.447538\H,0,2.865165,-1.634852,-2.622507\H,0,4.011481,-0.7
 11565,-1.639253\H,0,3.909173,-2.469474,-1.461935\H,0,3.446504,-2.14164
 8,1.57071\H,0,3.465246,-0.375094,1.494992\H,0,2.07823,-1.222945,2.2107
 04\H,0,-0.60407,0.503989,-2.921886\H,0,-2.279508,-0.00182,-2.721973\H,
 0,-1.820079,1.665388,-2.366397\H,0,-4.03751,0.509495,-1.202186\H,0,-4.
 438348,0.144761,0.464229\H,0,-3.496633,-2.184294,0.1986\H,0,-4.826373,
 -1.863441,-0.923512\H,0,-3.160825,-1.855663,-1.506838\C,0,0.36734,2.28
 2931,-0.788954\C,0,1.551458,2.968085,-0.165064\C,0,1.505009,4.135083,0
 .479489\H,0,-0.535646,2.883767,-0.627607\H,0,0.527336,2.215325,-1.8705
 42\H,0,2.505461,2.455109,-0.275634\H,0,2.397465,4.591992,0.89717\H,0,0
 .573284,4.682291,0.606591\\Version=ES64L-G09RevD.01\State=1-A\HF=-1064
 .3412764\RMSD=1.120e-09\Dipole=-0.423804,1.002508,-1.5950002\Quadrupol
 e=6.094355,3.0901124,-9.1844674,-4.4642856,5.0838528,6.1485083\PG=C01 
 [X(C14H26O3Si1)]\\@


 I CLAIM NOT TO HAVE CONTROLLED EVENTS,
 BUT CONFESS PLAINLY THAT EVENTS HAVE CONTROLLED ME.

                                         A. LINCOLN
 Job cpu time:       0 days  2 hours 23 minutes 27.3 seconds.
 File lengths (MBytes):  RWF=    405 Int=      0 D2E=      0 Chk=     21 Scr=      1
 Normal termination of Gaussian 09 at Wed Jun 26 13:55:02 2019.
