 Entering Gaussian System, Link 0=/usr/local/Cluster-Apps/gaussian/g09/g09
 Initial command:
 /usr/local/Cluster-Apps/gaussian/g09/l1.exe "/home/ke291/rds/hpc-work/26Jun1304IP1NMR/Gau-330905.inp" -scrdir="/home/ke291/rds/hpc-work/26Jun1304IP1NMR/"
 Entering Link 1 = /usr/local/Cluster-Apps/gaussian/g09/l1.exe PID=    330919.
  
 Copyright (c) 1988,1990,1992,1993,1995,1998,2003,2009,2013,
            Gaussian, Inc.  All Rights Reserved.
  
 This is part of the Gaussian(R) 09 program.  It is based on
 the Gaussian(R) 03 system (copyright 2003, Gaussian, Inc.),
 the Gaussian(R) 98 system (copyright 1998, Gaussian, Inc.),
 the Gaussian(R) 94 system (copyright 1995, Gaussian, Inc.),
 the Gaussian 92(TM) system (copyright 1992, Gaussian, Inc.),
 the Gaussian 90(TM) system (copyright 1990, Gaussian, Inc.),
 the Gaussian 88(TM) system (copyright 1988, Gaussian, Inc.),
 the Gaussian 86(TM) system (copyright 1986, Carnegie Mellon
 University), and the Gaussian 82(TM) system (copyright 1983,
 Carnegie Mellon University). Gaussian is a federally registered
 trademark of Gaussian, Inc.
  
 This software contains proprietary and confidential information,
 including trade secrets, belonging to Gaussian, Inc.
  
 This software is provided under written license and may be
 used, copied, transmitted, or stored only in accord with that
 written license.
  
 The following legend is applicable only to US Government
 contracts under FAR:
  
                    RESTRICTED RIGHTS LEGEND
  
 Use, reproduction and disclosure by the US Government is
 subject to restrictions as set forth in subparagraphs (a)
 and (c) of the Commercial Computer Software - Restricted
 Rights clause in FAR 52.227-19.
  
 Gaussian, Inc.
 340 Quinnipiac St., Bldg. 40, Wallingford CT 06492
  
  
 ---------------------------------------------------------------
 Warning -- This program may not be used in any manner that
 competes with the business of Gaussian, Inc. or will provide
 assistance to any competitor of Gaussian, Inc.  The licensee
 of this program is prohibited from giving any competitor of
 Gaussian, Inc. access to this program.  By using this program,
 the user acknowledges that Gaussian, Inc. is engaged in the
 business of creating and licensing software in the field of
 computational chemistry and represents and warrants to the
 licensee that it is not a competitor of Gaussian, Inc. and that
 it will not use this program in any manner prohibited above.
 ---------------------------------------------------------------
  

 Cite this work as:
 Gaussian 09, Revision D.01,
 M. J. Frisch, G. W. Trucks, H. B. Schlegel, G. E. Scuseria, 
 M. A. Robb, J. R. Cheeseman, G. Scalmani, V. Barone, B. Mennucci, 
 G. A. Petersson, H. Nakatsuji, M. Caricato, X. Li, H. P. Hratchian, 
 A. F. Izmaylov, J. Bloino, G. Zheng, J. L. Sonnenberg, M. Hada, 
 M. Ehara, K. Toyota, R. Fukuda, J. Hasegawa, M. Ishida, T. Nakajima, 
 Y. Honda, O. Kitao, H. Nakai, T. Vreven, J. A. Montgomery, Jr., 
 J. E. Peralta, F. Ogliaro, M. Bearpark, J. J. Heyd, E. Brothers, 
 K. N. Kudin, V. N. Staroverov, T. Keith, R. Kobayashi, J. Normand, 
 K. Raghavachari, A. Rendell, J. C. Burant, S. S. Iyengar, J. Tomasi, 
 M. Cossi, N. Rega, J. M. Millam, M. Klene, J. E. Knox, J. B. Cross, 
 V. Bakken, C. Adamo, J. Jaramillo, R. Gomperts, R. E. Stratmann, 
 O. Yazyev, A. J. Austin, R. Cammi, C. Pomelli, J. W. Ochterski, 
 R. L. Martin, K. Morokuma, V. G. Zakrzewski, G. A. Voth, 
 P. Salvador, J. J. Dannenberg, S. Dapprich, A. D. Daniels, 
 O. Farkas, J. B. Foresman, J. V. Ortiz, J. Cioslowski, 
 and D. J. Fox, Gaussian, Inc., Wallingford CT, 2013.
 
 ******************************************
 Gaussian 09:  ES64L-G09RevD.01 24-Apr-2013
                26-Jun-2019 
 ******************************************
 %nprocshared=4
 Will use up to    4 processors via shared memory.
 %mem=6000MB
 %chk=IP1_2ginp017.chk
 --------------------------------------------------------
 # m062x/def2tzvp int=ultrafine scrf=(solvent=chloroform)
 --------------------------------------------------------
 1/38=1/1;
 2/12=2,17=6,18=5,40=1/2;
 3/5=44,7=101,11=2,16=1,25=1,30=1,70=2201,72=7,74=-55,75=-5/1,2,3;
 4//1;
 5/5=2,38=5,53=7/2;
 6/7=2,8=2,9=2,10=2,28=1/1;
 99/5=1,9=1/99;
 ------------
 IP1_2ginp017
 ------------
 Symbolic Z-matrix:
 Charge =  0 Multiplicity = 1
 C                     2.11427   0.68956   0.51527 
 C                     0.86414   1.5791    0.31366 
 C                    -0.26674   0.82824  -0.43891 
 C                     0.30033   0.30877  -1.76529 
 C                     1.5948   -0.46756  -1.63929 
 H                     2.99015   1.34758   0.55753 
 H                     0.47227   1.80008   1.31223 
 H                    -0.41551  -0.32698  -2.29121 
 H                     0.50633   1.15255  -2.43477 
 O                     2.42399  -0.18495  -0.62038 
 O                     1.9352   -1.29863  -2.4584 
 C                     2.12267  -0.16863   1.78403 
 C                     3.4434   -0.91082   2.00735 
 C                     1.26415   2.91552  -0.33887 
 O                    -0.65938  -0.25855   0.40618 
 Si                   -1.55335  -1.6785    0.2305 
 C                    -3.06292  -1.4796   -0.88853 
 C                    -0.46455  -3.07071  -0.42505 
 C                    -2.11534  -2.07321   1.98232 
 H                    -1.05116  -3.99256  -0.51515 
 H                    -0.03808  -2.84787  -1.40753 
 H                     0.36828  -3.27344   0.2568 
 H                    -1.26109  -2.16735   2.66079 
 H                    -2.77164  -1.28975   2.37553 
 H                    -2.66859  -3.01872   2.00865 
 H                    -3.6215   -2.42325  -0.89889 
 H                    -3.74218  -0.70066  -0.52728 
 H                    -2.80207  -1.24885  -1.92672 
 H                     2.03378   3.4031    0.2672 
 H                     1.68094   2.77993  -1.34247 
 H                     0.42038   3.60455  -0.40703 
 H                     1.28535  -0.86892   1.74915 
 H                     1.93294   0.50784   2.62707 
 H                     3.41081  -1.48517   2.93829 
 H                     3.64991  -1.6044    1.18801 
 H                     4.28591  -0.21276   2.07572 
 C                    -1.49988   1.7281   -0.71002 
 C                    -2.12098   2.31394   0.52829 
 C                    -2.43482   3.60074   0.68849 
 H                    -2.2385    1.10181  -1.22571 
 H                    -1.23384   2.52584  -1.41033 
 H                    -2.32882   1.61034   1.33277 
 H                    -2.89982   3.9647    1.60007 
 H                    -2.24708   4.33767  -0.08954 
 
                          Input orientation:                          
 ---------------------------------------------------------------------
 Center     Atomic      Atomic             Coordinates (Angstroms)
 Number     Number       Type             X           Y           Z
 ---------------------------------------------------------------------
      1          6           0        2.114272    0.689560    0.515274
      2          6           0        0.864144    1.579096    0.313660
      3          6           0       -0.266737    0.828235   -0.438913
      4          6           0        0.300327    0.308771   -1.765292
      5          6           0        1.594800   -0.467556   -1.639286
      6          1           0        2.990154    1.347579    0.557533
      7          1           0        0.472272    1.800083    1.312232
      8          1           0       -0.415505   -0.326981   -2.291205
      9          1           0        0.506325    1.152546   -2.434771
     10          8           0        2.423985   -0.184954   -0.620380
     11          8           0        1.935203   -1.298631   -2.458404
     12          6           0        2.122667   -0.168625    1.784032
     13          6           0        3.443403   -0.910815    2.007346
     14          6           0        1.264146    2.915518   -0.338874
     15          8           0       -0.659380   -0.258550    0.406178
     16         14           0       -1.553347   -1.678497    0.230499
     17          6           0       -3.062921   -1.479601   -0.888527
     18          6           0       -0.464553   -3.070708   -0.425054
     19          6           0       -2.115340   -2.073208    1.982320
     20          1           0       -1.051159   -3.992558   -0.515145
     21          1           0       -0.038081   -2.847867   -1.407529
     22          1           0        0.368278   -3.273443    0.256802
     23          1           0       -1.261086   -2.167354    2.660785
     24          1           0       -2.771642   -1.289746    2.375525
     25          1           0       -2.668586   -3.018720    2.008653
     26          1           0       -3.621497   -2.423246   -0.898892
     27          1           0       -3.742182   -0.700661   -0.527280
     28          1           0       -2.802066   -1.248852   -1.926718
     29          1           0        2.033781    3.403098    0.267200
     30          1           0        1.680944    2.779927   -1.342473
     31          1           0        0.420381    3.604554   -0.407025
     32          1           0        1.285349   -0.868919    1.749146
     33          1           0        1.932935    0.507838    2.627068
     34          1           0        3.410811   -1.485165    2.938289
     35          1           0        3.649913   -1.604395    1.188008
     36          1           0        4.285910   -0.212759    2.075722
     37          6           0       -1.499884    1.728101   -0.710020
     38          6           0       -2.120975    2.313942    0.528286
     39          6           0       -2.434816    3.600742    0.688491
     40          1           0       -2.238503    1.101815   -1.225706
     41          1           0       -1.233841    2.525838   -1.410334
     42          1           0       -2.328822    1.610342    1.332766
     43          1           0       -2.899815    3.964695    1.600072
     44          1           0       -2.247075    4.337667   -0.089535
 ---------------------------------------------------------------------
                    Distance matrix (angstroms):
                    1          2          3          4          5
     1  C    0.000000
     2  C    1.547496   0.000000
     3  C    2.568834   1.552112   0.000000
     4  C    2.938772   2.500731   1.533195   0.000000
     5  C    2.500179   2.921753   2.566182   1.514669   0.000000
     6  H    1.096332   2.152439   3.445281   3.702676   3.172970
     7  H    2.136485   1.095237   2.134744   3.424139   3.887636
     8  H    3.912729   3.472168   2.188068   1.092328   2.118038
     9  H    3.391551   2.804256   2.164775   1.096628   2.107678
    10  O    1.466427   2.533260   2.880880   2.462623   1.343719
    11  O    3.581582   4.136764   3.667485   2.395196   1.215530
    12  C    1.531763   2.607758   3.412399   4.018275   3.476652
    13  C    2.560091   3.964947   4.772171   5.059557   4.112388
    14  C    2.531239   1.540073   2.590436   3.123899   3.639450
    15  O    2.933251   2.388855   1.431590   2.440937   3.051055
    16  Si   4.374954   4.057473   2.896063   3.371724   3.856592
    17  C    5.786125   5.120812   3.653342   3.908763   4.825167
    18  C    4.655553   4.892015   3.903983   3.715126   3.534359
    19  C    5.260678   5.000108   4.206908   5.055083   5.427641
    20  H    5.744906   5.949675   4.884790   4.678762   4.548674
    21  H    4.565434   4.834718   3.808441   3.194820   2.895840
    22  H    4.338283   4.878140   4.208447   4.114090   3.601737
    23  H    4.915101   4.905251   4.423846   5.306540   5.434704
    24  H    5.590201   5.069564   4.322205   5.398020   5.988365
    25  H    6.233559   6.040951   5.153496   5.842029   6.163794
    26  H    6.677460   6.132699   4.694478   4.857496   5.619845
    27  H    6.108820   5.207947   3.797901   4.346666   5.456581
    28  H    5.821610   5.143703   3.599409   3.475211   4.474983
    29  H    2.726043   2.167301   3.524329   4.087878   4.336975
    30  H    2.829953   2.202711   2.901548   2.862078   3.262156
    31  H    3.495296   2.195175   2.860261   3.566719   4.413593
    32  H    2.153697   2.868939   3.174414   3.835166   3.426124
    33  H    2.127341   2.764374   3.787011   4.690188   4.389477
    34  H    3.504489   4.771151   5.502879   5.917516   5.028679
    35  H    2.841301   4.319677   4.889244   4.858180   3.675525
    36  H    2.822267   4.245479   5.304117   5.559699   4.594375
    37  C    3.955001   2.580456   1.550455   2.523659   3.906599
    38  C    4.536089   3.081720   2.565346   3.891518   5.122703
    39  C    5.403627   3.887247   3.695727   4.933471   6.181213
    40  H    4.706125   3.496264   2.140502   2.713988   4.162714
    41  H    4.276651   2.875764   2.181927   2.719385   4.124807
    42  H    4.610555   3.351803   2.828910   4.266670   5.342805
    43  H    6.086408   4.638246   4.574707   5.910361   7.095058
    44  H    5.718026   4.177555   4.044739   5.052665   6.344438
                    6          7          8          9         10
     6  H    0.000000
     7  H    2.667220   0.000000
     8  H    4.745311   4.277535   0.000000
     9  H    3.893755   3.802696   1.749109   0.000000
    10  O    2.014121   3.388885   3.297655   2.959449   0.000000
    11  O    4.148641   5.095085   2.549095   2.837344   2.203977
    12  C    2.134410   2.611936   4.803639   4.707054   2.423274
    13  C    2.721716   4.081638   5.805995   5.711067   2.910504
    14  C    2.498216   2.144157   4.140848   2.841680   3.322258
    15  O    3.990195   2.517844   2.709250   3.379505   3.250596
    16  Si   5.468774   4.168189   3.079005   4.400082   4.332878
    17  C    6.835478   5.300685   3.210117   4.696657   5.643948
    18  C    5.694009   5.255512   3.318578   4.776760   4.087711
    19  C    6.308555   4.706074   4.919529   6.065419   5.562825
    20  H    6.782323   6.262175   4.122487   5.708136   5.156118
    21  H    5.534749   5.409344   2.697814   4.165922   3.711129
    22  H    5.321515   5.183186   3.973449   5.181988   3.812367
    23  H    5.903513   4.534720   5.350157   6.333259   5.317490
    24  H    6.592334   4.604412   5.315700   6.312591   6.098406
    25  H    7.293261   5.794036   5.550731   6.871938   6.393459
    26  H    7.749466   6.283671   4.075690   5.673106   6.452548
    27  H    7.120144   5.234419   3.783893   5.012256   6.188395
    28  H    6.816360   5.523413   2.584254   4.119500   5.490902
    29  H    2.285629   2.469830   5.143727   3.833895   3.716742
    30  H    2.715819   3.077083   3.866273   2.284998   3.140708
    31  H    3.553596   2.492921   4.439122   3.182999   4.291890
    32  H    3.039599   2.824103   4.417130   4.711514   2.716423
    33  H    2.471002   2.352069   5.513756   5.298403   3.356637
    34  H    3.724163   4.698077   6.582529   6.653069   3.915163
    35  H    3.089811   4.658681   5.501303   5.532395   2.605375
    36  H    2.533483   4.379302   6.417663   6.041015   3.276660
    37  C    4.681018   2.825612   2.810585   2.707564   4.366299
    38  C    5.201764   2.757454   4.222870   4.126894   5.312304
    39  C    5.875729   3.476001   5.327590   4.939508   6.297030
    40  H    5.529846   3.778493   2.549523   2.999749   4.874524
    41  H    4.806551   3.293920   3.095833   2.442044   4.620835
    42  H    5.381592   2.807588   4.532898   4.737296   5.443073
    43  H    6.529006   4.017383   6.303357   5.982469   7.105831
    44  H    6.065302   3.974812   5.473659   4.819371   6.523396
                   11         12         13         14         15
    11  O    0.000000
    12  C    4.394351   0.000000
    13  C    4.729481   1.531358   0.000000
    14  C    4.764638   3.841318   4.989462   0.000000
    15  O    4.002432   3.105858   4.452192   3.785467   0.000000
    16  Si   4.420914   4.266879   5.358548   5.419172   1.687095
    17  C    5.241995   5.979260   7.144358   6.192148   2.990692
    18  C    3.610207   4.471672   5.084666   6.231431   2.938901
    19  C    6.060272   4.650533   5.679032   6.457264   2.810165
    20  H    4.466750   5.475568   6.005097   7.287882   3.865895
    21  H    2.719985   4.693957   5.247311   6.004534   3.221818
    22  H    3.705061   3.879460   4.254740   6.281771   3.188726
    23  H    6.097298   4.026586   4.913053   6.419528   3.014770
    24  H    6.746950   5.055792   6.237462   6.429603   3.066487
    25  H    6.641399   5.579391   6.465267   7.496162   3.771389
    26  H    5.879945   6.728805   7.787585   7.258480   3.894002
    27  H    6.026567   6.326269   7.622409   6.178638   3.251227
    28  H    4.767272   6.260156   7.388979   6.033018   3.318766
    29  H    5.435521   3.881480   4.860554   1.094257   4.547537
    30  H    4.236105   4.320198   5.286693   1.095133   4.215120
    31  H    5.526668   4.683523   5.946125   1.091492   4.092769
    32  H    4.279070   1.092122   2.173849   4.322296   2.440919
    33  H    5.396792   1.097411   2.162902   3.878275   3.498543
    34  H    5.597902   2.173684   1.094347   5.891857   4.947992
    35  H    4.041045   2.179257   1.093167   5.334123   4.581764
    36  H    5.221421   2.183266   1.096255   4.974681   5.219709
    37  C    4.900793   4.789649   6.227684   3.031101   2.428812
    38  C    6.198676   5.074301   6.599165   3.545829   2.961230
    39  C    7.280376   6.014897   7.526419   3.899658   4.257465
    40  H    4.970061   5.449068   6.840129   4.042838   2.647124
    41  H    5.076205   5.360061   6.735557   2.745873   3.373802
    42  H    6.404452   4.814989   6.334814   4.172204   2.671771
    43  H    8.218955   6.507188   8.010798   4.711566   4.927548
    44  H    7.407486   6.550692   8.020288   3.796492   4.887915
                   16         17         18         19         20
    16  Si   0.000000
    17  C    1.889601   0.000000
    18  C    1.885066   3.081874   0.000000
    19  C    1.881624   3.080916   3.084729   0.000000
    20  H    2.482550   3.240610   1.096371   3.324713   0.000000
    21  H    2.519245   3.360234   1.093981   4.050454   1.770026
    22  H    2.497436   4.037669   1.095279   3.253665   1.768567
    23  H    2.496135   4.039459   3.312539   1.094956   3.669056
    24  H    2.497300   3.282518   4.041996   1.095059   4.315232
    25  H    2.490339   3.304246   3.283808   1.095795   3.151823
    26  H    2.471319   1.096622   3.257303   3.269926   3.035892
    27  H    2.514238   1.094825   4.046038   3.290683   4.251863
    28  H    2.529324   1.095048   3.322367   4.053607   3.547695
    29  H    6.220245   7.152120   6.973597   7.081438   8.051375
    30  H    5.728213   6.391706   6.298789   7.001353   7.349518
    31  H    5.675620   6.181737   6.733688   6.661519   7.739072
    32  H    3.319624   5.122275   3.554881   3.615158   4.510366
    33  H    4.762118   6.424010   5.279147   4.844175   6.247550
    34  H    5.657947   7.520223   5.370705   5.638973   6.174334
    35  H    5.291146   7.027781   4.656272   5.838567   5.541131
    36  H    6.296837   8.024773   6.081830   6.666783   7.034471
    37  C    3.534451   3.572716   4.917488   4.698663   5.741539
    38  C    4.043569   4.157594   5.713759   4.621832   6.481142
    39  C    5.371881   5.356434   7.044868   5.828359   7.811623
    40  H    3.212492   2.730762   4.604117   4.515238   5.278951
    41  H    4.524472   4.434113   5.734449   5.782592   6.582114
    42  H    3.554267   3.875667   5.336446   3.746470   6.036529
    43  H    5.961067   5.988329   7.715474   6.100638   8.438575
    44  H    6.064479   5.928288   7.627187   6.738639   8.426388
                   21         22         23         24         25
    21  H    0.000000
    22  H    1.765288   0.000000
    23  H    4.302327   3.107635   0.000000
    24  H    4.920528   4.275879   1.770127   0.000000
    25  H    4.314979   3.515168   1.769507   1.770471   0.000000
    26  H    3.644158   4.239902   4.278822   3.567756   3.117122
    27  H    4.371006   4.912217   4.297765   3.116929   3.599578
    28  H    3.235123   4.349461   4.925794   4.302545   4.317105
    29  H    6.794990   6.881149   6.900386   7.039880   8.147678
    30  H    5.884840   6.397192   7.011220   7.085991   7.985785
    31  H    6.545604   6.910154   6.749349   6.471921   7.697076
    32  H    3.953770   2.974869   3.000225   4.126575   4.508058
    33  H    5.605679   4.729101   4.166480   5.042581   5.830355
    34  H    5.712963   4.432304   4.729589   6.211088   6.338382
    35  H    4.678070   3.797630   5.157897   6.538010   6.526653
    36  H    6.146034   5.293779   5.910322   7.145546   7.499529
    37  C    4.854160   5.425884   5.156929   4.499484   5.593689
    38  C    5.893225   6.122822   5.036762   4.101491   5.561353
    39  C    7.191815   7.436270   6.207940   5.184246   6.753870
    40  H    4.524920   5.304340   5.171810   4.355762   5.255936
    41  H    5.505139   6.243219   6.212954   5.590728   6.670089
    42  H    5.712472   5.681849   4.144235   3.113510   4.690467
    43  H    7.977856   8.054530   6.435260   5.312900   6.999178
    44  H    7.632081   8.055372   7.131040   6.165993   7.661364
                   26         27         28         29         30
    26  H    0.000000
    27  H    1.766341   0.000000
    28  H    1.762695   1.772783   0.000000
    29  H    8.202940   7.129782   7.059698   0.000000
    30  H    7.442154   6.495331   6.055558   1.761784   0.000000
    31  H    7.274138   5.989680   6.020729   1.760177   1.773159
    32  H    5.788366   5.521458   5.510289   4.583279   4.798821
    33  H    7.202455   6.604342   6.800232   3.736533   4.580736
    34  H    8.065811   7.986922   7.894554   5.738122   6.285569
    35  H    7.609144   7.642121   7.173281   5.341793   5.431616
    36  H    8.732793   8.453634   8.205633   4.627878   5.236991
    37  C    4.665897   3.310616   3.469623   4.030802   3.409399
    38  C    5.170044   3.581950   4.380004   4.303071   4.262801
    39  C    6.341642   4.657185   5.522024   4.492762   4.662406
    40  H    3.800728   2.449034   2.516874   5.077114   4.265180
    41  H    5.518687   4.181131   4.119984   3.776382   2.926626
    42  H    4.787603   3.286045   4.361558   4.835464   4.960147
    43  H    6.897205   5.196225   6.295147   5.141236   5.571858
    44  H    6.946513   5.273681   5.906983   4.396181   4.407464
                   31         32         33         34         35
    31  H    0.000000
    32  H    5.040754   0.000000
    33  H    4.591643   1.756580   0.000000
    34  H    6.785207   2.512252   2.500607   0.000000
    35  H    6.333021   2.539087   3.079032   1.770556   0.000000
    36  H    5.973125   3.088780   2.521851   1.768852   1.768949
    37  C    2.701907   4.533159   4.940592   6.910149   6.420938
    38  C    2.999829   4.819144   4.909285   7.130357   7.006550
    39  C    3.058156   5.911217   5.692221   8.068420   8.022898
    40  H    3.742139   5.015084   5.709428   7.479710   6.915420
    41  H    2.215109   5.277595   5.513747   7.521400   6.903713
    42  H    3.816002   4.402538   4.588388   6.715896   6.789754
    43  H    3.896388   6.395439   6.029930   8.444868   8.607177
    44  H    2.784524   6.554945   6.286494   8.665147   8.468452
                   36         37         38         39         40
    36  H    0.000000
    37  C    6.708406   0.000000
    38  C    7.058821   1.504116   0.000000
    39  C    7.850819   2.517283   1.334172   0.000000
    40  H    7.429367   1.097144   2.135311   3.153938   0.000000
    41  H    7.079559   1.094350   2.142465   2.646285   1.752505
    42  H    6.901475   2.207709   1.088780   2.094759   2.610084
    43  H    8.325383   3.506948   2.116672   1.086124   4.076572
    44  H    8.250734   2.784444   2.119686   1.087947   3.429533
                   41         42         43         44
    41  H    0.000000
    42  H    3.092202   0.000000
    43  H    3.729386   2.437307   0.000000
    44  H    2.460463   3.076999   1.849311   0.000000
 Stoichiometry    C14H26O3Si
 Framework group  C1[X(C14H26O3Si)]
 Deg. of freedom   126
 Full point group                 C1      NOp   1
 Largest Abelian subgroup         C1      NOp   1
 Largest concise Abelian subgroup C1      NOp   1
                         Standard orientation:                         
 ---------------------------------------------------------------------
 Center     Atomic      Atomic             Coordinates (Angstroms)
 Number     Number       Type             X           Y           Z
 ---------------------------------------------------------------------
      1          6           0        2.114273    0.689558    0.515274
      2          6           0        0.864145    1.579095    0.313660
      3          6           0       -0.266736    0.828235   -0.438913
      4          6           0        0.300327    0.308771   -1.765292
      5          6           0        1.594800   -0.467557   -1.639286
      6          1           0        2.990155    1.347577    0.557533
      7          1           0        0.472273    1.800083    1.312232
      8          1           0       -0.415505   -0.326981   -2.291205
      9          1           0        0.506326    1.152546   -2.434771
     10          8           0        2.423985   -0.184956   -0.620380
     11          8           0        1.935202   -1.298632   -2.458404
     12          6           0        2.122667   -0.168627    1.784032
     13          6           0        3.443402   -0.910818    2.007346
     14          6           0        1.264148    2.915517   -0.338874
     15          8           0       -0.659380   -0.258549    0.406178
     16         14           0       -1.553348   -1.678496    0.230499
     17          6           0       -3.062922   -1.479599   -0.888527
     18          6           0       -0.464555   -3.070708   -0.425054
     19          6           0       -2.115342   -2.073206    1.982320
     20          1           0       -1.051162   -3.992557   -0.515145
     21          1           0       -0.038083   -2.847867   -1.407529
     22          1           0        0.368275   -3.273443    0.256802
     23          1           0       -1.261088   -2.167353    2.660785
     24          1           0       -2.771643   -1.289744    2.375525
     25          1           0       -2.668588   -3.018718    2.008653
     26          1           0       -3.621499   -2.423243   -0.898892
     27          1           0       -3.742183   -0.700658   -0.527280
     28          1           0       -2.802067   -1.248850   -1.926718
     29          1           0        2.033784    3.403096    0.267200
     30          1           0        1.680946    2.779926   -1.342473
     31          1           0        0.420384    3.604554   -0.407025
     32          1           0        1.285348   -0.868920    1.749146
     33          1           0        1.932935    0.507837    2.627068
     34          1           0        3.410810   -1.485168    2.938289
     35          1           0        3.649912   -1.604398    1.188008
     36          1           0        4.285910   -0.212762    2.075722
     37          6           0       -1.499883    1.728102   -0.710020
     38          6           0       -2.120973    2.313944    0.528286
     39          6           0       -2.434813    3.600744    0.688491
     40          1           0       -2.238502    1.101817   -1.225706
     41          1           0       -1.233839    2.525839   -1.410334
     42          1           0       -2.328821    1.610344    1.332766
     43          1           0       -2.899812    3.964697    1.600072
     44          1           0       -2.247072    4.337669   -0.089535
 ---------------------------------------------------------------------
 Rotational constants (GHZ):      0.3954981      0.3555811      0.2705156
 Standard basis: def2TZVP (5D, 7F)
 There are   810 symmetry adapted cartesian basis functions of A   symmetry.
 There are   720 symmetry adapted basis functions of A   symmetry.
   720 basis functions,  1144 primitive gaussians,   810 cartesian basis functions
    74 alpha electrons       74 beta electrons
       nuclear repulsion energy      1658.6833690393 Hartrees.
 NAtoms=   44 NActive=   44 NUniq=   44 SFac= 1.00D+00 NAtFMM=   60 NAOKFM=F Big=F
 Integral buffers will be    131072 words long.
 Raffenetti 2 integral format.
 Two-electron integral symmetry is turned on.
 ------------------------------------------------------------------------------
 Polarizable Continuum Model (PCM)
 =================================
 Model                : PCM (using non-symmetric T matrix).
 Atomic radii         : UFF (Universal Force Field).
 Polarization charges : Total charges.
 Charge compensation  : None.
 Solution method      : On-the-fly selection.
 Cavity type          : Scaled VdW (van der Waals Surface) (Alpha=1.100).
 Cavity algorithm     : GePol (No added spheres)
                        Default sphere list used, NSphG=   44.
                        Lebedev-Laikov grids with approx.  5.0 points / Ang**2.
                        Smoothing algorithm: Karplus/York (Gamma=1.0000).
                        Polarization charges: spherical gaussians, with
                                              point-specific exponents (IZeta= 3).
                        Self-potential: point-specific (ISelfS= 7).
                        Self-field    : sphere-specific E.n sum rule (ISelfD= 2).
 Solvent              : Chloroform, Eps=   4.711300 Eps(inf)=   2.090627
 ------------------------------------------------------------------------------
 One-electron integrals computed using PRISM.
   1 Symmetry operations used in ECPInt.
 ECPInt:  NShTT=   46360 NPrTT=  137514 LenC2=   42714 LenP2D=   91953.
 LDataN:  DoStor=T MaxTD1= 6 Len=  172
 NBasis=   720 RedAO= T EigKep=  4.99D-05  NBF=   720
 NBsUse=   720 1.00D-06 EigRej= -1.00D+00 NBFU=   720
 ExpMin= 7.01D-02 ExpMax= 4.48D+04 ExpMxC= 1.53D+03 IAcc=3 IRadAn=         5 AccDes= 0.00D+00
 Harris functional with IExCor= 1009 and IRadAn=       5 diagonalized for initial guess.
 HarFok:  IExCor= 1009 AccDes= 0.00D+00 IRadAn=         5 IDoV= 1 UseB2=F ITyADJ=14
 ICtDFT=  3500011 ScaDFX=  1.000000  1.000000  1.000000  1.000000
 FoFCou: FMM=F IPFlag=           0 FMFlag=      100000 FMFlg1=           0
         NFxFlg=           0 DoJE=T BraDBF=F KetDBF=T FulRan=T
         wScrn=  0.000000 ICntrl=     500 IOpCl=  0 I1Cent=   200000004 NGrid=           0
         NMat0=    1 NMatS0=      1 NMatT0=    0 NMatD0=    1 NMtDS0=    0 NMtDT0=    0
 Petite list used in FoFCou.
 Requested convergence on RMS density matrix=1.00D-08 within 128 cycles.
 Requested convergence on MAX density matrix=1.00D-06.
 Requested convergence on             energy=1.00D-06.
 No special actions if energy rises.
 Inv3:  Mode=1 IEnd=    24555963.
 Iteration    1 A*A^-1 deviation from unit magnitude is 6.66D-15 for   2857.
 Iteration    1 A*A^-1 deviation from orthogonality  is 2.36D-15 for   2830   1425.
 Iteration    1 A^-1*A deviation from unit magnitude is 5.55D-15 for   2857.
 Iteration    1 A^-1*A deviation from orthogonality  is 1.55D-11 for   2124   2074.
 Error on total polarization charges =  0.01465
 SCF Done:  E(RM062X) =  -1064.33947940     A.U. after   14 cycles
            NFock= 14  Conv=0.16D-08     -V/T= 2.0047

 **********************************************************************

            Population analysis using the SCF density.

 **********************************************************************

 Orbital symmetries:
       Occupied  (A) (A) (A) (A) (A) (A) (A) (A) (A) (A) (A) (A)
                 (A) (A) (A) (A) (A) (A) (A) (A) (A) (A) (A) (A)
                 (A) (A) (A) (A) (A) (A) (A) (A) (A) (A) (A) (A)
                 (A) (A) (A) (A) (A) (A) (A) (A) (A) (A) (A) (A)
                 (A) (A) (A) (A) (A) (A) (A) (A) (A) (A) (A) (A)
                 (A) (A) (A) (A) (A) (A) (A) (A) (A) (A) (A) (A)
                 (A) (A)
       Virtual   (A) (A) (A) (A) (A) (A) (A) (A) (A) (A) (A) (A)
                 (A) (A) (A) (A) (A) (A) (A) (A) (A) (A) (A) (A)
                 (A) (A) (A) (A) (A) (A) (A) (A) (A) (A) (A) (A)
                 (A) (A) (A) (A) (A) (A) (A) (A) (A) (A) (A) (A)
                 (A) (A) (A) (A) (A) (A) (A) (A) (A) (A) (A) (A)
                 (A) (A) (A) (A) (A) (A) (A) (A) (A) (A) (A) (A)
                 (A) (A) (A) (A) (A) (A) (A) (A) (A) (A) (A) (A)
                 (A) (A) (A) (A) (A) (A) (A) (A) (A) (A) (A) (A)
                 (A) (A) (A) (A) (A) (A) (A) (A) (A) (A) (A) (A)
                 (A) (A) (A) (A) (A) (A) (A) (A) (A) (A) (A) (A)
                 (A) (A) (A) (A) (A) (A) (A) (A) (A) (A) (A) (A)
                 (A) (A) (A) (A) (A) (A) (A) (A) (A) (A) (A) (A)
                 (A) (A) (A) (A) (A) (A) (A) (A) (A) (A) (A) (A)
                 (A) (A) (A) (A) (A) (A) (A) (A) (A) (A) (A) (A)
                 (A) (A) (A) (A) (A) (A) (A) (A) (A) (A) (A) (A)
                 (A) (A) (A) (A) (A) (A) (A) (A) (A) (A) (A) (A)
                 (A) (A) (A) (A) (A) (A) (A) (A) (A) (A) (A) (A)
                 (A) (A) (A) (A) (A) (A) (A) (A) (A) (A) (A) (A)
                 (A) (A) (A) (A) (A) (A) (A) (A) (A) (A) (A) (A)
                 (A) (A) (A) (A) (A) (A) (A) (A) (A) (A) (A) (A)
                 (A) (A) (A) (A) (A) (A) (A) (A) (A) (A) (A) (A)
                 (A) (A) (A) (A) (A) (A) (A) (A) (A) (A) (A) (A)
                 (A) (A) (A) (A) (A) (A) (A) (A) (A) (A) (A) (A)
                 (A) (A) (A) (A) (A) (A) (A) (A) (A) (A) (A) (A)
                 (A) (A) (A) (A) (A) (A) (A) (A) (A) (A) (A) (A)
                 (A) (A) (A) (A) (A) (A) (A) (A) (A) (A) (A) (A)
                 (A) (A) (A) (A) (A) (A) (A) (A) (A) (A) (A) (A)
                 (A) (A) (A) (A) (A) (A) (A) (A) (A) (A) (A) (A)
                 (A) (A) (A) (A) (A) (A) (A) (A) (A) (A) (A) (A)
                 (A) (A) (A) (A) (A) (A) (A) (A) (A) (A) (A) (A)
                 (A) (A) (A) (A) (A) (A) (A) (A) (A) (A) (A) (A)
                 (A) (A) (A) (A) (A) (A) (A) (A) (A) (A) (A) (A)
                 (A) (A) (A) (A) (A) (A) (A) (A) (A) (A) (A) (A)
                 (A) (A) (A) (A) (A) (A) (A) (A) (A) (A) (A) (A)
                 (A) (A) (A) (A) (A) (A) (A) (A) (A) (A) (A) (A)
                 (A) (A) (A) (A) (A) (A) (A) (A) (A) (A) (A) (A)
                 (A) (A) (A) (A) (A) (A) (A) (A) (A) (A) (A) (A)
                 (A) (A) (A) (A) (A) (A) (A) (A) (A) (A) (A) (A)
                 (A) (A) (A) (A) (A) (A) (A) (A) (A) (A) (A) (A)
                 (A) (A) (A) (A) (A) (A) (A) (A) (A) (A) (A) (A)
                 (A) (A) (A) (A) (A) (A) (A) (A) (A) (A) (A) (A)
                 (A) (A) (A) (A) (A) (A) (A) (A) (A) (A) (A) (A)
                 (A) (A) (A) (A) (A) (A) (A) (A) (A) (A) (A) (A)
                 (A) (A) (A) (A) (A) (A) (A) (A) (A) (A) (A) (A)
                 (A) (A) (A) (A) (A) (A) (A) (A) (A) (A) (A) (A)
                 (A) (A) (A) (A) (A) (A) (A) (A) (A) (A) (A) (A)
                 (A) (A) (A) (A) (A) (A) (A) (A) (A) (A) (A) (A)
                 (A) (A) (A) (A) (A) (A) (A) (A) (A) (A) (A) (A)
                 (A) (A) (A) (A) (A) (A) (A) (A) (A) (A) (A) (A)
                 (A) (A) (A) (A) (A) (A) (A) (A) (A) (A) (A) (A)
                 (A) (A) (A) (A) (A) (A) (A) (A) (A) (A) (A) (A)
                 (A) (A) (A) (A) (A) (A) (A) (A) (A) (A) (A) (A)
                 (A) (A) (A) (A) (A) (A) (A) (A) (A) (A) (A) (A)
                 (A) (A) (A) (A) (A) (A) (A) (A) (A) (A)
 The electronic state is 1-A.
 Alpha  occ. eigenvalues --  -67.01669 -19.67082 -19.61958 -19.61366 -10.68071
 Alpha  occ. eigenvalues --  -10.62167 -10.60738 -10.55842 -10.55499 -10.54821
 Alpha  occ. eigenvalues --  -10.54645 -10.53622 -10.53440 -10.53413 -10.52202
 Alpha  occ. eigenvalues --  -10.51291 -10.50824 -10.50650  -5.55118  -3.86306
 Alpha  occ. eigenvalues --   -3.86165  -3.86141  -1.22716  -1.13955  -1.13192
 Alpha  occ. eigenvalues --   -0.93438  -0.90364  -0.88231  -0.84916  -0.80774
 Alpha  occ. eigenvalues --   -0.79823  -0.78498  -0.76942  -0.76638  -0.73732
 Alpha  occ. eigenvalues --   -0.70702  -0.67780  -0.64196  -0.61313  -0.59920
 Alpha  occ. eigenvalues --   -0.58354  -0.57143  -0.55406  -0.54714  -0.52771
 Alpha  occ. eigenvalues --   -0.52212  -0.50440  -0.49763  -0.49015  -0.48532
 Alpha  occ. eigenvalues --   -0.47940  -0.47722  -0.47539  -0.46796  -0.46336
 Alpha  occ. eigenvalues --   -0.45979  -0.45454  -0.45022  -0.44476  -0.44341
 Alpha  occ. eigenvalues --   -0.44001  -0.43229  -0.41902  -0.41482  -0.40820
 Alpha  occ. eigenvalues --   -0.40430  -0.39323  -0.38283  -0.36929  -0.35837
 Alpha  occ. eigenvalues --   -0.35304  -0.34473  -0.33803  -0.31839
 Alpha virt. eigenvalues --    0.03328   0.03803   0.04936   0.06745   0.07457
 Alpha virt. eigenvalues --    0.08249   0.09022   0.09702   0.10189   0.10238
 Alpha virt. eigenvalues --    0.10611   0.10659   0.11608   0.12362   0.13129
 Alpha virt. eigenvalues --    0.13365   0.13621   0.14056   0.14530   0.15081
 Alpha virt. eigenvalues --    0.15385   0.16131   0.16273   0.16410   0.16634
 Alpha virt. eigenvalues --    0.16983   0.17445   0.17587   0.17805   0.18216
 Alpha virt. eigenvalues --    0.19200   0.19484   0.20113   0.20320   0.20960
 Alpha virt. eigenvalues --    0.21249   0.22393   0.22523   0.22792   0.23335
 Alpha virt. eigenvalues --    0.23977   0.24236   0.24494   0.25368   0.25870
 Alpha virt. eigenvalues --    0.26400   0.26993   0.27259   0.27789   0.28081
 Alpha virt. eigenvalues --    0.29203   0.29944   0.30252   0.30724   0.31257
 Alpha virt. eigenvalues --    0.31871   0.32322   0.32638   0.33045   0.33355
 Alpha virt. eigenvalues --    0.34503   0.34850   0.35741   0.36705   0.37038
 Alpha virt. eigenvalues --    0.37724   0.38339   0.38546   0.38927   0.39070
 Alpha virt. eigenvalues --    0.39389   0.40652   0.41341   0.41583   0.41703
 Alpha virt. eigenvalues --    0.42340   0.42688   0.43021   0.43823   0.44742
 Alpha virt. eigenvalues --    0.45038   0.45398   0.45710   0.46027   0.46698
 Alpha virt. eigenvalues --    0.46946   0.47507   0.47695   0.47754   0.48253
 Alpha virt. eigenvalues --    0.48704   0.48978   0.49420   0.49658   0.50232
 Alpha virt. eigenvalues --    0.50499   0.50825   0.51391   0.51624   0.52016
 Alpha virt. eigenvalues --    0.52213   0.52584   0.53033   0.53299   0.54337
 Alpha virt. eigenvalues --    0.54760   0.55122   0.55465   0.56252   0.56636
 Alpha virt. eigenvalues --    0.57120   0.57833   0.58141   0.58631   0.59127
 Alpha virt. eigenvalues --    0.59840   0.60775   0.60959   0.61666   0.62253
 Alpha virt. eigenvalues --    0.62861   0.63379   0.64540   0.65198   0.66088
 Alpha virt. eigenvalues --    0.66502   0.66734   0.68199   0.69151   0.69621
 Alpha virt. eigenvalues --    0.70412   0.70688   0.71840   0.72808   0.73281
 Alpha virt. eigenvalues --    0.73931   0.75005   0.76028   0.77126   0.77210
 Alpha virt. eigenvalues --    0.79089   0.79875   0.80412   0.81095   0.81541
 Alpha virt. eigenvalues --    0.82273   0.83183   0.84381   0.85497   0.86635
 Alpha virt. eigenvalues --    0.87598   0.88796   0.88816   0.89746   0.90743
 Alpha virt. eigenvalues --    0.91674   0.92217   0.92646   0.93571   0.94392
 Alpha virt. eigenvalues --    0.94855   0.95890   0.96235   0.97160   0.97442
 Alpha virt. eigenvalues --    0.98179   0.99006   0.99614   1.01280   1.01605
 Alpha virt. eigenvalues --    1.02670   1.02993   1.03995   1.04845   1.05015
 Alpha virt. eigenvalues --    1.05563   1.05870   1.07123   1.07391   1.07805
 Alpha virt. eigenvalues --    1.08346   1.08401   1.09452   1.10708   1.11467
 Alpha virt. eigenvalues --    1.12350   1.12630   1.13813   1.15209   1.15706
 Alpha virt. eigenvalues --    1.16619   1.17489   1.18007   1.18867   1.20184
 Alpha virt. eigenvalues --    1.21751   1.22329   1.23270   1.23876   1.24808
 Alpha virt. eigenvalues --    1.26563   1.27572   1.28250   1.28741   1.29760
 Alpha virt. eigenvalues --    1.30295   1.30989   1.31715   1.32411   1.33053
 Alpha virt. eigenvalues --    1.33878   1.35289   1.36487   1.37251   1.38484
 Alpha virt. eigenvalues --    1.39355   1.40825   1.41056   1.42056   1.42366
 Alpha virt. eigenvalues --    1.43004   1.44648   1.45534   1.45736   1.47632
 Alpha virt. eigenvalues --    1.48905   1.49592   1.50467   1.51299   1.52378
 Alpha virt. eigenvalues --    1.53816   1.55043   1.56127   1.56575   1.57220
 Alpha virt. eigenvalues --    1.57588   1.58284   1.58398   1.59142   1.59526
 Alpha virt. eigenvalues --    1.60443   1.60513   1.61397   1.61847   1.62288
 Alpha virt. eigenvalues --    1.62598   1.63592   1.63864   1.64674   1.64988
 Alpha virt. eigenvalues --    1.65350   1.66073   1.66483   1.67232   1.67467
 Alpha virt. eigenvalues --    1.67753   1.68668   1.69273   1.69945   1.70435
 Alpha virt. eigenvalues --    1.70962   1.71214   1.71527   1.73524   1.73945
 Alpha virt. eigenvalues --    1.75560   1.75659   1.76560   1.77937   1.78904
 Alpha virt. eigenvalues --    1.79633   1.80337   1.81541   1.83340   1.83604
 Alpha virt. eigenvalues --    1.84802   1.85548   1.87059   1.87789   1.88051
 Alpha virt. eigenvalues --    1.88565   1.89303   1.90529   1.92434   1.93144
 Alpha virt. eigenvalues --    1.94002   1.94969   1.96252   1.97202   1.98483
 Alpha virt. eigenvalues --    1.99431   2.00510   2.01094   2.02521   2.02803
 Alpha virt. eigenvalues --    2.03658   2.05148   2.06280   2.07133   2.07298
 Alpha virt. eigenvalues --    2.07894   2.08491   2.08972   2.09731   2.11015
 Alpha virt. eigenvalues --    2.11285   2.12401   2.13426   2.13973   2.14488
 Alpha virt. eigenvalues --    2.15511   2.16815   2.17066   2.17651   2.20330
 Alpha virt. eigenvalues --    2.21562   2.21632   2.22317   2.22961   2.23810
 Alpha virt. eigenvalues --    2.24328   2.25603   2.26665   2.27944   2.28963
 Alpha virt. eigenvalues --    2.29964   2.31167   2.31510   2.32053   2.33506
 Alpha virt. eigenvalues --    2.33818   2.34942   2.34998   2.36297   2.36870
 Alpha virt. eigenvalues --    2.37038   2.38296   2.38801   2.39376   2.39429
 Alpha virt. eigenvalues --    2.40372   2.41415   2.41951   2.42159   2.42799
 Alpha virt. eigenvalues --    2.43029   2.43259   2.43937   2.44569   2.44966
 Alpha virt. eigenvalues --    2.45457   2.46461   2.47791   2.49351   2.49597
 Alpha virt. eigenvalues --    2.50418   2.51675   2.51988   2.52900   2.55079
 Alpha virt. eigenvalues --    2.55300   2.56722   2.57585   2.58077   2.58703
 Alpha virt. eigenvalues --    2.58991   2.59257   2.60184   2.60554   2.61233
 Alpha virt. eigenvalues --    2.62280   2.62831   2.63287   2.63603   2.64224
 Alpha virt. eigenvalues --    2.64888   2.66125   2.66321   2.66754   2.67679
 Alpha virt. eigenvalues --    2.68558   2.68897   2.69638   2.69676   2.71350
 Alpha virt. eigenvalues --    2.72583   2.72944   2.73235   2.74238   2.74337
 Alpha virt. eigenvalues --    2.75018   2.77308   2.78099   2.78384   2.79643
 Alpha virt. eigenvalues --    2.80067   2.80501   2.81187   2.83144   2.83757
 Alpha virt. eigenvalues --    2.84615   2.86650   2.86999   2.87417   2.89082
 Alpha virt. eigenvalues --    2.89787   2.90072   2.90859   2.93349   2.93967
 Alpha virt. eigenvalues --    2.95632   2.97382   2.98605   2.99685   3.00143
 Alpha virt. eigenvalues --    3.01617   3.03122   3.03382   3.04555   3.06220
 Alpha virt. eigenvalues --    3.07362   3.07809   3.08081   3.09465   3.09840
 Alpha virt. eigenvalues --    3.11169   3.11627   3.13342   3.13869   3.14502
 Alpha virt. eigenvalues --    3.14543   3.15204   3.15606   3.16599   3.16879
 Alpha virt. eigenvalues --    3.17439   3.18675   3.19074   3.19877   3.21053
 Alpha virt. eigenvalues --    3.21307   3.21952   3.22442   3.23010   3.24055
 Alpha virt. eigenvalues --    3.24769   3.24966   3.26004   3.26204   3.27584
 Alpha virt. eigenvalues --    3.27773   3.28720   3.29338   3.29836   3.30163
 Alpha virt. eigenvalues --    3.30424   3.31073   3.32085   3.32646   3.32819
 Alpha virt. eigenvalues --    3.33345   3.34240   3.35142   3.35977   3.36504
 Alpha virt. eigenvalues --    3.36878   3.37056   3.37908   3.38323   3.39046
 Alpha virt. eigenvalues --    3.39201   3.40917   3.41393   3.42464   3.42627
 Alpha virt. eigenvalues --    3.43291   3.43776   3.44612   3.44880   3.45743
 Alpha virt. eigenvalues --    3.46405   3.47151   3.48624   3.50112   3.50670
 Alpha virt. eigenvalues --    3.51774   3.52003   3.53163   3.54211   3.54986
 Alpha virt. eigenvalues --    3.55437   3.56905   3.57640   3.58325   3.59046
 Alpha virt. eigenvalues --    3.59244   3.60525   3.60633   3.61637   3.62118
 Alpha virt. eigenvalues --    3.64173   3.64878   3.65385   3.66023   3.66491
 Alpha virt. eigenvalues --    3.67468   3.67615   3.68392   3.68907   3.70156
 Alpha virt. eigenvalues --    3.71037   3.71750   3.73621   3.75137   3.75541
 Alpha virt. eigenvalues --    3.78113   3.79670   3.81410   3.82836   3.84886
 Alpha virt. eigenvalues --    3.87575   3.88150   3.90124   3.91195   3.94042
 Alpha virt. eigenvalues --    3.94551   3.95031   3.96904   3.97629   3.99771
 Alpha virt. eigenvalues --    4.00829   4.03253   4.06893   4.07132   4.10146
 Alpha virt. eigenvalues --    4.11594   4.12136   4.14931   4.17831   4.18303
 Alpha virt. eigenvalues --    4.19451   4.22724   4.24869   4.25245   4.26880
 Alpha virt. eigenvalues --    4.27424   4.27810   4.28324   4.29260   4.29994
 Alpha virt. eigenvalues --    4.30673   4.32171   4.32727   4.34230   4.36926
 Alpha virt. eigenvalues --    4.37073   4.37454   4.39116   4.39447   4.40080
 Alpha virt. eigenvalues --    4.42568   4.43107   4.44261   4.47402   4.49831
 Alpha virt. eigenvalues --    4.51286   4.55030   4.56919   4.57147   4.58455
 Alpha virt. eigenvalues --    4.61058   4.62846   4.64566   4.68791   4.69153
 Alpha virt. eigenvalues --    4.71692   4.75190   4.76702   4.81118   4.82563
 Alpha virt. eigenvalues --    4.87974   4.90659   4.92732   4.96077   4.99696
 Alpha virt. eigenvalues --    5.01951   5.04577   5.14595   5.19297   5.22271
 Alpha virt. eigenvalues --    5.25252   5.26519   5.26810   5.28254   5.35719
 Alpha virt. eigenvalues --    5.48267   5.49808   5.53282   5.60689   5.82791
 Alpha virt. eigenvalues --    5.85523   5.86419   5.88244   5.93285   6.02151
 Alpha virt. eigenvalues --    6.12571   6.17841   6.24324   6.36814   6.39461
 Alpha virt. eigenvalues --    6.51888   6.60924   6.64099   6.64994   6.68148
 Alpha virt. eigenvalues --    6.71871   6.75829   6.83542   6.87997   6.89345
 Alpha virt. eigenvalues --    6.94965   6.97569   7.04958   7.06461   7.15875
 Alpha virt. eigenvalues --    7.19523   7.34829   7.42113  12.18204  22.31231
 Alpha virt. eigenvalues --   22.38224  22.43536  22.44744  22.45439  22.52898
 Alpha virt. eigenvalues --   22.60775  22.67341  22.70666  22.73326  22.81549
 Alpha virt. eigenvalues --   22.86658  22.89610  23.47185  44.12312  44.48449
 Alpha virt. eigenvalues --   44.56805
          Condensed to atoms (all electrons):
               1          2          3          4          5          6
     1  C    5.332017   0.109196  -0.004062  -0.018142  -0.024164   0.472709
     2  C    0.109196   5.714407   0.035648   0.038867  -0.027727  -0.064441
     3  C   -0.004062   0.035648   5.807951  -0.228274   0.067942   0.010892
     4  C   -0.018142   0.038867  -0.228274   6.163931   0.086105  -0.005915
     5  C   -0.024164  -0.027727   0.067942   0.086105   4.505114  -0.000289
     6  H    0.472709  -0.064441   0.010892  -0.005915  -0.000289   0.524453
     7  H   -0.048562   0.453248  -0.044734   0.007878   0.000617   0.002214
     8  H   -0.000105   0.011626  -0.007508   0.372178  -0.023742   0.000079
     9  H    0.005400  -0.026769  -0.020427   0.405301  -0.023046   0.000256
    10  O    0.133437   0.004092   0.035415  -0.163116   0.387821  -0.037107
    11  O    0.002229   0.000224   0.016589  -0.142617   0.705598   0.000009
    12  C    0.179788  -0.006247  -0.002118  -0.004627  -0.001679  -0.061275
    13  C   -0.052281   0.012259  -0.001819   0.000878  -0.000064  -0.009352
    14  C   -0.048296   0.195428  -0.031871   0.011481  -0.002335  -0.006600
    15  O    0.028034  -0.094957   0.159094  -0.036616   0.012940  -0.000408
    16  Si  -0.000240   0.006322  -0.061925   0.017746  -0.006191   0.000122
    17  C   -0.000037  -0.001096   0.017193  -0.013307   0.000937  -0.000001
    18  C   -0.000180  -0.000435  -0.007539   0.015667  -0.002292  -0.000010
    19  C    0.000350   0.000340   0.000600  -0.001073   0.000365  -0.000001
    20  H    0.000039  -0.000012   0.000042  -0.000341   0.000254   0.000000
    21  H    0.000576   0.000065  -0.005538  -0.000531   0.004918  -0.000006
    22  H   -0.000107   0.000005   0.002750  -0.003086   0.000747  -0.000002
    23  H   -0.000098   0.000193  -0.000127   0.000053   0.000010   0.000001
    24  H   -0.000037   0.000159   0.000631   0.000066  -0.000020   0.000000
    25  H   -0.000020  -0.000012  -0.000001   0.000043  -0.000024   0.000000
    26  H   -0.000002   0.000036  -0.000630   0.000287  -0.000045   0.000000
    27  H   -0.000010  -0.000197  -0.003984   0.001327  -0.000057   0.000000
    28  H    0.000031   0.000099   0.006274  -0.003945   0.000189   0.000001
    29  H   -0.008696  -0.044769   0.013231  -0.001334   0.000113   0.001979
    30  H   -0.008937  -0.022168  -0.016130   0.013567  -0.003203  -0.001426
    31  H    0.011920  -0.053113  -0.018494  -0.004753   0.000218   0.000427
    32  H   -0.024199  -0.003123   0.007096  -0.002292   0.000435   0.005192
    33  H   -0.057610  -0.002200   0.001756  -0.000564   0.000373   0.001476
    34  H    0.013623  -0.000841  -0.000040   0.000067  -0.000019  -0.000209
    35  H   -0.017955  -0.000641   0.000027   0.000419   0.001042   0.001598
    36  H    0.004369   0.000697   0.000083  -0.000046  -0.000165   0.001959
    37  C    0.018460  -0.088623   0.158262  -0.053090  -0.001693  -0.000077
    38  C   -0.002836   0.009256  -0.017958   0.006354   0.000019  -0.000080
    39  C   -0.000466   0.003544  -0.006754   0.000018  -0.000044  -0.000010
    40  H   -0.000403   0.014583  -0.066728  -0.003216  -0.000782   0.000005
    41  H   -0.001212  -0.015717  -0.015740  -0.001878  -0.000419   0.000009
    42  H   -0.000730  -0.003545   0.004009   0.000308  -0.000070   0.000001
    43  H    0.000011  -0.000026  -0.000190   0.000028   0.000000   0.000000
    44  H   -0.000046  -0.000330  -0.001167   0.000021  -0.000001   0.000001
               7          8          9         10         11         12
     1  C   -0.048562  -0.000105   0.005400   0.133437   0.002229   0.179788
     2  C    0.453248   0.011626  -0.026769   0.004092   0.000224  -0.006247
     3  C   -0.044734  -0.007508  -0.020427   0.035415   0.016589  -0.002118
     4  C    0.007878   0.372178   0.405301  -0.163116  -0.142617  -0.004627
     5  C    0.000617  -0.023742  -0.023046   0.387821   0.705598  -0.001679
     6  H    0.002214   0.000079   0.000256  -0.037107   0.000009  -0.061275
     7  H    0.485447  -0.000001  -0.000315   0.002454   0.000015  -0.005126
     8  H   -0.000001   0.451525  -0.006234   0.006222   0.008927  -0.000008
     9  H   -0.000315  -0.006234   0.454602   0.002042   0.002879  -0.000150
    10  O    0.002454   0.006222   0.002042   7.998858  -0.100698  -0.021547
    11  O    0.000015   0.008927   0.002879  -0.100698   7.887462  -0.001120
    12  C   -0.005126  -0.000008  -0.000150  -0.021547  -0.001120   5.220899
    13  C    0.000326  -0.000014  -0.000013  -0.005252   0.000129   0.259325
    14  C   -0.029899  -0.000184  -0.002680  -0.002530   0.000187   0.005154
    15  O    0.002671  -0.003772   0.003729  -0.006565   0.000181  -0.011131
    16  Si  -0.000497   0.003726  -0.000325   0.001045  -0.000758   0.001982
    17  C    0.000068  -0.000865   0.000060   0.000000   0.000040  -0.000070
    18  C    0.000072  -0.005792   0.000288   0.000210  -0.007138  -0.000691
    19  C   -0.000049   0.000395   0.000000  -0.000003  -0.000012  -0.001138
    20  H   -0.000002   0.000149  -0.000002  -0.000004   0.000158  -0.000025
    21  H   -0.000006   0.000310   0.000316  -0.000535   0.007748  -0.000108
    22  H   -0.000019   0.000219  -0.000013   0.000162  -0.000175  -0.000449
    23  H   -0.000003  -0.000016   0.000000   0.000011  -0.000001  -0.000323
    24  H   -0.000009  -0.000009   0.000000   0.000001   0.000000   0.000096
    25  H    0.000007  -0.000008  -0.000001   0.000001   0.000000   0.000031
    26  H    0.000000   0.000030   0.000000   0.000001  -0.000002   0.000002
    27  H   -0.000001  -0.000399  -0.000002   0.000001   0.000000   0.000006
    28  H   -0.000003   0.003268  -0.000008  -0.000007  -0.000093  -0.000008
    29  H   -0.005394   0.000017   0.000345   0.000284   0.000000  -0.000332
    30  H    0.005884   0.000380  -0.004524   0.002845  -0.000017   0.000347
    31  H   -0.004404  -0.000061   0.000493  -0.000232   0.000000  -0.000617
    32  H    0.000828   0.000074  -0.000006  -0.005997   0.000040   0.404204
    33  H   -0.003481  -0.000002   0.000009   0.004886   0.000000   0.436518
    34  H   -0.000029   0.000000   0.000000   0.000182   0.000002  -0.051711
    35  H   -0.000072  -0.000009  -0.000002   0.007301   0.000269  -0.029713
    36  H    0.000042   0.000000   0.000001  -0.000905   0.000000  -0.051573
    37  C   -0.021094  -0.019997  -0.005903  -0.003939  -0.001440  -0.002162
    38  C    0.007296   0.000955  -0.000776   0.000228   0.000040   0.000781
    39  C    0.001635   0.000015  -0.000083   0.000002   0.000000   0.000076
    40  H   -0.000164   0.003712  -0.000601   0.000028  -0.000010   0.000009
    41  H    0.000821   0.000227   0.000993   0.000038   0.000003   0.000039
    42  H    0.000205   0.000006  -0.000043   0.000004   0.000000   0.000180
    43  H    0.000023   0.000000   0.000002   0.000000   0.000000  -0.000001
    44  H    0.000104   0.000005  -0.000022   0.000000   0.000000   0.000001
              13         14         15         16         17         18
     1  C   -0.052281  -0.048296   0.028034  -0.000240  -0.000037  -0.000180
     2  C    0.012259   0.195428  -0.094957   0.006322  -0.001096  -0.000435
     3  C   -0.001819  -0.031871   0.159094  -0.061925   0.017193  -0.007539
     4  C    0.000878   0.011481  -0.036616   0.017746  -0.013307   0.015667
     5  C   -0.000064  -0.002335   0.012940  -0.006191   0.000937  -0.002292
     6  H   -0.009352  -0.006600  -0.000408   0.000122  -0.000001  -0.000010
     7  H    0.000326  -0.029899   0.002671  -0.000497   0.000068   0.000072
     8  H   -0.000014  -0.000184  -0.003772   0.003726  -0.000865  -0.005792
     9  H   -0.000013  -0.002680   0.003729  -0.000325   0.000060   0.000288
    10  O   -0.005252  -0.002530  -0.006565   0.001045   0.000000   0.000210
    11  O    0.000129   0.000187   0.000181  -0.000758   0.000040  -0.007138
    12  C    0.259325   0.005154  -0.011131   0.001982  -0.000070  -0.000691
    13  C    5.061782  -0.000352   0.001638   0.000436   0.000008   0.000059
    14  C   -0.000352   5.131343   0.007143  -0.000778   0.000088   0.000050
    15  O    0.001638   0.007143   8.114976   0.336962  -0.021657  -0.019638
    16  Si   0.000436  -0.000778   0.336962  12.538292   0.331703   0.346265
    17  C    0.000008   0.000088  -0.021657   0.331703   5.190868  -0.042897
    18  C    0.000059   0.000050  -0.019638   0.346265  -0.042897   5.141886
    19  C   -0.000037   0.000002  -0.011379   0.374165  -0.045125  -0.045665
    20  H   -0.000005   0.000000   0.001320  -0.032907   0.000413   0.388778
    21  H    0.000044  -0.000008   0.001697  -0.033440   0.000551   0.388278
    22  H   -0.000090   0.000001  -0.000312  -0.039420   0.003316   0.392335
    23  H    0.000060   0.000005   0.000070  -0.032288   0.002892   0.000830
    24  H   -0.000005   0.000000  -0.000309  -0.032523   0.000831   0.002792
    25  H    0.000004   0.000000   0.001432  -0.049131   0.003150   0.003191
    26  H    0.000000  -0.000001   0.001094  -0.026555   0.386478   0.000544
    27  H    0.000000   0.000003   0.000295  -0.040417   0.396026   0.003492
    28  H    0.000000  -0.000015   0.000735  -0.037171   0.394258   0.001425
    29  H   -0.000068   0.422104  -0.000302   0.000010  -0.000001  -0.000001
    30  H   -0.000046   0.409984   0.000081  -0.000016  -0.000002  -0.000003
    31  H    0.000025   0.430485  -0.000044   0.000039   0.000001  -0.000001
    32  H   -0.045321   0.000001  -0.004033  -0.004005  -0.000022  -0.001556
    33  H   -0.035510  -0.000212  -0.000576   0.000119   0.000006  -0.000008
    34  H    0.422871   0.000019  -0.000019   0.000052   0.000000   0.000002
    35  H    0.417510  -0.000061   0.000050   0.000113   0.000001   0.000060
    36  H    0.411214   0.000054  -0.000056  -0.000050   0.000000   0.000001
    37  C    0.000045   0.023044  -0.081882  -0.001912   0.000527   0.000370
    38  C    0.000005  -0.012215   0.012836  -0.000533  -0.001595   0.000083
    39  C   -0.000001  -0.005483   0.003044  -0.000013  -0.000132   0.000009
    40  H   -0.000002  -0.000667  -0.006126  -0.005691  -0.003378  -0.000047
    41  H   -0.000002  -0.004761   0.004480   0.000574  -0.000233   0.000035
    42  H   -0.000001   0.000292   0.006196  -0.001513  -0.000039   0.000159
    43  H    0.000000   0.000014  -0.000007   0.000022  -0.000002   0.000000
    44  H    0.000000  -0.000506  -0.000016  -0.000002  -0.000007   0.000000
              19         20         21         22         23         24
     1  C    0.000350   0.000039   0.000576  -0.000107  -0.000098  -0.000037
     2  C    0.000340  -0.000012   0.000065   0.000005   0.000193   0.000159
     3  C    0.000600   0.000042  -0.005538   0.002750  -0.000127   0.000631
     4  C   -0.001073  -0.000341  -0.000531  -0.003086   0.000053   0.000066
     5  C    0.000365   0.000254   0.004918   0.000747   0.000010  -0.000020
     6  H   -0.000001   0.000000  -0.000006  -0.000002   0.000001   0.000000
     7  H   -0.000049  -0.000002  -0.000006  -0.000019  -0.000003  -0.000009
     8  H    0.000395   0.000149   0.000310   0.000219  -0.000016  -0.000009
     9  H    0.000000  -0.000002   0.000316  -0.000013   0.000000   0.000000
    10  O   -0.000003  -0.000004  -0.000535   0.000162   0.000011   0.000001
    11  O   -0.000012   0.000158   0.007748  -0.000175  -0.000001   0.000000
    12  C   -0.001138  -0.000025  -0.000108  -0.000449  -0.000323   0.000096
    13  C   -0.000037  -0.000005   0.000044  -0.000090   0.000060  -0.000005
    14  C    0.000002   0.000000  -0.000008   0.000001   0.000005   0.000000
    15  O   -0.011379   0.001320   0.001697  -0.000312   0.000070  -0.000309
    16  Si   0.374165  -0.032907  -0.033440  -0.039420  -0.032288  -0.032523
    17  C   -0.045125   0.000413   0.000551   0.003316   0.002892   0.000831
    18  C   -0.045665   0.388778   0.388278   0.392335   0.000830   0.002792
    19  C    5.088765   0.001675   0.002412   0.001783   0.390345   0.391100
    20  H    0.001675   0.508375  -0.016716  -0.016117   0.000161  -0.000113
    21  H    0.002412  -0.016716   0.497965  -0.016752  -0.000136  -0.000083
    22  H    0.001783  -0.016117  -0.016752   0.509003   0.000809  -0.000164
    23  H    0.390345   0.000161  -0.000136   0.000809   0.514575  -0.017778
    24  H    0.391100  -0.000113  -0.000083  -0.000164  -0.017778   0.518239
    25  H    0.399912  -0.000065  -0.000127   0.000166  -0.018415  -0.020093
    26  H   -0.000049   0.000369   0.000136  -0.000125  -0.000102   0.000289
    27  H    0.000404  -0.000160  -0.000184  -0.000098  -0.000178   0.000837
    28  H    0.003267   0.000116   0.000400  -0.000208  -0.000090  -0.000131
    29  H   -0.000001   0.000000   0.000000   0.000000   0.000000   0.000000
    30  H    0.000000   0.000000   0.000000   0.000000   0.000000   0.000000
    31  H    0.000001   0.000000   0.000000   0.000000   0.000000   0.000000
    32  H    0.000996   0.000060   0.000125   0.000372   0.000642  -0.000048
    33  H    0.000036   0.000001  -0.000014   0.000041   0.000057   0.000002
    34  H   -0.000005   0.000000   0.000001   0.000009   0.000019   0.000000
    35  H   -0.000005   0.000003  -0.000044   0.000122   0.000008   0.000000
    36  H    0.000002   0.000000  -0.000001   0.000003  -0.000003   0.000000
    37  C   -0.000054   0.000013   0.000245  -0.000078   0.000036  -0.000702
    38  C   -0.000542  -0.000006  -0.000041   0.000017   0.000064   0.000223
    39  C    0.000008   0.000000   0.000000   0.000000   0.000001   0.000024
    40  H    0.000428  -0.000001  -0.000078   0.000002  -0.000012   0.000028
    41  H   -0.000012  -0.000001   0.000007  -0.000001   0.000000   0.000003
    42  H   -0.000511  -0.000005  -0.000006  -0.000003  -0.000082   0.001032
    43  H   -0.000002   0.000000   0.000000   0.000000   0.000000  -0.000003
    44  H    0.000000   0.000000   0.000000   0.000000   0.000000   0.000001
              25         26         27         28         29         30
     1  C   -0.000020  -0.000002  -0.000010   0.000031  -0.008696  -0.008937
     2  C   -0.000012   0.000036  -0.000197   0.000099  -0.044769  -0.022168
     3  C   -0.000001  -0.000630  -0.003984   0.006274   0.013231  -0.016130
     4  C    0.000043   0.000287   0.001327  -0.003945  -0.001334   0.013567
     5  C   -0.000024  -0.000045  -0.000057   0.000189   0.000113  -0.003203
     6  H    0.000000   0.000000   0.000000   0.000001   0.001979  -0.001426
     7  H    0.000007   0.000000  -0.000001  -0.000003  -0.005394   0.005884
     8  H   -0.000008   0.000030  -0.000399   0.003268   0.000017   0.000380
     9  H   -0.000001   0.000000  -0.000002  -0.000008   0.000345  -0.004524
    10  O    0.000001   0.000001   0.000001  -0.000007   0.000284   0.002845
    11  O    0.000000  -0.000002   0.000000  -0.000093   0.000000  -0.000017
    12  C    0.000031   0.000002   0.000006  -0.000008  -0.000332   0.000347
    13  C    0.000004   0.000000   0.000000   0.000000  -0.000068  -0.000046
    14  C    0.000000  -0.000001   0.000003  -0.000015   0.422104   0.409984
    15  O    0.001432   0.001094   0.000295   0.000735  -0.000302   0.000081
    16  Si  -0.049131  -0.026555  -0.040417  -0.037171   0.000010  -0.000016
    17  C    0.003150   0.386478   0.396026   0.394258  -0.000001  -0.000002
    18  C    0.003191   0.000544   0.003492   0.001425  -0.000001  -0.000003
    19  C    0.399912  -0.000049   0.000404   0.003267  -0.000001   0.000000
    20  H   -0.000065   0.000369  -0.000160   0.000116   0.000000   0.000000
    21  H   -0.000127   0.000136  -0.000184   0.000400   0.000000   0.000000
    22  H    0.000166  -0.000125  -0.000098  -0.000208   0.000000   0.000000
    23  H   -0.018415  -0.000102  -0.000178  -0.000090   0.000000   0.000000
    24  H   -0.020093   0.000289   0.000837  -0.000131   0.000000   0.000000
    25  H    0.523131   0.000249   0.000170  -0.000191   0.000000   0.000000
    26  H    0.000249   0.492228  -0.014203  -0.013365   0.000000   0.000000
    27  H    0.000170  -0.014203   0.509915  -0.021772   0.000000   0.000000
    28  H   -0.000191  -0.013365  -0.021772   0.504460   0.000000   0.000000
    29  H    0.000000   0.000000   0.000000   0.000000   0.499037  -0.022313
    30  H    0.000000   0.000000   0.000000   0.000000  -0.022313   0.510484
    31  H    0.000000   0.000000  -0.000001   0.000000  -0.018907  -0.026380
    32  H   -0.000004  -0.000006  -0.000007   0.000006   0.000002   0.000017
    33  H   -0.000002   0.000000   0.000000   0.000000   0.000400  -0.000096
    34  H    0.000000   0.000000   0.000000   0.000000   0.000001   0.000000
    35  H    0.000000   0.000000   0.000000   0.000000   0.000003  -0.000010
    36  H    0.000000   0.000000   0.000000   0.000000  -0.000003   0.000006
    37  C   -0.000043   0.000460   0.005078  -0.007090  -0.001233  -0.008725
    38  C    0.000028  -0.000051  -0.001528   0.000940   0.000582   0.000656
    39  C    0.000003   0.000001   0.000252   0.000007   0.000008   0.000372
    40  H   -0.000014   0.000761  -0.004654   0.000653   0.000014  -0.000079
    41  H    0.000000   0.000002   0.000173  -0.000049   0.000509   0.000559
    42  H    0.000077  -0.000006  -0.000010   0.000036   0.000014  -0.000015
    43  H    0.000000   0.000000   0.000005   0.000000  -0.000002   0.000001
    44  H    0.000000   0.000000  -0.000008   0.000002   0.000022   0.000007
              31         32         33         34         35         36
     1  C    0.011920  -0.024199  -0.057610   0.013623  -0.017955   0.004369
     2  C   -0.053113  -0.003123  -0.002200  -0.000841  -0.000641   0.000697
     3  C   -0.018494   0.007096   0.001756  -0.000040   0.000027   0.000083
     4  C   -0.004753  -0.002292  -0.000564   0.000067   0.000419  -0.000046
     5  C    0.000218   0.000435   0.000373  -0.000019   0.001042  -0.000165
     6  H    0.000427   0.005192   0.001476  -0.000209   0.001598   0.001959
     7  H   -0.004404   0.000828  -0.003481  -0.000029  -0.000072   0.000042
     8  H   -0.000061   0.000074  -0.000002   0.000000  -0.000009   0.000000
     9  H    0.000493  -0.000006   0.000009   0.000000  -0.000002   0.000001
    10  O   -0.000232  -0.005997   0.004886   0.000182   0.007301  -0.000905
    11  O    0.000000   0.000040   0.000000   0.000002   0.000269   0.000000
    12  C   -0.000617   0.404204   0.436518  -0.051711  -0.029713  -0.051573
    13  C    0.000025  -0.045321  -0.035510   0.422871   0.417510   0.411214
    14  C    0.430485   0.000001  -0.000212   0.000019  -0.000061   0.000054
    15  O   -0.000044  -0.004033  -0.000576  -0.000019   0.000050  -0.000056
    16  Si   0.000039  -0.004005   0.000119   0.000052   0.000113  -0.000050
    17  C    0.000001  -0.000022   0.000006   0.000000   0.000001   0.000000
    18  C   -0.000001  -0.001556  -0.000008   0.000002   0.000060   0.000001
    19  C    0.000001   0.000996   0.000036  -0.000005  -0.000005   0.000002
    20  H    0.000000   0.000060   0.000001   0.000000   0.000003   0.000000
    21  H    0.000000   0.000125  -0.000014   0.000001  -0.000044  -0.000001
    22  H    0.000000   0.000372   0.000041   0.000009   0.000122   0.000003
    23  H    0.000000   0.000642   0.000057   0.000019   0.000008  -0.000003
    24  H    0.000000  -0.000048   0.000002   0.000000   0.000000   0.000000
    25  H    0.000000  -0.000004  -0.000002   0.000000   0.000000   0.000000
    26  H    0.000000  -0.000006   0.000000   0.000000   0.000000   0.000000
    27  H   -0.000001  -0.000007   0.000000   0.000000   0.000000   0.000000
    28  H    0.000000   0.000006   0.000000   0.000000   0.000000   0.000000
    29  H   -0.018907   0.000002   0.000400   0.000001   0.000003  -0.000003
    30  H   -0.026380   0.000017  -0.000096   0.000000  -0.000010   0.000006
    31  H    0.512479   0.000006   0.000029   0.000000   0.000001   0.000001
    32  H    0.000006   0.553816  -0.026563  -0.005222  -0.005634   0.008631
    33  H    0.000029  -0.026563   0.537418  -0.004683   0.006298  -0.003536
    34  H    0.000000  -0.005222  -0.004683   0.526068  -0.023760  -0.024786
    35  H    0.000001  -0.005634   0.006298  -0.023760   0.514259  -0.026947
    36  H    0.000001   0.008631  -0.003536  -0.024786  -0.026947   0.541023
    37  C    0.017668   0.000235  -0.000016   0.000000   0.000007   0.000002
    38  C    0.000772  -0.000079   0.000118  -0.000001  -0.000001   0.000000
    39  C    0.001600  -0.000018   0.000008   0.000000   0.000000   0.000000
    40  H    0.001002  -0.000023   0.000006   0.000000   0.000000   0.000000
    41  H   -0.009492  -0.000001  -0.000009   0.000000   0.000000   0.000000
    42  H   -0.000030   0.000009  -0.000006   0.000000   0.000000   0.000000
    43  H   -0.000066   0.000000  -0.000001   0.000000   0.000000   0.000000
    44  H    0.000254   0.000000   0.000000   0.000000   0.000000   0.000000
              37         38         39         40         41         42
     1  C    0.018460  -0.002836  -0.000466  -0.000403  -0.001212  -0.000730
     2  C   -0.088623   0.009256   0.003544   0.014583  -0.015717  -0.003545
     3  C    0.158262  -0.017958  -0.006754  -0.066728  -0.015740   0.004009
     4  C   -0.053090   0.006354   0.000018  -0.003216  -0.001878   0.000308
     5  C   -0.001693   0.000019  -0.000044  -0.000782  -0.000419  -0.000070
     6  H   -0.000077  -0.000080  -0.000010   0.000005   0.000009   0.000001
     7  H   -0.021094   0.007296   0.001635  -0.000164   0.000821   0.000205
     8  H   -0.019997   0.000955   0.000015   0.003712   0.000227   0.000006
     9  H   -0.005903  -0.000776  -0.000083  -0.000601   0.000993  -0.000043
    10  O   -0.003939   0.000228   0.000002   0.000028   0.000038   0.000004
    11  O   -0.001440   0.000040   0.000000  -0.000010   0.000003   0.000000
    12  C   -0.002162   0.000781   0.000076   0.000009   0.000039   0.000180
    13  C    0.000045   0.000005  -0.000001  -0.000002  -0.000002  -0.000001
    14  C    0.023044  -0.012215  -0.005483  -0.000667  -0.004761   0.000292
    15  O   -0.081882   0.012836   0.003044  -0.006126   0.004480   0.006196
    16  Si  -0.001912  -0.000533  -0.000013  -0.005691   0.000574  -0.001513
    17  C    0.000527  -0.001595  -0.000132  -0.003378  -0.000233  -0.000039
    18  C    0.000370   0.000083   0.000009  -0.000047   0.000035   0.000159
    19  C   -0.000054  -0.000542   0.000008   0.000428  -0.000012  -0.000511
    20  H    0.000013  -0.000006   0.000000  -0.000001  -0.000001  -0.000005
    21  H    0.000245  -0.000041   0.000000  -0.000078   0.000007  -0.000006
    22  H   -0.000078   0.000017   0.000000   0.000002  -0.000001  -0.000003
    23  H    0.000036   0.000064   0.000001  -0.000012   0.000000  -0.000082
    24  H   -0.000702   0.000223   0.000024   0.000028   0.000003   0.001032
    25  H   -0.000043   0.000028   0.000003  -0.000014   0.000000   0.000077
    26  H    0.000460  -0.000051   0.000001   0.000761   0.000002  -0.000006
    27  H    0.005078  -0.001528   0.000252  -0.004654   0.000173  -0.000010
    28  H   -0.007090   0.000940   0.000007   0.000653  -0.000049   0.000036
    29  H   -0.001233   0.000582   0.000008   0.000014   0.000509   0.000014
    30  H   -0.008725   0.000656   0.000372  -0.000079   0.000559  -0.000015
    31  H    0.017668   0.000772   0.001600   0.001002  -0.009492  -0.000030
    32  H    0.000235  -0.000079  -0.000018  -0.000023  -0.000001   0.000009
    33  H   -0.000016   0.000118   0.000008   0.000006  -0.000009  -0.000006
    34  H    0.000000  -0.000001   0.000000   0.000000   0.000000   0.000000
    35  H    0.000007  -0.000001   0.000000   0.000000   0.000000   0.000000
    36  H    0.000002   0.000000   0.000000   0.000000   0.000000   0.000000
    37  C    5.504698   0.168268  -0.051096   0.452034   0.421960  -0.046904
    38  C    0.168268   5.221856   0.536295  -0.048516  -0.047084   0.407153
    39  C   -0.051096   0.536295   5.006330  -0.005606   0.004762  -0.016950
    40  H    0.452034  -0.048516  -0.005606   0.495488  -0.014027   0.002059
    41  H    0.421960  -0.047084   0.004762  -0.014027   0.477256   0.002610
    42  H   -0.046904   0.407153  -0.016950   0.002059   0.002610   0.475982
    43  H    0.006838  -0.053313   0.427355  -0.000323   0.000165  -0.005899
    44  H    0.004533  -0.069455   0.435382   0.000711   0.000546   0.003946
              43         44
     1  C    0.000011  -0.000046
     2  C   -0.000026  -0.000330
     3  C   -0.000190  -0.001167
     4  C    0.000028   0.000021
     5  C    0.000000  -0.000001
     6  H    0.000000   0.000001
     7  H    0.000023   0.000104
     8  H    0.000000   0.000005
     9  H    0.000002  -0.000022
    10  O    0.000000   0.000000
    11  O    0.000000   0.000000
    12  C   -0.000001   0.000001
    13  C    0.000000   0.000000
    14  C    0.000014  -0.000506
    15  O   -0.000007  -0.000016
    16  Si   0.000022  -0.000002
    17  C   -0.000002  -0.000007
    18  C    0.000000   0.000000
    19  C   -0.000002   0.000000
    20  H    0.000000   0.000000
    21  H    0.000000   0.000000
    22  H    0.000000   0.000000
    23  H    0.000000   0.000000
    24  H   -0.000003   0.000001
    25  H    0.000000   0.000000
    26  H    0.000000   0.000000
    27  H    0.000005  -0.000008
    28  H    0.000000   0.000002
    29  H   -0.000002   0.000022
    30  H    0.000001   0.000007
    31  H   -0.000066   0.000254
    32  H    0.000000   0.000000
    33  H   -0.000001   0.000000
    34  H    0.000000   0.000000
    35  H    0.000000   0.000000
    36  H    0.000000   0.000000
    37  C    0.006838   0.004533
    38  C   -0.053313  -0.069455
    39  C    0.427355   0.435382
    40  H   -0.000323   0.000711
    41  H    0.000165   0.000546
    42  H   -0.005899   0.003946
    43  H    0.499627  -0.022227
    44  H   -0.022227   0.504277
 Mulliken charges:
               1
     1  C    0.007243
     2  C   -0.153305
     3  C    0.218272
     4  C   -0.453830
     5  C    0.342313
     6  H    0.163827
     7  H    0.192012
     8  H    0.204682
     9  H    0.215230
    10  O   -0.239134
    11  O   -0.378647
    12  C   -0.255487
    13  C   -0.438383
    14  C   -0.487426
    15  O   -0.400892
    16  Si   0.448604
    17  C   -0.598950
    18  C   -0.552990
    19  C   -0.551686
    20  H    0.164557
    21  H    0.168558
    22  H    0.165358
    23  H    0.158811
    24  H    0.155672
    25  H    0.156555
    26  H    0.172177
    27  H    0.169887
    28  H    0.167980
    29  H    0.164678
    30  H    0.168899
    31  H    0.159174
    32  H    0.145373
    33  H    0.145530
    34  H    0.148409
    35  H    0.155760
    36  H    0.139980
    37  C   -0.385029
    38  C   -0.118214
    39  C   -0.334095
    40  H    0.189623
    41  H    0.194869
    42  H    0.172089
    43  H    0.147971
    44  H    0.143975
 Sum of Mulliken charges =   0.00000
 Mulliken charges with hydrogens summed into heavy atoms:
               1
     1  C    0.171070
     2  C    0.038707
     3  C    0.218272
     4  C   -0.033919
     5  C    0.342313
    10  O   -0.239134
    11  O   -0.378647
    12  C    0.035416
    13  C    0.005766
    14  C    0.005326
    15  O   -0.400892
    16  Si   0.448604
    17  C   -0.088906
    18  C   -0.054516
    19  C   -0.080648
    37  C   -0.000538
    38  C    0.053874
    39  C   -0.042148
 Electronic spatial extent (au):  <R**2>=           4993.2526
 Charge=              0.0000 electrons
 Dipole moment (field-independent basis, Debye):
    X=             -3.0888    Y=              3.5903    Z=              2.4544  Tot=              5.3343
 Quadrupole moment (field-independent basis, Debye-Ang):
   XX=           -125.9597   YY=           -115.9063   ZZ=           -125.0722
   XY=              9.9846   XZ=             10.2416   YZ=             -7.6301
 Traceless Quadrupole moment (field-independent basis, Debye-Ang):
   XX=             -3.6470   YY=              6.4064   ZZ=             -2.7595
   XY=              9.9846   XZ=             10.2416   YZ=             -7.6301
 Octapole moment (field-independent basis, Debye-Ang**2):
  XXX=              0.6624  YYY=              9.2502  ZZZ=             14.3293  XYY=            -11.5563
  XXY=             11.1552  XXZ=             26.1980  XZZ=            -13.4552  YZZ=             22.3444
  YYZ=              6.1784  XYZ=            -16.9796
 Hexadecapole moment (field-independent basis, Debye-Ang**3):
 XXXX=          -3040.7581 YYYY=          -2562.9025 ZZZZ=          -1363.2419 XXXY=             81.7749
 XXXZ=             16.0549 YYYX=             13.7643 YYYZ=            -14.6608 ZZZX=             44.9850
 ZZZY=            -35.7349 XXYY=           -910.5772 XXZZ=           -743.8427 YYZZ=           -672.0596
 XXYZ=             -6.0828 YYXZ=              9.4572 ZZXY=             19.7745
 N-N= 1.658683369039D+03 E-N=-5.810761072098D+03  KE= 1.059308714029D+03
 1\1\GINC-CPU-E-118\SP\RM062X\def2TZVP\C14H26O3Si1\KE291\26-Jun-2019\0\
 \# m062x/def2tzvp int=ultrafine scrf=(solvent=chloroform)\\IP1_2ginp01
 7\\0,1\C,0,2.114272,0.68956,0.515274\C,0,0.864144,1.579096,0.31366\C,0
 ,-0.266737,0.828235,-0.438913\C,0,0.300327,0.308771,-1.765292\C,0,1.59
 48,-0.467556,-1.639286\H,0,2.990154,1.347579,0.557533\H,0,0.472272,1.8
 00083,1.312232\H,0,-0.415505,-0.326981,-2.291205\H,0,0.506325,1.152546
 ,-2.434771\O,0,2.423985,-0.184954,-0.62038\O,0,1.935203,-1.298631,-2.4
 58404\C,0,2.122667,-0.168625,1.784032\C,0,3.443403,-0.910815,2.007346\
 C,0,1.264146,2.915518,-0.338874\O,0,-0.65938,-0.25855,0.406178\Si,0,-1
 .553347,-1.678497,0.230499\C,0,-3.062921,-1.479601,-0.888527\C,0,-0.46
 4553,-3.070708,-0.425054\C,0,-2.11534,-2.073208,1.98232\H,0,-1.051159,
 -3.992558,-0.515145\H,0,-0.038081,-2.847867,-1.407529\H,0,0.368278,-3.
 273443,0.256802\H,0,-1.261086,-2.167354,2.660785\H,0,-2.771642,-1.2897
 46,2.375525\H,0,-2.668586,-3.01872,2.008653\H,0,-3.621497,-2.423246,-0
 .898892\H,0,-3.742182,-0.700661,-0.52728\H,0,-2.802066,-1.248852,-1.92
 6718\H,0,2.033781,3.403098,0.2672\H,0,1.680944,2.779927,-1.342473\H,0,
 0.420381,3.604554,-0.407025\H,0,1.285349,-0.868919,1.749146\H,0,1.9329
 35,0.507838,2.627068\H,0,3.410811,-1.485165,2.938289\H,0,3.649913,-1.6
 04395,1.188008\H,0,4.28591,-0.212759,2.075722\C,0,-1.499884,1.728101,-
 0.71002\C,0,-2.120975,2.313942,0.528286\C,0,-2.434816,3.600742,0.68849
 1\H,0,-2.238503,1.101815,-1.225706\H,0,-1.233841,2.525838,-1.410334\H,
 0,-2.328822,1.610342,1.332766\H,0,-2.899815,3.964695,1.600072\H,0,-2.2
 47075,4.337667,-0.089535\\Version=ES64L-G09RevD.01\State=1-A\HF=-1064.
 3394794\RMSD=1.564e-09\Dipole=-1.2152337,1.4125392,0.9656364\Quadrupol
 e=-2.7114314,4.7630239,-2.0515926,7.4232963,7.6143887,-5.6727964\PG=C0
 1 [X(C14H26O3Si1)]\\@


 WHEN HAVING A MEETING OF THE MINDS,
 MAKE SURE YOU HAVE THE EQUIPMENT FOR IT.
 Job cpu time:       0 days  2 hours 28 minutes 21.9 seconds.
 File lengths (MBytes):  RWF=    406 Int=      0 D2E=      0 Chk=     21 Scr=      1
 Normal termination of Gaussian 09 at Wed Jun 26 13:56:16 2019.
