 Entering Gaussian System, Link 0=/usr/local/Cluster-Apps/gaussian/g09/g09
 Initial command:
 /usr/local/Cluster-Apps/gaussian/g09/l1.exe "/home/ke291/rds/hpc-work/26Jun1304IP1NMR/Gau-297316.inp" -scrdir="/home/ke291/rds/hpc-work/26Jun1304IP1NMR/"
 Entering Link 1 = /usr/local/Cluster-Apps/gaussian/g09/l1.exe PID=    297330.
  
 Copyright (c) 1988,1990,1992,1993,1995,1998,2003,2009,2013,
            Gaussian, Inc.  All Rights Reserved.
  
 This is part of the Gaussian(R) 09 program.  It is based on
 the Gaussian(R) 03 system (copyright 2003, Gaussian, Inc.),
 the Gaussian(R) 98 system (copyright 1998, Gaussian, Inc.),
 the Gaussian(R) 94 system (copyright 1995, Gaussian, Inc.),
 the Gaussian 92(TM) system (copyright 1992, Gaussian, Inc.),
 the Gaussian 90(TM) system (copyright 1990, Gaussian, Inc.),
 the Gaussian 88(TM) system (copyright 1988, Gaussian, Inc.),
 the Gaussian 86(TM) system (copyright 1986, Carnegie Mellon
 University), and the Gaussian 82(TM) system (copyright 1983,
 Carnegie Mellon University). Gaussian is a federally registered
 trademark of Gaussian, Inc.
  
 This software contains proprietary and confidential information,
 including trade secrets, belonging to Gaussian, Inc.
  
 This software is provided under written license and may be
 used, copied, transmitted, or stored only in accord with that
 written license.
  
 The following legend is applicable only to US Government
 contracts under FAR:
  
                    RESTRICTED RIGHTS LEGEND
  
 Use, reproduction and disclosure by the US Government is
 subject to restrictions as set forth in subparagraphs (a)
 and (c) of the Commercial Computer Software - Restricted
 Rights clause in FAR 52.227-19.
  
 Gaussian, Inc.
 340 Quinnipiac St., Bldg. 40, Wallingford CT 06492
  
  
 ---------------------------------------------------------------
 Warning -- This program may not be used in any manner that
 competes with the business of Gaussian, Inc. or will provide
 assistance to any competitor of Gaussian, Inc.  The licensee
 of this program is prohibited from giving any competitor of
 Gaussian, Inc. access to this program.  By using this program,
 the user acknowledges that Gaussian, Inc. is engaged in the
 business of creating and licensing software in the field of
 computational chemistry and represents and warrants to the
 licensee that it is not a competitor of Gaussian, Inc. and that
 it will not use this program in any manner prohibited above.
 ---------------------------------------------------------------
  

 Cite this work as:
 Gaussian 09, Revision D.01,
 M. J. Frisch, G. W. Trucks, H. B. Schlegel, G. E. Scuseria, 
 M. A. Robb, J. R. Cheeseman, G. Scalmani, V. Barone, B. Mennucci, 
 G. A. Petersson, H. Nakatsuji, M. Caricato, X. Li, H. P. Hratchian, 
 A. F. Izmaylov, J. Bloino, G. Zheng, J. L. Sonnenberg, M. Hada, 
 M. Ehara, K. Toyota, R. Fukuda, J. Hasegawa, M. Ishida, T. Nakajima, 
 Y. Honda, O. Kitao, H. Nakai, T. Vreven, J. A. Montgomery, Jr., 
 J. E. Peralta, F. Ogliaro, M. Bearpark, J. J. Heyd, E. Brothers, 
 K. N. Kudin, V. N. Staroverov, T. Keith, R. Kobayashi, J. Normand, 
 K. Raghavachari, A. Rendell, J. C. Burant, S. S. Iyengar, J. Tomasi, 
 M. Cossi, N. Rega, J. M. Millam, M. Klene, J. E. Knox, J. B. Cross, 
 V. Bakken, C. Adamo, J. Jaramillo, R. Gomperts, R. E. Stratmann, 
 O. Yazyev, A. J. Austin, R. Cammi, C. Pomelli, J. W. Ochterski, 
 R. L. Martin, K. Morokuma, V. G. Zakrzewski, G. A. Voth, 
 P. Salvador, J. J. Dannenberg, S. Dapprich, A. D. Daniels, 
 O. Farkas, J. B. Foresman, J. V. Ortiz, J. Cioslowski, 
 and D. J. Fox, Gaussian, Inc., Wallingford CT, 2013.
 
 ******************************************
 Gaussian 09:  ES64L-G09RevD.01 24-Apr-2013
                26-Jun-2019 
 ******************************************
 %nprocshared=4
 Will use up to    4 processors via shared memory.
 %mem=6000MB
 %chk=IP1_1ginp017.chk
 --------------------------------------------------------
 # m062x/def2tzvp int=ultrafine scrf=(solvent=chloroform)
 --------------------------------------------------------
 1/38=1/1;
 2/12=2,17=6,18=5,40=1/2;
 3/5=44,7=101,11=2,16=1,25=1,30=1,70=2201,72=7,74=-55,75=-5/1,2,3;
 4//1;
 5/5=2,38=5,53=7/2;
 6/7=2,8=2,9=2,10=2,28=1/1;
 99/5=1,9=1/99;
 ------------
 IP1_1ginp017
 ------------
 Symbolic Z-matrix:
 Charge =  0 Multiplicity = 1
 C                     2.11434   0.68937   0.51529 
 C                     0.86427   1.57899   0.31368 
 C                    -0.26665   0.82822  -0.43892 
 C                     0.3004    0.30874  -1.7653 
 C                     1.59484  -0.46766  -1.6393 
 H                     2.99024   1.34736   0.55759 
 H                     0.4724    1.79997   1.31226 
 H                    -0.41547  -0.327    -2.2912 
 H                     0.50645   1.15248  -2.4348 
 O                     2.42402  -0.18514  -0.62036 
 O                     1.93522  -1.29872  -2.45843 
 C                     2.12268  -0.16882   1.78404 
 C                     3.44342  -0.911     2.00739 
 C                     1.26437   2.9154   -0.33882 
 O                    -0.65936  -0.25857   0.40616 
 Si                   -1.55356  -1.67839   0.23051 
 C                    -3.06333  -1.47916  -0.88818 
 C                    -0.46506  -3.07062  -0.42549 
 C                    -2.1152   -2.07313   1.98244 
 H                     0.36803  -3.27339   0.25604 
 H                    -1.05169  -3.99246  -0.51547 
 H                    -0.03893  -2.84768  -1.4081 
 H                    -2.66893  -3.01836   2.00882 
 H                    -1.2608   -2.16779   2.66064 
 H                    -2.77099  -1.28938   2.37593 
 H                    -3.62257  -2.42242  -0.89787 
 H                    -3.74196  -0.69955  -0.52719 
 H                    -2.80255  -1.24917  -1.92655 
 H                     2.03408   3.40289   0.26722 
 H                     1.68109   2.77981  -1.34245 
 H                     0.42066   3.60451  -0.40689 
 H                     1.28537  -0.86912   1.7491 
 H                     1.9329    0.50762   2.62709 
 H                     3.41088  -1.48527   2.93838 
 H                     3.64991  -1.60465   1.1881 
 H                     4.28593  -0.21293   2.07566 
 C                    -1.4997    1.7282   -0.71007 
 C                    -2.12085   2.31403   0.52821 
 C                    -2.43457   3.60086   0.68846 
 H                    -2.23833   1.10201  -1.22587 
 H                    -1.23352   2.52595  -1.41032 
 H                    -2.32883   1.61043   1.33265 
 H                    -2.89959   3.96482   1.60002 
 H                    -2.24669   4.33781  -0.08951 
 
                          Input orientation:                          
 ---------------------------------------------------------------------
 Center     Atomic      Atomic             Coordinates (Angstroms)
 Number     Number       Type             X           Y           Z
 ---------------------------------------------------------------------
      1          6           0        2.114338    0.689370    0.515291
      2          6           0        0.864269    1.578992    0.313681
      3          6           0       -0.266651    0.828220   -0.438921
      4          6           0        0.300396    0.308735   -1.765300
      5          6           0        1.594843   -0.467662   -1.639296
      6          1           0        2.990243    1.347360    0.557590
      7          1           0        0.472395    1.799970    1.312258
      8          1           0       -0.415470   -0.326996   -2.291195
      9          1           0        0.506449    1.152485   -2.434796
     10          8           0        2.424022   -0.185139   -0.620359
     11          8           0        1.935224   -1.298723   -2.458434
     12          6           0        2.122684   -0.168824    1.784044
     13          6           0        3.443424   -0.911000    2.007386
     14          6           0        1.264366    2.915398   -0.338816
     15          8           0       -0.659361   -0.258565    0.406156
     16         14           0       -1.553560   -1.678394    0.230514
     17          6           0       -3.063334   -1.479163   -0.888178
     18          6           0       -0.465056   -3.070616   -0.425488
     19          6           0       -2.115204   -2.073129    1.982435
     20          1           0        0.368029   -3.273394    0.256041
     21          1           0       -1.051689   -3.992457   -0.515467
     22          1           0       -0.038931   -2.847681   -1.408096
     23          1           0       -2.668928   -3.018361    2.008818
     24          1           0       -1.260801   -2.167794    2.660636
     25          1           0       -2.770991   -1.289381    2.375925
     26          1           0       -3.622570   -2.422421   -0.897868
     27          1           0       -3.741958   -0.699548   -0.527193
     28          1           0       -2.802545   -1.249165   -1.926552
     29          1           0        2.034083    3.402891    0.267224
     30          1           0        1.681085    2.779813   -1.342451
     31          1           0        0.420657    3.604510   -0.406887
     32          1           0        1.285368   -0.869118    1.749103
     33          1           0        1.932903    0.507620    2.627086
     34          1           0        3.410875   -1.485266    2.938380
     35          1           0        3.649910   -1.604647    1.188100
     36          1           0        4.285928   -0.212930    2.075662
     37          6           0       -1.499703    1.728196   -0.710070
     38          6           0       -2.120852    2.314032    0.528211
     39          6           0       -2.434573    3.600857    0.688458
     40          1           0       -2.238327    1.102015   -1.225870
     41          1           0       -1.233523    2.525950   -1.410315
     42          1           0       -2.328828    1.610425    1.332651
     43          1           0       -2.899593    3.964818    1.600024
     44          1           0       -2.246687    4.337806   -0.089511
 ---------------------------------------------------------------------
                    Distance matrix (angstroms):
                    1          2          3          4          5
     1  C    0.000000
     2  C    1.547497   0.000000
     3  C    2.568834   1.552111   0.000000
     4  C    2.938769   2.500733   1.533195   0.000000
     5  C    2.500169   2.921755   2.566198   1.514682   0.000000
     6  H    1.096335   2.152420   3.445272   3.702680   3.172972
     7  H    2.136484   1.095241   2.134740   3.424139   3.887636
     8  H    3.912709   3.472161   2.188056   1.092329   2.118046
     9  H    3.391577   2.804295   2.164798   1.096630   2.107676
    10  O    1.466414   2.533262   2.880892   2.462639   1.343722
    11  O    3.581569   4.136763   3.667502   2.395207   1.215528
    12  C    1.531764   2.607765   3.412417   4.018288   3.476662
    13  C    2.560078   3.964938   4.772207   5.059599   4.112431
    14  C    2.531235   1.540068   2.590434   3.123906   3.639445
    15  O    2.933240   2.388852   1.431600   2.440939   3.051070
    16  Si   4.375029   4.057509   2.896099   3.371811   3.856748
    17  C    5.786238   5.120824   3.653393   3.909041   4.825549
    18  C    4.655731   4.892068   3.903904   3.714973   3.534386
    19  C    5.260507   4.999999   4.206892   5.055088   5.427606
    20  H    4.338237   4.878035   4.208210   4.113641   3.601320
    21  H    5.745058   5.949742   4.884779   4.678725   4.548769
    22  H    4.565820   4.834844   3.808334   3.194636   2.896060
    23  H    6.233580   6.040913   5.153498   5.842125   6.163971
    24  H    4.915023   4.905357   4.423990   5.306547   5.434571
    25  H    5.589620   5.069076   4.321957   5.397883   5.988132
    26  H    6.677752   6.132771   4.694624   4.858118   5.620694
    27  H    6.108361   5.207316   3.797318   4.346282   5.456371
    28  H    5.822049   5.144185   3.599907   3.475816   4.475521
    29  H    2.726018   2.167310   3.524337   4.087863   4.336926
    30  H    2.829994   2.202710   2.901509   2.862050   3.262154
    31  H    3.495284   2.195161   2.860281   3.566775   4.413630
    32  H    2.153687   2.868973   3.174456   3.835171   3.426104
    33  H    2.127353   2.764355   3.786980   4.690169   4.389473
    34  H    3.504484   4.771155   5.502961   5.917611   5.028778
    35  H    2.841332   4.319718   4.889324   4.858276   3.675623
    36  H    2.822181   4.245387   5.304064   5.559639   4.594316
    37  C    3.954992   2.580444   1.550450   2.523636   3.906593
    38  C    4.536136   3.081762   2.565354   3.891510   5.122724
    39  C    5.403641   3.887255   3.695725   4.933462   6.181220
    40  H    4.706125   3.496259   2.140504   2.713926   4.162691
    41  H    4.276582   2.875695   2.181911   2.719368   4.124779
    42  H    4.610655   3.351888   2.828937   4.266675   5.342856
    43  H    6.086437   4.638265   4.574705   5.910353   7.095071
    44  H    5.717990   4.177519   4.044728   5.052654   6.344423
                    6          7          8          9         10
     6  H    0.000000
     7  H    2.667197   0.000000
     8  H    4.745306   4.277518   0.000000
     9  H    3.893788   3.802737   1.749120   0.000000
    10  O    2.014131   3.388881   3.297655   2.959477   0.000000
    11  O    4.148641   5.095084   2.549114   2.837319   2.203977
    12  C    2.134400   2.611931   4.803625   4.707089   2.423267
    13  C    2.721667   4.081614   5.806025   5.711110   2.910515
    14  C    2.498187   2.144165   4.140864   2.841731   3.322258
    15  O    3.990180   2.517828   2.709219   3.379524   3.250596
    16  Si   5.468849   4.168175   3.079049   4.400158   4.333007
    17  C    6.835589   5.300567   3.210472   4.696908   5.644227
    18  C    5.694212   5.255586   3.318248   4.776581   4.087875
    19  C    6.308369   4.705922   4.919552   6.065441   5.562699
    20  H    5.321495   5.183195   3.972851   5.181522   3.812152
    21  H    6.782500   6.262238   4.122328   5.708069   5.156282
    22  H    5.535177   5.409477   2.697313   4.165679   3.711576
    23  H    7.293271   5.793912   5.550822   6.872022   6.393579
    24  H    5.903430   4.534892   5.350117   6.333313   5.317308
    25  H    6.591704   4.603806   5.315701   6.312476   6.097969
    26  H    7.749768   6.283469   4.076476   5.673702   6.453194
    27  H    7.119629   5.233731   3.783652   5.011780   6.188102
    28  H    6.816839   5.523798   2.584857   4.120155   5.491384
    29  H    2.285555   2.469883   5.143722   3.833915   3.716694
    30  H    2.715874   3.077093   3.866254   2.284991   3.140750
    31  H    3.553550   2.492890   4.439196   3.183112   4.291909
    32  H    3.039585   2.824144   4.417098   4.711539   2.716378
    33  H    2.471021   2.352026   5.513704   5.298422   3.356637
    34  H    3.724092   4.698054   6.582626   6.653153   3.915205
    35  H    3.089830   4.658694   5.501382   5.532495   2.605442
    36  H    2.533347   4.379222   6.417600   6.040948   3.276583
    37  C    4.680984   2.825621   2.810575   2.707539   4.366293
    38  C    5.201789   2.757521   4.222843   4.126901   5.312339
    39  C    5.875713   3.476030   5.327583   4.939519   6.297040
    40  H    5.529816   3.778525   2.549470   2.999641   4.874516
    41  H    4.806446   3.293874   3.095878   2.442022   4.620787
    42  H    5.381676   2.807703   4.532858   4.737316   5.443150
    43  H    6.529006   4.017422   6.303342   5.982484   7.105851
    44  H    6.065224   3.974792   5.473678   4.819376   6.523370
                   11         12         13         14         15
    11  O    0.000000
    12  C    4.394364   0.000000
    13  C    4.729540   1.531359   0.000000
    14  C    4.764625   3.841311   4.989417   0.000000
    15  O    4.002459   3.105866   4.452241   3.785466   0.000000
    16  Si   4.421109   4.266969   5.358733   5.419204   1.687115
    17  C    5.242504   5.979343   7.144578   6.192169   2.990693
    18  C    3.610238   4.472005   5.085178   6.231435   2.938880
    19  C    6.060280   4.650315   5.678865   6.457174   2.810120
    20  H    3.704565   3.879686   4.255134   6.281594   3.188614
    21  H    4.466875   5.475816   6.005515   7.287920   3.865910
    22  H    2.720252   4.694530   5.248147   6.004583   3.221795
    23  H    6.641665   5.579420   6.465433   7.496111   3.771387
    24  H    6.097109   4.026446   4.912840   6.419659   3.014891
    25  H    6.746820   5.055099   6.236822   6.429159   3.066195
    26  H    5.881083   6.728989   7.788014   7.258581   3.894016
    27  H    6.026533   6.325939   7.622238   6.177912   3.250848
    28  H    4.767789   6.260474   7.389340   6.033594   3.319044
    29  H    5.435454   3.881461   4.860459   1.094257   4.547549
    30  H    4.236090   4.320236   5.286714   1.095135   4.215098
    31  H    5.526704   4.683495   5.946063   1.091492   4.092777
    32  H    4.279047   1.092122   2.173861   4.322315   2.440953
    33  H    5.396795   1.097412   2.162911   3.878261   3.498486
    34  H    5.598031   2.173694   1.094345   5.891804   4.948108
    35  H    4.041157   2.179256   1.093166   5.334145   4.581833
    36  H    5.221377   2.183257   1.096256   4.974533   5.219695
    37  C    4.900790   4.789674   6.227714   3.031065   2.428859
    38  C    6.198693   5.074376   6.599239   3.545854   2.961268
    39  C    7.280380   6.014931   7.526438   3.899653   4.257489
    40  H    4.970039   5.449131   6.840210   4.042781   2.647229
    41  H    5.076183   5.360024   6.735513   2.745766   3.373834
    42  H    6.404499   4.815126   6.334962   4.172266   2.671823
    43  H    8.218966   6.507236   8.010831   4.711575   4.927568
    44  H    7.407472   6.550674   8.020243   3.796431   4.887936
                   16         17         18         19         20
    16  Si   0.000000
    17  C    1.889598   0.000000
    18  C    1.885063   3.081859   0.000000
    19  C    1.881618   3.080936   3.084811   0.000000
    20  H    2.497435   4.037667   1.095277   3.253847   0.000000
    21  H    2.482589   3.240721   1.096369   3.324816   1.768580
    22  H    2.519201   3.360085   1.093984   4.050499   1.765276
    23  H    2.490366   3.304130   3.284148   1.095796   3.515733
    24  H    2.496140   4.039482   3.312470   1.094953   3.107654
    25  H    2.497250   3.282659   4.042035   1.095058   4.275940
    26  H    2.471361   1.096620   3.257790   3.269603   4.240347
    27  H    2.514229   1.094824   4.046034   3.291092   4.912243
    28  H    2.529256   1.095048   3.321857   4.053583   4.348995
    29  H    6.220288   7.152137   6.973653   7.081336   6.881035
    30  H    5.728242   6.391772   6.298751   7.001266   6.396922
    31  H    5.675640   6.181712   6.733657   6.661459   6.909979
    32  H    3.319722   5.122364   3.555197   3.614966   2.975111
    33  H    4.762104   6.423922   5.279412   4.843863   4.729350
    34  H    5.658220   7.520503   5.371386   5.638880   4.432974
    35  H    5.291362   7.028109   4.656788   5.838406   3.797920
    36  H    6.296966   8.024920   6.082267   6.666598   5.294090
    37  C    3.534467   3.572648   4.917324   4.698776   5.425652
    38  C    4.043502   4.157254   5.713636   4.621902   6.122739
    39  C    5.371814   5.356092   7.044744   5.828421   7.436188
    40  H    3.212574   2.730779   4.603906   4.515520   5.304089
    41  H    4.524517   4.434159   5.734281   5.782702   6.242924
    42  H    3.554163   3.875195   5.336370   3.746522   5.681885
    43  H    5.960973   5.987895   7.715374   6.100681   8.054524
    44  H    6.064446   5.928061   7.627044   6.738719   8.055216
                   21         22         23         24         25
    21  H    0.000000
    22  H    1.770022   0.000000
    23  H    3.152196   4.315242   0.000000
    24  H    3.668890   4.302301   1.769506   0.000000
    25  H    4.315410   4.920494   1.770468   1.770125   0.000000
    26  H    3.036556   3.644674   3.116633   4.278521   3.567448
    27  H    4.252168   4.370684   3.599950   4.298155   3.117495
    28  H    3.547155   3.234442   4.316833   4.925764   4.302781
    29  H    8.051445   6.795126   8.147634   6.900523   7.039373
    30  H    7.349530   5.884849   7.985765   7.011292   7.085594
    31  H    7.739089   6.545564   7.696986   6.749555   6.471540
    32  H    4.510583   3.954287   4.508121   3.000071   4.125964
    33  H    6.247729   5.606146   5.830235   4.166379   5.041717
    34  H    6.174912   5.713947   6.338649   4.729434   6.210491
    35  H    5.541553   4.678987   6.526858   5.157575   6.537453
    36  H    7.034837   6.146779   7.499662   5.910151   7.144859
    37  C    5.741468   4.853838   5.593679   5.157274   4.499479
    38  C    6.481063   5.892959   5.561205   5.037230   4.101379
    39  C    7.811544   7.191542   6.753689   6.208427   5.184125
    40  H    5.278866   4.524450   5.256056   5.172247   4.356080
    41  H    6.582055   5.504813   6.670101   6.213262   5.590722
    42  H    6.036465   5.712270   4.690259   4.144776   3.113327
    43  H    8.438500   7.977613   6.998936   6.435796   5.312736
    44  H    8.426312   7.631781   7.661231   7.131487   6.165915
                   26         27         28         29         30
    26  H    0.000000
    27  H    1.766337   0.000000
    28  H    1.762714   1.772789   0.000000
    29  H    8.203013   7.129078   7.060258   0.000000
    30  H    7.442422   6.494613   6.056135   1.761785   0.000000
    31  H    7.274108   5.988886   6.021343   1.760176   1.773156
    32  H    5.788528   5.521257   5.510527   4.583296   4.798854
    33  H    7.202341   6.603846   6.800469   3.736547   4.580775
    34  H    8.066251   7.986900   7.894928   5.738006   6.285586
    35  H    7.609795   7.642064   7.173674   5.341755   5.431708
    36  H    8.733159   8.453319   8.205970   4.627679   5.236909
    37  C    4.665775   3.309848   3.470145   4.030800   3.409284
    38  C    5.169414   3.580995   4.380290   4.303163   4.262752
    39  C    6.340950   4.656237   5.522354   4.492829   4.662333
    40  H    3.800706   2.448405   2.517408   5.077090   4.265019
    41  H    5.518743   4.180429   4.120658   3.776296   2.926430
    42  H    4.786735   3.285108   4.361659   4.835604   4.960145
    43  H    6.896302   5.195281   6.295377   5.141330   5.571805
    44  H    6.946018   5.272792   5.907448   4.396171   4.407334
                   31         32         33         34         35
    31  H    0.000000
    32  H    5.040770   0.000000
    33  H    4.591580   1.756577   0.000000
    34  H    6.785133   2.512329   2.500580   0.000000
    35  H    6.333038   2.539052   3.079036   1.770556   0.000000
    36  H    5.972957   3.088784   2.521902   1.768852   1.768944
    37  C    2.701899   4.533232   4.940567   6.910232   6.421013
    38  C    2.999835   4.819269   4.909311   7.130469   7.006653
    39  C    3.058126   5.911312   5.692209   8.068461   8.022958
    40  H    3.742113   5.015202   5.709443   7.479872   6.915534
    41  H    2.215056   5.277615   5.513666   7.521398   6.903732
    42  H    3.816023   4.402724   4.588474   6.716090   6.789911
    43  H    3.896354   6.395550   6.029933   8.444917   8.607242
    44  H    2.784452   6.554996   6.286430   8.665120   8.468465
                   36         37         38         39         40
    36  H    0.000000
    37  C    6.708338   0.000000
    38  C    7.058822   1.504118   0.000000
    39  C    7.850760   2.517285   1.334173   0.000000
    40  H    7.429340   1.097141   2.135319   3.153946   0.000000
    41  H    7.079395   1.094352   2.142462   2.646279   1.752496
    42  H    6.901571   2.207720   1.088779   2.094752   2.610115
    43  H    8.325354   3.506951   2.116675   1.086123   4.076591
    44  H    8.250590   2.784447   2.119688   1.087948   3.429537
                   41         42         43         44
    41  H    0.000000
    42  H    3.092207   0.000000
    43  H    3.729379   2.437299   0.000000
    44  H    2.460457   3.076995   1.849307   0.000000
 Stoichiometry    C14H26O3Si
 Framework group  C1[X(C14H26O3Si)]
 Deg. of freedom   126
 Full point group                 C1      NOp   1
 Largest Abelian subgroup         C1      NOp   1
 Largest concise Abelian subgroup C1      NOp   1
                         Standard orientation:                         
 ---------------------------------------------------------------------
 Center     Atomic      Atomic             Coordinates (Angstroms)
 Number     Number       Type             X           Y           Z
 ---------------------------------------------------------------------
      1          6           0        2.114338    0.689370    0.515291
      2          6           0        0.864269    1.578992    0.313681
      3          6           0       -0.266651    0.828220   -0.438921
      4          6           0        0.300396    0.308735   -1.765300
      5          6           0        1.594843   -0.467662   -1.639296
      6          1           0        2.990243    1.347360    0.557590
      7          1           0        0.472395    1.799970    1.312258
      8          1           0       -0.415470   -0.326996   -2.291195
      9          1           0        0.506449    1.152485   -2.434796
     10          8           0        2.424022   -0.185139   -0.620359
     11          8           0        1.935224   -1.298723   -2.458434
     12          6           0        2.122684   -0.168824    1.784044
     13          6           0        3.443424   -0.911000    2.007386
     14          6           0        1.264366    2.915398   -0.338816
     15          8           0       -0.659361   -0.258565    0.406156
     16         14           0       -1.553560   -1.678394    0.230514
     17          6           0       -3.063334   -1.479163   -0.888178
     18          6           0       -0.465056   -3.070616   -0.425488
     19          6           0       -2.115204   -2.073129    1.982435
     20          1           0        0.368029   -3.273394    0.256041
     21          1           0       -1.051689   -3.992457   -0.515467
     22          1           0       -0.038931   -2.847681   -1.408096
     23          1           0       -2.668928   -3.018361    2.008818
     24          1           0       -1.260801   -2.167794    2.660636
     25          1           0       -2.770991   -1.289381    2.375925
     26          1           0       -3.622570   -2.422421   -0.897868
     27          1           0       -3.741958   -0.699548   -0.527193
     28          1           0       -2.802545   -1.249165   -1.926552
     29          1           0        2.034083    3.402891    0.267224
     30          1           0        1.681085    2.779813   -1.342451
     31          1           0        0.420657    3.604510   -0.406887
     32          1           0        1.285368   -0.869118    1.749103
     33          1           0        1.932903    0.507620    2.627086
     34          1           0        3.410875   -1.485266    2.938380
     35          1           0        3.649910   -1.604647    1.188100
     36          1           0        4.285928   -0.212930    2.075662
     37          6           0       -1.499703    1.728196   -0.710070
     38          6           0       -2.120852    2.314032    0.528211
     39          6           0       -2.434573    3.600857    0.688458
     40          1           0       -2.238327    1.102015   -1.225870
     41          1           0       -1.233523    2.525950   -1.410315
     42          1           0       -2.328828    1.610425    1.332651
     43          1           0       -2.899593    3.964818    1.600024
     44          1           0       -2.246687    4.337806   -0.089511
 ---------------------------------------------------------------------
 Rotational constants (GHZ):      0.3955046      0.3555674      0.2705130
 Standard basis: def2TZVP (5D, 7F)
 There are   810 symmetry adapted cartesian basis functions of A   symmetry.
 There are   720 symmetry adapted basis functions of A   symmetry.
   720 basis functions,  1144 primitive gaussians,   810 cartesian basis functions
    74 alpha electrons       74 beta electrons
       nuclear repulsion energy      1658.6777924766 Hartrees.
 NAtoms=   44 NActive=   44 NUniq=   44 SFac= 1.00D+00 NAtFMM=   60 NAOKFM=F Big=F
 Integral buffers will be    131072 words long.
 Raffenetti 2 integral format.
 Two-electron integral symmetry is turned on.
 ------------------------------------------------------------------------------
 Polarizable Continuum Model (PCM)
 =================================
 Model                : PCM (using non-symmetric T matrix).
 Atomic radii         : UFF (Universal Force Field).
 Polarization charges : Total charges.
 Charge compensation  : None.
 Solution method      : On-the-fly selection.
 Cavity type          : Scaled VdW (van der Waals Surface) (Alpha=1.100).
 Cavity algorithm     : GePol (No added spheres)
                        Default sphere list used, NSphG=   44.
                        Lebedev-Laikov grids with approx.  5.0 points / Ang**2.
                        Smoothing algorithm: Karplus/York (Gamma=1.0000).
                        Polarization charges: spherical gaussians, with
                                              point-specific exponents (IZeta= 3).
                        Self-potential: point-specific (ISelfS= 7).
                        Self-field    : sphere-specific E.n sum rule (ISelfD= 2).
 Solvent              : Chloroform, Eps=   4.711300 Eps(inf)=   2.090627
 ------------------------------------------------------------------------------
 One-electron integrals computed using PRISM.
   1 Symmetry operations used in ECPInt.
 ECPInt:  NShTT=   46360 NPrTT=  137514 LenC2=   42714 LenP2D=   91953.
 LDataN:  DoStor=T MaxTD1= 6 Len=  172
 NBasis=   720 RedAO= T EigKep=  5.00D-05  NBF=   720
 NBsUse=   720 1.00D-06 EigRej= -1.00D+00 NBFU=   720
 ExpMin= 7.01D-02 ExpMax= 4.48D+04 ExpMxC= 1.53D+03 IAcc=3 IRadAn=         5 AccDes= 0.00D+00
 Harris functional with IExCor= 1009 and IRadAn=       5 diagonalized for initial guess.
 HarFok:  IExCor= 1009 AccDes= 0.00D+00 IRadAn=         5 IDoV= 1 UseB2=F ITyADJ=14
 ICtDFT=  3500011 ScaDFX=  1.000000  1.000000  1.000000  1.000000
 FoFCou: FMM=F IPFlag=           0 FMFlag=      100000 FMFlg1=           0
         NFxFlg=           0 DoJE=T BraDBF=F KetDBF=T FulRan=T
         wScrn=  0.000000 ICntrl=     500 IOpCl=  0 I1Cent=   200000004 NGrid=           0
         NMat0=    1 NMatS0=      1 NMatT0=    0 NMatD0=    1 NMtDS0=    0 NMtDT0=    0
 Petite list used in FoFCou.
 Requested convergence on RMS density matrix=1.00D-08 within 128 cycles.
 Requested convergence on MAX density matrix=1.00D-06.
 Requested convergence on             energy=1.00D-06.
 No special actions if energy rises.
 Inv3:  Mode=1 IEnd=    24590307.
 Iteration    1 A*A^-1 deviation from unit magnitude is 8.22D-15 for   2847.
 Iteration    1 A*A^-1 deviation from orthogonality  is 3.45D-15 for   2291    422.
 Iteration    1 A^-1*A deviation from unit magnitude is 8.22D-15 for   2847.
 Iteration    1 A^-1*A deviation from orthogonality  is 6.51D-12 for   2125   2075.
 Error on total polarization charges =  0.01465
 SCF Done:  E(RM062X) =  -1064.33947971     A.U. after   14 cycles
            NFock= 14  Conv=0.16D-08     -V/T= 2.0047

 **********************************************************************

            Population analysis using the SCF density.

 **********************************************************************

 Orbital symmetries:
       Occupied  (A) (A) (A) (A) (A) (A) (A) (A) (A) (A) (A) (A)
                 (A) (A) (A) (A) (A) (A) (A) (A) (A) (A) (A) (A)
                 (A) (A) (A) (A) (A) (A) (A) (A) (A) (A) (A) (A)
                 (A) (A) (A) (A) (A) (A) (A) (A) (A) (A) (A) (A)
                 (A) (A) (A) (A) (A) (A) (A) (A) (A) (A) (A) (A)
                 (A) (A) (A) (A) (A) (A) (A) (A) (A) (A) (A) (A)
                 (A) (A)
       Virtual   (A) (A) (A) (A) (A) (A) (A) (A) (A) (A) (A) (A)
                 (A) (A) (A) (A) (A) (A) (A) (A) (A) (A) (A) (A)
                 (A) (A) (A) (A) (A) (A) (A) (A) (A) (A) (A) (A)
                 (A) (A) (A) (A) (A) (A) (A) (A) (A) (A) (A) (A)
                 (A) (A) (A) (A) (A) (A) (A) (A) (A) (A) (A) (A)
                 (A) (A) (A) (A) (A) (A) (A) (A) (A) (A) (A) (A)
                 (A) (A) (A) (A) (A) (A) (A) (A) (A) (A) (A) (A)
                 (A) (A) (A) (A) (A) (A) (A) (A) (A) (A) (A) (A)
                 (A) (A) (A) (A) (A) (A) (A) (A) (A) (A) (A) (A)
                 (A) (A) (A) (A) (A) (A) (A) (A) (A) (A) (A) (A)
                 (A) (A) (A) (A) (A) (A) (A) (A) (A) (A) (A) (A)
                 (A) (A) (A) (A) (A) (A) (A) (A) (A) (A) (A) (A)
                 (A) (A) (A) (A) (A) (A) (A) (A) (A) (A) (A) (A)
                 (A) (A) (A) (A) (A) (A) (A) (A) (A) (A) (A) (A)
                 (A) (A) (A) (A) (A) (A) (A) (A) (A) (A) (A) (A)
                 (A) (A) (A) (A) (A) (A) (A) (A) (A) (A) (A) (A)
                 (A) (A) (A) (A) (A) (A) (A) (A) (A) (A) (A) (A)
                 (A) (A) (A) (A) (A) (A) (A) (A) (A) (A) (A) (A)
                 (A) (A) (A) (A) (A) (A) (A) (A) (A) (A) (A) (A)
                 (A) (A) (A) (A) (A) (A) (A) (A) (A) (A) (A) (A)
                 (A) (A) (A) (A) (A) (A) (A) (A) (A) (A) (A) (A)
                 (A) (A) (A) (A) (A) (A) (A) (A) (A) (A) (A) (A)
                 (A) (A) (A) (A) (A) (A) (A) (A) (A) (A) (A) (A)
                 (A) (A) (A) (A) (A) (A) (A) (A) (A) (A) (A) (A)
                 (A) (A) (A) (A) (A) (A) (A) (A) (A) (A) (A) (A)
                 (A) (A) (A) (A) (A) (A) (A) (A) (A) (A) (A) (A)
                 (A) (A) (A) (A) (A) (A) (A) (A) (A) (A) (A) (A)
                 (A) (A) (A) (A) (A) (A) (A) (A) (A) (A) (A) (A)
                 (A) (A) (A) (A) (A) (A) (A) (A) (A) (A) (A) (A)
                 (A) (A) (A) (A) (A) (A) (A) (A) (A) (A) (A) (A)
                 (A) (A) (A) (A) (A) (A) (A) (A) (A) (A) (A) (A)
                 (A) (A) (A) (A) (A) (A) (A) (A) (A) (A) (A) (A)
                 (A) (A) (A) (A) (A) (A) (A) (A) (A) (A) (A) (A)
                 (A) (A) (A) (A) (A) (A) (A) (A) (A) (A) (A) (A)
                 (A) (A) (A) (A) (A) (A) (A) (A) (A) (A) (A) (A)
                 (A) (A) (A) (A) (A) (A) (A) (A) (A) (A) (A) (A)
                 (A) (A) (A) (A) (A) (A) (A) (A) (A) (A) (A) (A)
                 (A) (A) (A) (A) (A) (A) (A) (A) (A) (A) (A) (A)
                 (A) (A) (A) (A) (A) (A) (A) (A) (A) (A) (A) (A)
                 (A) (A) (A) (A) (A) (A) (A) (A) (A) (A) (A) (A)
                 (A) (A) (A) (A) (A) (A) (A) (A) (A) (A) (A) (A)
                 (A) (A) (A) (A) (A) (A) (A) (A) (A) (A) (A) (A)
                 (A) (A) (A) (A) (A) (A) (A) (A) (A) (A) (A) (A)
                 (A) (A) (A) (A) (A) (A) (A) (A) (A) (A) (A) (A)
                 (A) (A) (A) (A) (A) (A) (A) (A) (A) (A) (A) (A)
                 (A) (A) (A) (A) (A) (A) (A) (A) (A) (A) (A) (A)
                 (A) (A) (A) (A) (A) (A) (A) (A) (A) (A) (A) (A)
                 (A) (A) (A) (A) (A) (A) (A) (A) (A) (A) (A) (A)
                 (A) (A) (A) (A) (A) (A) (A) (A) (A) (A) (A) (A)
                 (A) (A) (A) (A) (A) (A) (A) (A) (A) (A) (A) (A)
                 (A) (A) (A) (A) (A) (A) (A) (A) (A) (A) (A) (A)
                 (A) (A) (A) (A) (A) (A) (A) (A) (A) (A) (A) (A)
                 (A) (A) (A) (A) (A) (A) (A) (A) (A) (A) (A) (A)
                 (A) (A) (A) (A) (A) (A) (A) (A) (A) (A)
 The electronic state is 1-A.
 Alpha  occ. eigenvalues --  -67.01669 -19.67082 -19.61958 -19.61366 -10.68071
 Alpha  occ. eigenvalues --  -10.62167 -10.60738 -10.55842 -10.55499 -10.54821
 Alpha  occ. eigenvalues --  -10.54645 -10.53623 -10.53440 -10.53413 -10.52202
 Alpha  occ. eigenvalues --  -10.51291 -10.50824 -10.50650  -5.55118  -3.86306
 Alpha  occ. eigenvalues --   -3.86165  -3.86141  -1.22716  -1.13955  -1.13191
 Alpha  occ. eigenvalues --   -0.93438  -0.90364  -0.88230  -0.84916  -0.80774
 Alpha  occ. eigenvalues --   -0.79823  -0.78498  -0.76942  -0.76638  -0.73732
 Alpha  occ. eigenvalues --   -0.70702  -0.67780  -0.64196  -0.61312  -0.59920
 Alpha  occ. eigenvalues --   -0.58353  -0.57143  -0.55406  -0.54714  -0.52771
 Alpha  occ. eigenvalues --   -0.52212  -0.50439  -0.49762  -0.49015  -0.48532
 Alpha  occ. eigenvalues --   -0.47940  -0.47722  -0.47539  -0.46796  -0.46336
 Alpha  occ. eigenvalues --   -0.45980  -0.45454  -0.45022  -0.44476  -0.44341
 Alpha  occ. eigenvalues --   -0.44001  -0.43228  -0.41902  -0.41482  -0.40820
 Alpha  occ. eigenvalues --   -0.40430  -0.39322  -0.38282  -0.36929  -0.35837
 Alpha  occ. eigenvalues --   -0.35304  -0.34473  -0.33803  -0.31839
 Alpha virt. eigenvalues --    0.03328   0.03803   0.04936   0.06745   0.07457
 Alpha virt. eigenvalues --    0.08249   0.09022   0.09702   0.10189   0.10238
 Alpha virt. eigenvalues --    0.10610   0.10659   0.11608   0.12360   0.13128
 Alpha virt. eigenvalues --    0.13366   0.13621   0.14056   0.14529   0.15080
 Alpha virt. eigenvalues --    0.15386   0.16130   0.16273   0.16411   0.16634
 Alpha virt. eigenvalues --    0.16983   0.17447   0.17589   0.17806   0.18215
 Alpha virt. eigenvalues --    0.19201   0.19484   0.20114   0.20320   0.20961
 Alpha virt. eigenvalues --    0.21250   0.22393   0.22523   0.22792   0.23335
 Alpha virt. eigenvalues --    0.23977   0.24237   0.24494   0.25367   0.25870
 Alpha virt. eigenvalues --    0.26400   0.26992   0.27258   0.27788   0.28081
 Alpha virt. eigenvalues --    0.29204   0.29944   0.30251   0.30723   0.31257
 Alpha virt. eigenvalues --    0.31870   0.32322   0.32638   0.33045   0.33355
 Alpha virt. eigenvalues --    0.34504   0.34850   0.35741   0.36704   0.37038
 Alpha virt. eigenvalues --    0.37724   0.38339   0.38546   0.38927   0.39070
 Alpha virt. eigenvalues --    0.39389   0.40650   0.41342   0.41583   0.41704
 Alpha virt. eigenvalues --    0.42340   0.42688   0.43021   0.43823   0.44741
 Alpha virt. eigenvalues --    0.45038   0.45399   0.45710   0.46027   0.46698
 Alpha virt. eigenvalues --    0.46947   0.47506   0.47695   0.47754   0.48252
 Alpha virt. eigenvalues --    0.48704   0.48977   0.49419   0.49658   0.50232
 Alpha virt. eigenvalues --    0.50497   0.50826   0.51393   0.51623   0.52016
 Alpha virt. eigenvalues --    0.52213   0.52584   0.53033   0.53299   0.54337
 Alpha virt. eigenvalues --    0.54761   0.55123   0.55466   0.56253   0.56636
 Alpha virt. eigenvalues --    0.57119   0.57831   0.58140   0.58632   0.59127
 Alpha virt. eigenvalues --    0.59841   0.60773   0.60958   0.61667   0.62253
 Alpha virt. eigenvalues --    0.62860   0.63379   0.64540   0.65200   0.66088
 Alpha virt. eigenvalues --    0.66501   0.66732   0.68199   0.69151   0.69620
 Alpha virt. eigenvalues --    0.70412   0.70689   0.71839   0.72808   0.73281
 Alpha virt. eigenvalues --    0.73930   0.75005   0.76028   0.77125   0.77210
 Alpha virt. eigenvalues --    0.79088   0.79876   0.80411   0.81096   0.81542
 Alpha virt. eigenvalues --    0.82272   0.83184   0.84381   0.85497   0.86635
 Alpha virt. eigenvalues --    0.87597   0.88796   0.88817   0.89747   0.90743
 Alpha virt. eigenvalues --    0.91674   0.92216   0.92647   0.93567   0.94393
 Alpha virt. eigenvalues --    0.94855   0.95889   0.96234   0.97161   0.97442
 Alpha virt. eigenvalues --    0.98180   0.99005   0.99616   1.01281   1.01605
 Alpha virt. eigenvalues --    1.02669   1.02996   1.03994   1.04843   1.05012
 Alpha virt. eigenvalues --    1.05564   1.05873   1.07119   1.07389   1.07806
 Alpha virt. eigenvalues --    1.08348   1.08400   1.09450   1.10708   1.11467
 Alpha virt. eigenvalues --    1.12353   1.12629   1.13812   1.15208   1.15706
 Alpha virt. eigenvalues --    1.16620   1.17488   1.18007   1.18867   1.20186
 Alpha virt. eigenvalues --    1.21752   1.22330   1.23270   1.23876   1.24809
 Alpha virt. eigenvalues --    1.26562   1.27573   1.28251   1.28741   1.29760
 Alpha virt. eigenvalues --    1.30295   1.30988   1.31716   1.32409   1.33053
 Alpha virt. eigenvalues --    1.33877   1.35290   1.36486   1.37252   1.38484
 Alpha virt. eigenvalues --    1.39354   1.40824   1.41057   1.42054   1.42366
 Alpha virt. eigenvalues --    1.43003   1.44646   1.45534   1.45737   1.47633
 Alpha virt. eigenvalues --    1.48904   1.49594   1.50467   1.51296   1.52375
 Alpha virt. eigenvalues --    1.53816   1.55043   1.56127   1.56577   1.57220
 Alpha virt. eigenvalues --    1.57587   1.58285   1.58399   1.59144   1.59527
 Alpha virt. eigenvalues --    1.60444   1.60512   1.61396   1.61847   1.62289
 Alpha virt. eigenvalues --    1.62600   1.63591   1.63863   1.64675   1.64988
 Alpha virt. eigenvalues --    1.65349   1.66075   1.66483   1.67233   1.67469
 Alpha virt. eigenvalues --    1.67753   1.68667   1.69272   1.69947   1.70434
 Alpha virt. eigenvalues --    1.70961   1.71214   1.71527   1.73524   1.73945
 Alpha virt. eigenvalues --    1.75560   1.75660   1.76562   1.77938   1.78904
 Alpha virt. eigenvalues --    1.79633   1.80337   1.81541   1.83342   1.83604
 Alpha virt. eigenvalues --    1.84801   1.85547   1.87058   1.87789   1.88050
 Alpha virt. eigenvalues --    1.88563   1.89303   1.90528   1.92433   1.93143
 Alpha virt. eigenvalues --    1.94002   1.94970   1.96252   1.97201   1.98483
 Alpha virt. eigenvalues --    1.99431   2.00507   2.01095   2.02520   2.02805
 Alpha virt. eigenvalues --    2.03656   2.05148   2.06280   2.07133   2.07299
 Alpha virt. eigenvalues --    2.07894   2.08493   2.08972   2.09730   2.11017
 Alpha virt. eigenvalues --    2.11284   2.12400   2.13427   2.13974   2.14490
 Alpha virt. eigenvalues --    2.15511   2.16813   2.17064   2.17651   2.20330
 Alpha virt. eigenvalues --    2.21564   2.21632   2.22315   2.22962   2.23811
 Alpha virt. eigenvalues --    2.24328   2.25599   2.26663   2.27945   2.28962
 Alpha virt. eigenvalues --    2.29965   2.31167   2.31509   2.32055   2.33506
 Alpha virt. eigenvalues --    2.33819   2.34943   2.34998   2.36296   2.36869
 Alpha virt. eigenvalues --    2.37037   2.38296   2.38803   2.39375   2.39430
 Alpha virt. eigenvalues --    2.40372   2.41413   2.41951   2.42158   2.42798
 Alpha virt. eigenvalues --    2.43033   2.43256   2.43938   2.44567   2.44968
 Alpha virt. eigenvalues --    2.45457   2.46463   2.47793   2.49351   2.49597
 Alpha virt. eigenvalues --    2.50417   2.51674   2.51988   2.52900   2.55078
 Alpha virt. eigenvalues --    2.55302   2.56721   2.57587   2.58077   2.58702
 Alpha virt. eigenvalues --    2.58990   2.59256   2.60185   2.60555   2.61232
 Alpha virt. eigenvalues --    2.62281   2.62832   2.63287   2.63603   2.64224
 Alpha virt. eigenvalues --    2.64885   2.66126   2.66321   2.66754   2.67679
 Alpha virt. eigenvalues --    2.68558   2.68897   2.69639   2.69676   2.71353
 Alpha virt. eigenvalues --    2.72584   2.72947   2.73236   2.74239   2.74337
 Alpha virt. eigenvalues --    2.75018   2.77309   2.78099   2.78383   2.79642
 Alpha virt. eigenvalues --    2.80068   2.80501   2.81187   2.83144   2.83758
 Alpha virt. eigenvalues --    2.84614   2.86650   2.86999   2.87417   2.89080
 Alpha virt. eigenvalues --    2.89786   2.90073   2.90859   2.93349   2.93966
 Alpha virt. eigenvalues --    2.95632   2.97383   2.98603   2.99685   3.00142
 Alpha virt. eigenvalues --    3.01616   3.03122   3.03382   3.04554   3.06222
 Alpha virt. eigenvalues --    3.07363   3.07809   3.08078   3.09465   3.09840
 Alpha virt. eigenvalues --    3.11167   3.11626   3.13341   3.13870   3.14501
 Alpha virt. eigenvalues --    3.14542   3.15204   3.15608   3.16600   3.16880
 Alpha virt. eigenvalues --    3.17439   3.18674   3.19074   3.19877   3.21055
 Alpha virt. eigenvalues --    3.21307   3.21951   3.22441   3.23009   3.24055
 Alpha virt. eigenvalues --    3.24770   3.24965   3.26004   3.26202   3.27584
 Alpha virt. eigenvalues --    3.27773   3.28720   3.29339   3.29834   3.30163
 Alpha virt. eigenvalues --    3.30428   3.31073   3.32086   3.32643   3.32818
 Alpha virt. eigenvalues --    3.33343   3.34240   3.35141   3.35977   3.36505
 Alpha virt. eigenvalues --    3.36877   3.37055   3.37907   3.38321   3.39045
 Alpha virt. eigenvalues --    3.39201   3.40917   3.41394   3.42465   3.42628
 Alpha virt. eigenvalues --    3.43293   3.43776   3.44613   3.44881   3.45743
 Alpha virt. eigenvalues --    3.46404   3.47151   3.48623   3.50113   3.50671
 Alpha virt. eigenvalues --    3.51773   3.52003   3.53163   3.54210   3.54986
 Alpha virt. eigenvalues --    3.55438   3.56905   3.57640   3.58325   3.59047
 Alpha virt. eigenvalues --    3.59244   3.60526   3.60631   3.61636   3.62118
 Alpha virt. eigenvalues --    3.64172   3.64877   3.65383   3.66022   3.66490
 Alpha virt. eigenvalues --    3.67468   3.67615   3.68394   3.68907   3.70156
 Alpha virt. eigenvalues --    3.71037   3.71749   3.73621   3.75138   3.75540
 Alpha virt. eigenvalues --    3.78113   3.79669   3.81410   3.82836   3.84886
 Alpha virt. eigenvalues --    3.87575   3.88151   3.90124   3.91196   3.94042
 Alpha virt. eigenvalues --    3.94550   3.95031   3.96903   3.97628   3.99770
 Alpha virt. eigenvalues --    4.00829   4.03252   4.06893   4.07131   4.10146
 Alpha virt. eigenvalues --    4.11594   4.12136   4.14930   4.17831   4.18302
 Alpha virt. eigenvalues --    4.19451   4.22725   4.24869   4.25244   4.26880
 Alpha virt. eigenvalues --    4.27425   4.27811   4.28323   4.29258   4.29993
 Alpha virt. eigenvalues --    4.30672   4.32173   4.32725   4.34230   4.36927
 Alpha virt. eigenvalues --    4.37072   4.37456   4.39117   4.39446   4.40079
 Alpha virt. eigenvalues --    4.42570   4.43108   4.44262   4.47401   4.49831
 Alpha virt. eigenvalues --    4.51286   4.55029   4.56919   4.57147   4.58454
 Alpha virt. eigenvalues --    4.61058   4.62845   4.64567   4.68791   4.69152
 Alpha virt. eigenvalues --    4.71693   4.75190   4.76702   4.81118   4.82565
 Alpha virt. eigenvalues --    4.87974   4.90659   4.92732   4.96077   4.99697
 Alpha virt. eigenvalues --    5.01952   5.04577   5.14595   5.19297   5.22271
 Alpha virt. eigenvalues --    5.25252   5.26520   5.26810   5.28254   5.35720
 Alpha virt. eigenvalues --    5.48267   5.49807   5.53281   5.60689   5.82792
 Alpha virt. eigenvalues --    5.85523   5.86418   5.88244   5.93285   6.02151
 Alpha virt. eigenvalues --    6.12571   6.17841   6.24325   6.36814   6.39461
 Alpha virt. eigenvalues --    6.51888   6.60923   6.64099   6.64994   6.68146
 Alpha virt. eigenvalues --    6.71871   6.75829   6.83541   6.87996   6.89343
 Alpha virt. eigenvalues --    6.94965   6.97566   7.04958   7.06460   7.15875
 Alpha virt. eigenvalues --    7.19524   7.34830   7.42112  12.18201  22.31230
 Alpha virt. eigenvalues --   22.38224  22.43537  22.44746  22.45435  22.52899
 Alpha virt. eigenvalues --   22.60775  22.67342  22.70663  22.73326  22.81548
 Alpha virt. eigenvalues --   22.86657  22.89610  23.47182  44.12312  44.48449
 Alpha virt. eigenvalues --   44.56802
          Condensed to atoms (all electrons):
               1          2          3          4          5          6
     1  C    5.332023   0.109210  -0.004086  -0.018123  -0.024168   0.472715
     2  C    0.109210   5.714385   0.035681   0.038855  -0.027726  -0.064445
     3  C   -0.004086   0.035681   5.807950  -0.228315   0.067964   0.010894
     4  C   -0.018123   0.038855  -0.228315   6.163992   0.086096  -0.005915
     5  C   -0.024168  -0.027726   0.067964   0.086096   4.505063  -0.000288
     6  H    0.472715  -0.064445   0.010894  -0.005915  -0.000288   0.524463
     7  H   -0.048564   0.453238  -0.044725   0.007878   0.000616   0.002215
     8  H   -0.000106   0.011626  -0.007518   0.372191  -0.023737   0.000079
     9  H    0.005400  -0.026767  -0.020429   0.405307  -0.023050   0.000256
    10  O    0.133436   0.004091   0.035415  -0.163114   0.387833  -0.037107
    11  O    0.002229   0.000224   0.016591  -0.142609   0.705603   0.000009
    12  C    0.179781  -0.006245  -0.002117  -0.004629  -0.001680  -0.061282
    13  C   -0.052279   0.012259  -0.001819   0.000878  -0.000064  -0.009354
    14  C   -0.048301   0.195420  -0.031876   0.011484  -0.002335  -0.006603
    15  O    0.028037  -0.094964   0.159128  -0.036620   0.012944  -0.000408
    16  Si  -0.000240   0.006323  -0.061919   0.017743  -0.006196   0.000122
    17  C   -0.000037  -0.001097   0.017161  -0.013295   0.000938  -0.000001
    18  C   -0.000179  -0.000435  -0.007551   0.015690  -0.002300  -0.000010
    19  C    0.000350   0.000340   0.000597  -0.001071   0.000365  -0.000001
    20  H   -0.000107   0.000005   0.002753  -0.003091   0.000751  -0.000002
    21  H    0.000039  -0.000012   0.000042  -0.000342   0.000255   0.000000
    22  H    0.000576   0.000065  -0.005541  -0.000523   0.004907  -0.000006
    23  H   -0.000020  -0.000012  -0.000001   0.000043  -0.000024   0.000000
    24  H   -0.000098   0.000193  -0.000127   0.000053   0.000009   0.000001
    25  H   -0.000037   0.000159   0.000632   0.000066  -0.000020   0.000000
    26  H   -0.000002   0.000036  -0.000629   0.000286  -0.000045   0.000000
    27  H   -0.000010  -0.000197  -0.003987   0.001327  -0.000057   0.000000
    28  H    0.000031   0.000098   0.006264  -0.003938   0.000189   0.000001
    29  H   -0.008695  -0.044768   0.013231  -0.001334   0.000113   0.001980
    30  H   -0.008938  -0.022173  -0.016123   0.013565  -0.003202  -0.001425
    31  H    0.011921  -0.053110  -0.018500  -0.004752   0.000218   0.000427
    32  H   -0.024192  -0.003124   0.007093  -0.002289   0.000434   0.005192
    33  H   -0.057615  -0.002198   0.001756  -0.000564   0.000373   0.001477
    34  H    0.013622  -0.000841  -0.000040   0.000067  -0.000019  -0.000209
    35  H   -0.017957  -0.000641   0.000027   0.000418   0.001042   0.001598
    36  H    0.004374   0.000698   0.000083  -0.000046  -0.000165   0.001959
    37  C    0.018460  -0.088616   0.158197  -0.053084  -0.001695  -0.000077
    38  C   -0.002836   0.009256  -0.017944   0.006351   0.000020  -0.000080
    39  C   -0.000466   0.003542  -0.006754   0.000018  -0.000044  -0.000010
    40  H   -0.000403   0.014583  -0.066746  -0.003215  -0.000782   0.000005
    41  H   -0.001212  -0.015720  -0.015734  -0.001879  -0.000419   0.000009
    42  H   -0.000730  -0.003544   0.004007   0.000308  -0.000070   0.000001
    43  H    0.000011  -0.000026  -0.000190   0.000028   0.000000   0.000000
    44  H   -0.000046  -0.000330  -0.001167   0.000021  -0.000001   0.000001
               7          8          9         10         11         12
     1  C   -0.048564  -0.000106   0.005400   0.133436   0.002229   0.179781
     2  C    0.453238   0.011626  -0.026767   0.004091   0.000224  -0.006245
     3  C   -0.044725  -0.007518  -0.020429   0.035415   0.016591  -0.002117
     4  C    0.007878   0.372191   0.405307  -0.163114  -0.142609  -0.004629
     5  C    0.000616  -0.023737  -0.023050   0.387833   0.705603  -0.001680
     6  H    0.002215   0.000079   0.000256  -0.037107   0.000009  -0.061282
     7  H    0.485450  -0.000001  -0.000315   0.002455   0.000015  -0.005127
     8  H   -0.000001   0.451518  -0.006234   0.006221   0.008922  -0.000008
     9  H   -0.000315  -0.006234   0.454601   0.002042   0.002879  -0.000150
    10  O    0.002455   0.006221   0.002042   7.998846  -0.100698  -0.021546
    11  O    0.000015   0.008922   0.002879  -0.100698   7.887450  -0.001120
    12  C   -0.005127  -0.000008  -0.000150  -0.021546  -0.001120   5.220918
    13  C    0.000327  -0.000014  -0.000013  -0.005250   0.000129   0.259325
    14  C   -0.029897  -0.000184  -0.002680  -0.002528   0.000187   0.005155
    15  O    0.002671  -0.003771   0.003729  -0.006565   0.000181  -0.011131
    16  Si  -0.000497   0.003730  -0.000326   0.001047  -0.000763   0.001981
    17  C    0.000068  -0.000866   0.000060   0.000000   0.000040  -0.000070
    18  C    0.000072  -0.005796   0.000289   0.000206  -0.007128  -0.000690
    19  C   -0.000049   0.000394   0.000000  -0.000003  -0.000012  -0.001139
    20  H   -0.000019   0.000219  -0.000013   0.000162  -0.000177  -0.000448
    21  H   -0.000002   0.000149  -0.000002  -0.000004   0.000158  -0.000025
    22  H   -0.000006   0.000309   0.000317  -0.000533   0.007744  -0.000108
    23  H    0.000007  -0.000008  -0.000001   0.000001   0.000000   0.000031
    24  H   -0.000004  -0.000016   0.000000   0.000011  -0.000001  -0.000324
    25  H   -0.000009  -0.000009   0.000000   0.000001   0.000000   0.000096
    26  H    0.000000   0.000030   0.000000   0.000001  -0.000002   0.000002
    27  H   -0.000001  -0.000399  -0.000002   0.000001   0.000000   0.000006
    28  H   -0.000003   0.003264  -0.000009  -0.000007  -0.000093  -0.000008
    29  H   -0.005393   0.000017   0.000345   0.000284   0.000000  -0.000332
    30  H    0.005883   0.000380  -0.004523   0.002844  -0.000017   0.000347
    31  H   -0.004405  -0.000061   0.000493  -0.000232   0.000000  -0.000617
    32  H    0.000829   0.000074  -0.000006  -0.005997   0.000040   0.404193
    33  H   -0.003481  -0.000002   0.000010   0.004886   0.000000   0.436519
    34  H   -0.000029   0.000000   0.000000   0.000182   0.000002  -0.051707
    35  H   -0.000072  -0.000009  -0.000002   0.007301   0.000269  -0.029709
    36  H    0.000042   0.000000   0.000001  -0.000906   0.000000  -0.051581
    37  C   -0.021095  -0.019999  -0.005902  -0.003939  -0.001440  -0.002162
    38  C    0.007297   0.000955  -0.000776   0.000228   0.000040   0.000781
    39  C    0.001634   0.000015  -0.000083   0.000002   0.000000   0.000076
    40  H   -0.000164   0.003713  -0.000601   0.000028  -0.000010   0.000009
    41  H    0.000821   0.000227   0.000994   0.000038   0.000003   0.000039
    42  H    0.000205   0.000006  -0.000043   0.000004   0.000000   0.000180
    43  H    0.000023   0.000000   0.000002   0.000000   0.000000  -0.000001
    44  H    0.000104   0.000005  -0.000022   0.000000   0.000000   0.000001
              13         14         15         16         17         18
     1  C   -0.052279  -0.048301   0.028037  -0.000240  -0.000037  -0.000179
     2  C    0.012259   0.195420  -0.094964   0.006323  -0.001097  -0.000435
     3  C   -0.001819  -0.031876   0.159128  -0.061919   0.017161  -0.007551
     4  C    0.000878   0.011484  -0.036620   0.017743  -0.013295   0.015690
     5  C   -0.000064  -0.002335   0.012944  -0.006196   0.000938  -0.002300
     6  H   -0.009354  -0.006603  -0.000408   0.000122  -0.000001  -0.000010
     7  H    0.000327  -0.029897   0.002671  -0.000497   0.000068   0.000072
     8  H   -0.000014  -0.000184  -0.003771   0.003730  -0.000866  -0.005796
     9  H   -0.000013  -0.002680   0.003729  -0.000326   0.000060   0.000289
    10  O   -0.005250  -0.002528  -0.006565   0.001047   0.000000   0.000206
    11  O    0.000129   0.000187   0.000181  -0.000763   0.000040  -0.007128
    12  C    0.259325   0.005155  -0.011131   0.001981  -0.000070  -0.000690
    13  C    5.061771  -0.000351   0.001638   0.000436   0.000008   0.000059
    14  C   -0.000351   5.131358   0.007143  -0.000778   0.000088   0.000050
    15  O    0.001638   0.007143   8.114964   0.336940  -0.021651  -0.019638
    16  Si   0.000436  -0.000778   0.336940  12.538340   0.331712   0.346258
    17  C    0.000008   0.000088  -0.021651   0.331712   5.190848  -0.042901
    18  C    0.000059   0.000050  -0.019638   0.346258  -0.042901   5.141899
    19  C   -0.000037   0.000002  -0.011375   0.374157  -0.045121  -0.045664
    20  H   -0.000090   0.000001  -0.000313  -0.039414   0.003316   0.392332
    21  H   -0.000005   0.000000   0.001320  -0.032908   0.000414   0.388779
    22  H    0.000043  -0.000008   0.001697  -0.033442   0.000551   0.388280
    23  H    0.000004   0.000000   0.001433  -0.049131   0.003148   0.003193
    24  H    0.000060   0.000005   0.000068  -0.032288   0.002891   0.000830
    25  H   -0.000005   0.000000  -0.000310  -0.032525   0.000833   0.002792
    26  H    0.000000  -0.000001   0.001094  -0.026562   0.386488   0.000547
    27  H    0.000000   0.000003   0.000292  -0.040418   0.396025   0.003491
    28  H    0.000000  -0.000015   0.000737  -0.037171   0.394258   0.001424
    29  H   -0.000068   0.422102  -0.000302   0.000010  -0.000001  -0.000001
    30  H   -0.000046   0.409987   0.000081  -0.000016  -0.000002  -0.000003
    31  H    0.000025   0.430484  -0.000044   0.000039   0.000001  -0.000001
    32  H   -0.045316   0.000000  -0.004030  -0.004002  -0.000022  -0.001556
    33  H   -0.035512  -0.000212  -0.000576   0.000119   0.000006  -0.000008
    34  H    0.422869   0.000019  -0.000019   0.000052   0.000000   0.000002
    35  H    0.417508  -0.000061   0.000050   0.000113   0.000001   0.000060
    36  H    0.411216   0.000054  -0.000056  -0.000050   0.000000   0.000001
    37  C    0.000045   0.023048  -0.081889  -0.001910   0.000561   0.000371
    38  C    0.000005  -0.012217   0.012837  -0.000529  -0.001604   0.000083
    39  C   -0.000001  -0.005483   0.003043  -0.000012  -0.000132   0.000009
    40  H   -0.000002  -0.000668  -0.006121  -0.005690  -0.003384  -0.000047
    41  H   -0.000002  -0.004762   0.004479   0.000574  -0.000233   0.000035
    42  H   -0.000001   0.000292   0.006195  -0.001512  -0.000041   0.000160
    43  H    0.000000   0.000014  -0.000007   0.000022  -0.000002   0.000000
    44  H    0.000000  -0.000506  -0.000016  -0.000002  -0.000007   0.000000
              19         20         21         22         23         24
     1  C    0.000350  -0.000107   0.000039   0.000576  -0.000020  -0.000098
     2  C    0.000340   0.000005  -0.000012   0.000065  -0.000012   0.000193
     3  C    0.000597   0.002753   0.000042  -0.005541  -0.000001  -0.000127
     4  C   -0.001071  -0.003091  -0.000342  -0.000523   0.000043   0.000053
     5  C    0.000365   0.000751   0.000255   0.004907  -0.000024   0.000009
     6  H   -0.000001  -0.000002   0.000000  -0.000006   0.000000   0.000001
     7  H   -0.000049  -0.000019  -0.000002  -0.000006   0.000007  -0.000004
     8  H    0.000394   0.000219   0.000149   0.000309  -0.000008  -0.000016
     9  H    0.000000  -0.000013  -0.000002   0.000317  -0.000001   0.000000
    10  O   -0.000003   0.000162  -0.000004  -0.000533   0.000001   0.000011
    11  O   -0.000012  -0.000177   0.000158   0.007744   0.000000  -0.000001
    12  C   -0.001139  -0.000448  -0.000025  -0.000108   0.000031  -0.000324
    13  C   -0.000037  -0.000090  -0.000005   0.000043   0.000004   0.000060
    14  C    0.000002   0.000001   0.000000  -0.000008   0.000000   0.000005
    15  O   -0.011375  -0.000313   0.001320   0.001697   0.001433   0.000068
    16  Si   0.374157  -0.039414  -0.032908  -0.033442  -0.049131  -0.032288
    17  C   -0.045121   0.003316   0.000414   0.000551   0.003148   0.002891
    18  C   -0.045664   0.392332   0.388779   0.388280   0.003193   0.000830
    19  C    5.088741   0.001784   0.001674   0.002412   0.399916   0.390349
    20  H    0.001784   0.509000  -0.016115  -0.016756   0.000166   0.000809
    21  H    0.001674  -0.016115   0.508364  -0.016716  -0.000065   0.000161
    22  H    0.002412  -0.016756  -0.016716   0.497982  -0.000127  -0.000135
    23  H    0.399916   0.000166  -0.000065  -0.000127   0.523129  -0.018417
    24  H    0.390349   0.000809   0.000161  -0.000135  -0.018417   0.514573
    25  H    0.391098  -0.000164  -0.000113  -0.000083  -0.020091  -0.017778
    26  H   -0.000050  -0.000125   0.000368   0.000136   0.000250  -0.000102
    27  H    0.000406  -0.000098  -0.000159  -0.000184   0.000170  -0.000179
    28  H    0.003268  -0.000208   0.000116   0.000401  -0.000192  -0.000090
    29  H   -0.000001   0.000000   0.000000   0.000000   0.000000   0.000000
    30  H    0.000000   0.000000   0.000000   0.000000   0.000000   0.000000
    31  H    0.000001   0.000000   0.000000   0.000000   0.000000   0.000000
    32  H    0.000994   0.000371   0.000060   0.000125  -0.000003   0.000643
    33  H    0.000036   0.000041   0.000001  -0.000014  -0.000002   0.000057
    34  H   -0.000005   0.000009   0.000000   0.000001   0.000000   0.000019
    35  H   -0.000005   0.000122   0.000003  -0.000044   0.000000   0.000008
    36  H    0.000002   0.000003   0.000000  -0.000001   0.000000  -0.000003
    37  C   -0.000054  -0.000078   0.000013   0.000245  -0.000043   0.000035
    38  C   -0.000543   0.000017  -0.000006  -0.000041   0.000028   0.000064
    39  C    0.000008   0.000000   0.000000   0.000000   0.000003   0.000001
    40  H    0.000427   0.000002  -0.000001  -0.000078  -0.000014  -0.000012
    41  H   -0.000012  -0.000001  -0.000001   0.000007   0.000000   0.000000
    42  H   -0.000509  -0.000003  -0.000005  -0.000006   0.000077  -0.000082
    43  H   -0.000002   0.000000   0.000000   0.000000   0.000000   0.000000
    44  H    0.000000   0.000000   0.000000   0.000000   0.000000   0.000000
              25         26         27         28         29         30
     1  C   -0.000037  -0.000002  -0.000010   0.000031  -0.008695  -0.008938
     2  C    0.000159   0.000036  -0.000197   0.000098  -0.044768  -0.022173
     3  C    0.000632  -0.000629  -0.003987   0.006264   0.013231  -0.016123
     4  C    0.000066   0.000286   0.001327  -0.003938  -0.001334   0.013565
     5  C   -0.000020  -0.000045  -0.000057   0.000189   0.000113  -0.003202
     6  H    0.000000   0.000000   0.000000   0.000001   0.001980  -0.001425
     7  H   -0.000009   0.000000  -0.000001  -0.000003  -0.005393   0.005883
     8  H   -0.000009   0.000030  -0.000399   0.003264   0.000017   0.000380
     9  H    0.000000   0.000000  -0.000002  -0.000009   0.000345  -0.004523
    10  O    0.000001   0.000001   0.000001  -0.000007   0.000284   0.002844
    11  O    0.000000  -0.000002   0.000000  -0.000093   0.000000  -0.000017
    12  C    0.000096   0.000002   0.000006  -0.000008  -0.000332   0.000347
    13  C   -0.000005   0.000000   0.000000   0.000000  -0.000068  -0.000046
    14  C    0.000000  -0.000001   0.000003  -0.000015   0.422102   0.409987
    15  O   -0.000310   0.001094   0.000292   0.000737  -0.000302   0.000081
    16  Si  -0.032525  -0.026562  -0.040418  -0.037171   0.000010  -0.000016
    17  C    0.000833   0.386488   0.396025   0.394258  -0.000001  -0.000002
    18  C    0.002792   0.000547   0.003491   0.001424  -0.000001  -0.000003
    19  C    0.391098  -0.000050   0.000406   0.003268  -0.000001   0.000000
    20  H   -0.000164  -0.000125  -0.000098  -0.000208   0.000000   0.000000
    21  H   -0.000113   0.000368  -0.000159   0.000116   0.000000   0.000000
    22  H   -0.000083   0.000136  -0.000184   0.000401   0.000000   0.000000
    23  H   -0.020091   0.000250   0.000170  -0.000192   0.000000   0.000000
    24  H   -0.017778  -0.000102  -0.000179  -0.000090   0.000000   0.000000
    25  H    0.518239   0.000290   0.000835  -0.000131   0.000000   0.000000
    26  H    0.000290   0.492219  -0.014207  -0.013361   0.000000   0.000000
    27  H    0.000835  -0.014207   0.509941  -0.021773   0.000000   0.000000
    28  H   -0.000131  -0.013361  -0.021773   0.504435   0.000000   0.000000
    29  H    0.000000   0.000000   0.000000   0.000000   0.499038  -0.022312
    30  H    0.000000   0.000000   0.000000   0.000000  -0.022312   0.510482
    31  H    0.000000   0.000000  -0.000001   0.000000  -0.018907  -0.026381
    32  H   -0.000048  -0.000006  -0.000007   0.000006   0.000002   0.000017
    33  H    0.000002   0.000000   0.000000   0.000000   0.000400  -0.000096
    34  H    0.000000   0.000000   0.000000   0.000000   0.000001   0.000000
    35  H    0.000000   0.000000   0.000000   0.000000   0.000003  -0.000010
    36  H    0.000000   0.000000   0.000000   0.000000  -0.000003   0.000006
    37  C   -0.000702   0.000459   0.005090  -0.007085  -0.001233  -0.008728
    38  C    0.000222  -0.000051  -0.001534   0.000940   0.000582   0.000656
    39  C    0.000024   0.000001   0.000253   0.000007   0.000008   0.000372
    40  H    0.000028   0.000762  -0.004659   0.000652   0.000014  -0.000079
    41  H    0.000003   0.000002   0.000174  -0.000049   0.000509   0.000559
    42  H    0.001034  -0.000006  -0.000010   0.000036   0.000014  -0.000014
    43  H   -0.000003   0.000000   0.000005   0.000000  -0.000002   0.000001
    44  H    0.000001   0.000000  -0.000008   0.000002   0.000022   0.000007
              31         32         33         34         35         36
     1  C    0.011921  -0.024192  -0.057615   0.013622  -0.017957   0.004374
     2  C   -0.053110  -0.003124  -0.002198  -0.000841  -0.000641   0.000698
     3  C   -0.018500   0.007093   0.001756  -0.000040   0.000027   0.000083
     4  C   -0.004752  -0.002289  -0.000564   0.000067   0.000418  -0.000046
     5  C    0.000218   0.000434   0.000373  -0.000019   0.001042  -0.000165
     6  H    0.000427   0.005192   0.001477  -0.000209   0.001598   0.001959
     7  H   -0.004405   0.000829  -0.003481  -0.000029  -0.000072   0.000042
     8  H   -0.000061   0.000074  -0.000002   0.000000  -0.000009   0.000000
     9  H    0.000493  -0.000006   0.000010   0.000000  -0.000002   0.000001
    10  O   -0.000232  -0.005997   0.004886   0.000182   0.007301  -0.000906
    11  O    0.000000   0.000040   0.000000   0.000002   0.000269   0.000000
    12  C   -0.000617   0.404193   0.436519  -0.051707  -0.029709  -0.051581
    13  C    0.000025  -0.045316  -0.035512   0.422869   0.417508   0.411216
    14  C    0.430484   0.000000  -0.000212   0.000019  -0.000061   0.000054
    15  O   -0.000044  -0.004030  -0.000576  -0.000019   0.000050  -0.000056
    16  Si   0.000039  -0.004002   0.000119   0.000052   0.000113  -0.000050
    17  C    0.000001  -0.000022   0.000006   0.000000   0.000001   0.000000
    18  C   -0.000001  -0.001556  -0.000008   0.000002   0.000060   0.000001
    19  C    0.000001   0.000994   0.000036  -0.000005  -0.000005   0.000002
    20  H    0.000000   0.000371   0.000041   0.000009   0.000122   0.000003
    21  H    0.000000   0.000060   0.000001   0.000000   0.000003   0.000000
    22  H    0.000000   0.000125  -0.000014   0.000001  -0.000044  -0.000001
    23  H    0.000000  -0.000003  -0.000002   0.000000   0.000000   0.000000
    24  H    0.000000   0.000643   0.000057   0.000019   0.000008  -0.000003
    25  H    0.000000  -0.000048   0.000002   0.000000   0.000000   0.000000
    26  H    0.000000  -0.000006   0.000000   0.000000   0.000000   0.000000
    27  H   -0.000001  -0.000007   0.000000   0.000000   0.000000   0.000000
    28  H    0.000000   0.000006   0.000000   0.000000   0.000000   0.000000
    29  H   -0.018907   0.000002   0.000400   0.000001   0.000003  -0.000003
    30  H   -0.026381   0.000017  -0.000096   0.000000  -0.000010   0.000006
    31  H    0.512483   0.000006   0.000029   0.000000   0.000001   0.000001
    32  H    0.000006   0.553808  -0.026562  -0.005221  -0.005635   0.008631
    33  H    0.000029  -0.026562   0.537422  -0.004684   0.006298  -0.003534
    34  H    0.000000  -0.005221  -0.004684   0.526067  -0.023759  -0.024787
    35  H    0.000001  -0.005635   0.006298  -0.023759   0.514262  -0.026948
    36  H    0.000001   0.008631  -0.003534  -0.024787  -0.026948   0.541027
    37  C    0.017671   0.000236  -0.000016   0.000000   0.000007   0.000002
    38  C    0.000771  -0.000079   0.000118  -0.000001  -0.000001   0.000000
    39  C    0.001601  -0.000018   0.000008   0.000000   0.000000   0.000000
    40  H    0.001002  -0.000023   0.000006   0.000000   0.000000   0.000000
    41  H   -0.009494  -0.000001  -0.000009   0.000000   0.000000   0.000000
    42  H   -0.000030   0.000009  -0.000006   0.000000   0.000000   0.000000
    43  H   -0.000066   0.000000  -0.000001   0.000000   0.000000   0.000000
    44  H    0.000254   0.000000   0.000000   0.000000   0.000000   0.000000
              37         38         39         40         41         42
     1  C    0.018460  -0.002836  -0.000466  -0.000403  -0.001212  -0.000730
     2  C   -0.088616   0.009256   0.003542   0.014583  -0.015720  -0.003544
     3  C    0.158197  -0.017944  -0.006754  -0.066746  -0.015734   0.004007
     4  C   -0.053084   0.006351   0.000018  -0.003215  -0.001879   0.000308
     5  C   -0.001695   0.000020  -0.000044  -0.000782  -0.000419  -0.000070
     6  H   -0.000077  -0.000080  -0.000010   0.000005   0.000009   0.000001
     7  H   -0.021095   0.007297   0.001634  -0.000164   0.000821   0.000205
     8  H   -0.019999   0.000955   0.000015   0.003713   0.000227   0.000006
     9  H   -0.005902  -0.000776  -0.000083  -0.000601   0.000994  -0.000043
    10  O   -0.003939   0.000228   0.000002   0.000028   0.000038   0.000004
    11  O   -0.001440   0.000040   0.000000  -0.000010   0.000003   0.000000
    12  C   -0.002162   0.000781   0.000076   0.000009   0.000039   0.000180
    13  C    0.000045   0.000005  -0.000001  -0.000002  -0.000002  -0.000001
    14  C    0.023048  -0.012217  -0.005483  -0.000668  -0.004762   0.000292
    15  O   -0.081889   0.012837   0.003043  -0.006121   0.004479   0.006195
    16  Si  -0.001910  -0.000529  -0.000012  -0.005690   0.000574  -0.001512
    17  C    0.000561  -0.001604  -0.000132  -0.003384  -0.000233  -0.000041
    18  C    0.000371   0.000083   0.000009  -0.000047   0.000035   0.000160
    19  C   -0.000054  -0.000543   0.000008   0.000427  -0.000012  -0.000509
    20  H   -0.000078   0.000017   0.000000   0.000002  -0.000001  -0.000003
    21  H    0.000013  -0.000006   0.000000  -0.000001  -0.000001  -0.000005
    22  H    0.000245  -0.000041   0.000000  -0.000078   0.000007  -0.000006
    23  H   -0.000043   0.000028   0.000003  -0.000014   0.000000   0.000077
    24  H    0.000035   0.000064   0.000001  -0.000012   0.000000  -0.000082
    25  H   -0.000702   0.000222   0.000024   0.000028   0.000003   0.001034
    26  H    0.000459  -0.000051   0.000001   0.000762   0.000002  -0.000006
    27  H    0.005090  -0.001534   0.000253  -0.004659   0.000174  -0.000010
    28  H   -0.007085   0.000940   0.000007   0.000652  -0.000049   0.000036
    29  H   -0.001233   0.000582   0.000008   0.000014   0.000509   0.000014
    30  H   -0.008728   0.000656   0.000372  -0.000079   0.000559  -0.000014
    31  H    0.017671   0.000771   0.001601   0.001002  -0.009494  -0.000030
    32  H    0.000236  -0.000079  -0.000018  -0.000023  -0.000001   0.000009
    33  H   -0.000016   0.000118   0.000008   0.000006  -0.000009  -0.000006
    34  H    0.000000  -0.000001   0.000000   0.000000   0.000000   0.000000
    35  H    0.000007  -0.000001   0.000000   0.000000   0.000000   0.000000
    36  H    0.000002   0.000000   0.000000   0.000000   0.000000   0.000000
    37  C    5.504826   0.168231  -0.051086   0.452050   0.421957  -0.046901
    38  C    0.168231   5.221877   0.536297  -0.048525  -0.047081   0.407149
    39  C   -0.051086   0.536297   5.006317  -0.005606   0.004761  -0.016948
    40  H    0.452050  -0.048525  -0.005606   0.495481  -0.014025   0.002059
    41  H    0.421957  -0.047081   0.004761  -0.014025   0.477250   0.002610
    42  H   -0.046901   0.407149  -0.016948   0.002059   0.002610   0.475977
    43  H    0.006837  -0.053312   0.427355  -0.000323   0.000166  -0.005899
    44  H    0.004534  -0.069457   0.435383   0.000711   0.000546   0.003946
              43         44
     1  C    0.000011  -0.000046
     2  C   -0.000026  -0.000330
     3  C   -0.000190  -0.001167
     4  C    0.000028   0.000021
     5  C    0.000000  -0.000001
     6  H    0.000000   0.000001
     7  H    0.000023   0.000104
     8  H    0.000000   0.000005
     9  H    0.000002  -0.000022
    10  O    0.000000   0.000000
    11  O    0.000000   0.000000
    12  C   -0.000001   0.000001
    13  C    0.000000   0.000000
    14  C    0.000014  -0.000506
    15  O   -0.000007  -0.000016
    16  Si   0.000022  -0.000002
    17  C   -0.000002  -0.000007
    18  C    0.000000   0.000000
    19  C   -0.000002   0.000000
    20  H    0.000000   0.000000
    21  H    0.000000   0.000000
    22  H    0.000000   0.000000
    23  H    0.000000   0.000000
    24  H    0.000000   0.000000
    25  H   -0.000003   0.000001
    26  H    0.000000   0.000000
    27  H    0.000005  -0.000008
    28  H    0.000000   0.000002
    29  H   -0.000002   0.000022
    30  H    0.000001   0.000007
    31  H   -0.000066   0.000254
    32  H    0.000000   0.000000
    33  H   -0.000001   0.000000
    34  H    0.000000   0.000000
    35  H    0.000000   0.000000
    36  H    0.000000   0.000000
    37  C    0.006837   0.004534
    38  C   -0.053312  -0.069457
    39  C    0.427355   0.435383
    40  H   -0.000323   0.000711
    41  H    0.000166   0.000546
    42  H   -0.005899   0.003946
    43  H    0.499627  -0.022227
    44  H   -0.022227   0.504277
 Mulliken charges:
               1
     1  C    0.007231
     2  C   -0.153293
     3  C    0.218370
     4  C   -0.453917
     5  C    0.342355
     6  H    0.163823
     7  H    0.192010
     8  H    0.204695
     9  H    0.215227
    10  O   -0.239137
    11  O   -0.378646
    12  C   -0.255483
    13  C   -0.438377
    14  C   -0.487429
    15  O   -0.400893
    16  Si   0.448582
    17  C   -0.598952
    18  C   -0.553003
    19  C   -0.551667
    20  H    0.165360
    21  H    0.164565
    22  H    0.168553
    23  H    0.156553
    24  H    0.158811
    25  H    0.155674
    26  H    0.172180
    27  H    0.169873
    28  H    0.168004
    29  H    0.164676
    30  H    0.168901
    31  H    0.159173
    32  H    0.145375
    33  H    0.145528
    34  H    0.148408
    35  H    0.155759
    36  H    0.139978
    37  C   -0.385140
    38  C   -0.118187
    39  C   -0.334095
    40  H    0.189645
    41  H    0.194873
    42  H    0.172092
    43  H    0.147971
    44  H    0.143975
 Sum of Mulliken charges =   0.00000
 Mulliken charges with hydrogens summed into heavy atoms:
               1
     1  C    0.171053
     2  C    0.038716
     3  C    0.218370
     4  C   -0.033994
     5  C    0.342355
    10  O   -0.239137
    11  O   -0.378646
    12  C    0.035420
    13  C    0.005768
    14  C    0.005321
    15  O   -0.400893
    16  Si   0.448582
    17  C   -0.088895
    18  C   -0.054525
    19  C   -0.080628
    37  C   -0.000622
    38  C    0.053905
    39  C   -0.042149
 Electronic spatial extent (au):  <R**2>=           4993.2996
 Charge=              0.0000 electrons
 Dipole moment (field-independent basis, Debye):
    X=             -3.0889    Y=              3.5904    Z=              2.4545  Tot=              5.3345
 Quadrupole moment (field-independent basis, Debye-Ang):
   XX=           -125.9589   YY=           -115.9070   ZZ=           -125.0725
   XY=              9.9857   XZ=             10.2409   YZ=             -7.6306
 Traceless Quadrupole moment (field-independent basis, Debye-Ang):
   XX=             -3.6461   YY=              6.4058   ZZ=             -2.7597
   XY=              9.9857   XZ=             10.2409   YZ=             -7.6306
 Octapole moment (field-independent basis, Debye-Ang**2):
  XXX=              0.6609  YYY=              9.2534  ZZZ=             14.3284  XYY=            -11.5575
  XXY=             11.1494  XXZ=             26.2003  XZZ=            -13.4567  YZZ=             22.3442
  YYZ=              6.1827  XYZ=            -16.9818
 Hexadecapole moment (field-independent basis, Debye-Ang**3):
 XXXX=          -3040.8862 YYYY=          -2562.8167 ZZZZ=          -1363.2667 XXXY=             81.8071
 XXXZ=             16.0494 YYYX=             13.7605 YYYZ=            -14.6689 ZZZX=             44.9886
 ZZZY=            -35.7342 XXYY=           -910.5788 XXZZ=           -743.8681 YYZZ=           -672.0535
 XXYZ=             -6.0893 YYXZ=              9.4479 ZZXY=             19.7807
 N-N= 1.658677792477D+03 E-N=-5.810749915692D+03  KE= 1.059308667074D+03
 1\1\GINC-CPU-E-68\SP\RM062X\def2TZVP\C14H26O3Si1\KE291\26-Jun-2019\0\\
 # m062x/def2tzvp int=ultrafine scrf=(solvent=chloroform)\\IP1_1ginp017
 \\0,1\C,0,2.114338,0.68937,0.515291\C,0,0.864269,1.578992,0.313681\C,0
 ,-0.266651,0.82822,-0.438921\C,0,0.300396,0.308735,-1.7653\C,0,1.59484
 3,-0.467662,-1.639296\H,0,2.990243,1.34736,0.55759\H,0,0.472395,1.7999
 7,1.312258\H,0,-0.41547,-0.326996,-2.291195\H,0,0.506449,1.152485,-2.4
 34796\O,0,2.424022,-0.185139,-0.620359\O,0,1.935224,-1.298723,-2.45843
 4\C,0,2.122684,-0.168824,1.784044\C,0,3.443424,-0.911,2.007386\C,0,1.2
 64366,2.915398,-0.338816\O,0,-0.659361,-0.258565,0.406156\Si,0,-1.5535
 6,-1.678394,0.230514\C,0,-3.063334,-1.479163,-0.888178\C,0,-0.465056,-
 3.070616,-0.425488\C,0,-2.115204,-2.073129,1.982435\H,0,0.368029,-3.27
 3394,0.256041\H,0,-1.051689,-3.992457,-0.515467\H,0,-0.038931,-2.84768
 1,-1.408096\H,0,-2.668928,-3.018361,2.008818\H,0,-1.260801,-2.167794,2
 .660636\H,0,-2.770991,-1.289381,2.375925\H,0,-3.62257,-2.422421,-0.897
 868\H,0,-3.741958,-0.699548,-0.527193\H,0,-2.802545,-1.249165,-1.92655
 2\H,0,2.034083,3.402891,0.267224\H,0,1.681085,2.779813,-1.342451\H,0,0
 .420657,3.60451,-0.406887\H,0,1.285368,-0.869118,1.749103\H,0,1.932903
 ,0.50762,2.627086\H,0,3.410875,-1.485266,2.93838\H,0,3.64991,-1.604647
 ,1.1881\H,0,4.285928,-0.21293,2.075662\C,0,-1.499703,1.728196,-0.71007
 \C,0,-2.120852,2.314032,0.528211\C,0,-2.434573,3.600857,0.688458\H,0,-
 2.238327,1.102015,-1.22587\H,0,-1.233523,2.52595,-1.410315\H,0,-2.3288
 28,1.610425,1.332651\H,0,-2.899593,3.964818,1.600024\H,0,-2.246687,4.3
 37806,-0.089511\\Version=ES64L-G09RevD.01\State=1-A\HF=-1064.3394797\R
 MSD=1.564e-09\Dipole=-1.2152856,1.4125553,0.9656651\Quadrupole=-2.7108
 081,4.7625626,-2.0517545,7.4241535,7.6138602,-5.6731995\PG=C01 [X(C14H
 26O3Si1)]\\@


 LIFE IS SO UNCERTAIN - EAT DESSERT FIRST.
 Job cpu time:       0 days  2 hours 24 minutes  2.6 seconds.
 File lengths (MBytes):  RWF=    407 Int=      0 D2E=      0 Chk=     21 Scr=      1
 Normal termination of Gaussian 09 at Wed Jun 26 13:55:12 2019.
