 Entering Gaussian System, Link 0=/usr/local/Cluster-Apps/gaussian/g09/g09
 Initial command:
 /usr/local/Cluster-Apps/gaussian/g09/l1.exe "/home/ke291/rds/hpc-work/26Jun1304IP1NMR/Gau-330961.inp" -scrdir="/home/ke291/rds/hpc-work/26Jun1304IP1NMR/"
 Entering Link 1 = /usr/local/Cluster-Apps/gaussian/g09/l1.exe PID=    330974.
  
 Copyright (c) 1988,1990,1992,1993,1995,1998,2003,2009,2013,
            Gaussian, Inc.  All Rights Reserved.
  
 This is part of the Gaussian(R) 09 program.  It is based on
 the Gaussian(R) 03 system (copyright 2003, Gaussian, Inc.),
 the Gaussian(R) 98 system (copyright 1998, Gaussian, Inc.),
 the Gaussian(R) 94 system (copyright 1995, Gaussian, Inc.),
 the Gaussian 92(TM) system (copyright 1992, Gaussian, Inc.),
 the Gaussian 90(TM) system (copyright 1990, Gaussian, Inc.),
 the Gaussian 88(TM) system (copyright 1988, Gaussian, Inc.),
 the Gaussian 86(TM) system (copyright 1986, Carnegie Mellon
 University), and the Gaussian 82(TM) system (copyright 1983,
 Carnegie Mellon University). Gaussian is a federally registered
 trademark of Gaussian, Inc.
  
 This software contains proprietary and confidential information,
 including trade secrets, belonging to Gaussian, Inc.
  
 This software is provided under written license and may be
 used, copied, transmitted, or stored only in accord with that
 written license.
  
 The following legend is applicable only to US Government
 contracts under FAR:
  
                    RESTRICTED RIGHTS LEGEND
  
 Use, reproduction and disclosure by the US Government is
 subject to restrictions as set forth in subparagraphs (a)
 and (c) of the Commercial Computer Software - Restricted
 Rights clause in FAR 52.227-19.
  
 Gaussian, Inc.
 340 Quinnipiac St., Bldg. 40, Wallingford CT 06492
  
  
 ---------------------------------------------------------------
 Warning -- This program may not be used in any manner that
 competes with the business of Gaussian, Inc. or will provide
 assistance to any competitor of Gaussian, Inc.  The licensee
 of this program is prohibited from giving any competitor of
 Gaussian, Inc. access to this program.  By using this program,
 the user acknowledges that Gaussian, Inc. is engaged in the
 business of creating and licensing software in the field of
 computational chemistry and represents and warrants to the
 licensee that it is not a competitor of Gaussian, Inc. and that
 it will not use this program in any manner prohibited above.
 ---------------------------------------------------------------
  

 Cite this work as:
 Gaussian 09, Revision D.01,
 M. J. Frisch, G. W. Trucks, H. B. Schlegel, G. E. Scuseria, 
 M. A. Robb, J. R. Cheeseman, G. Scalmani, V. Barone, B. Mennucci, 
 G. A. Petersson, H. Nakatsuji, M. Caricato, X. Li, H. P. Hratchian, 
 A. F. Izmaylov, J. Bloino, G. Zheng, J. L. Sonnenberg, M. Hada, 
 M. Ehara, K. Toyota, R. Fukuda, J. Hasegawa, M. Ishida, T. Nakajima, 
 Y. Honda, O. Kitao, H. Nakai, T. Vreven, J. A. Montgomery, Jr., 
 J. E. Peralta, F. Ogliaro, M. Bearpark, J. J. Heyd, E. Brothers, 
 K. N. Kudin, V. N. Staroverov, T. Keith, R. Kobayashi, J. Normand, 
 K. Raghavachari, A. Rendell, J. C. Burant, S. S. Iyengar, J. Tomasi, 
 M. Cossi, N. Rega, J. M. Millam, M. Klene, J. E. Knox, J. B. Cross, 
 V. Bakken, C. Adamo, J. Jaramillo, R. Gomperts, R. E. Stratmann, 
 O. Yazyev, A. J. Austin, R. Cammi, C. Pomelli, J. W. Ochterski, 
 R. L. Martin, K. Morokuma, V. G. Zakrzewski, G. A. Voth, 
 P. Salvador, J. J. Dannenberg, S. Dapprich, A. D. Daniels, 
 O. Farkas, J. B. Foresman, J. V. Ortiz, J. Cioslowski, 
 and D. J. Fox, Gaussian, Inc., Wallingford CT, 2013.
 
 ******************************************
 Gaussian 09:  ES64L-G09RevD.01 24-Apr-2013
                26-Jun-2019 
 ******************************************
 %nprocshared=4
 Will use up to    4 processors via shared memory.
 %mem=6000MB
 %chk=IP1_3ginp001.chk
 --------------------------------------------------------
 # m062x/def2tzvp int=ultrafine scrf=(solvent=chloroform)
 --------------------------------------------------------
 1/38=1/1;
 2/12=2,17=6,18=5,40=1/2;
 3/5=44,7=101,11=2,16=1,25=1,30=1,70=2201,72=7,74=-55,75=-5/1,2,3;
 4//1;
 5/5=2,38=5,53=7/2;
 6/7=2,8=2,9=2,10=2,28=1/1;
 99/5=1,9=1/99;
 ------------
 IP1_3ginp001
 ------------
 Symbolic Z-matrix:
 Charge =  0 Multiplicity = 1
 C                     2.35863   0.14791   0.30278 
 C                     0.9829    0.26224   0.97485 
 C                    -0.12264   0.12493  -0.10799 
 C                     0.03574  -1.25476  -0.76759 
 C                     1.4547   -1.64557  -1.15129 
 H                     2.48057   0.98403  -0.39474 
 H                     0.92137   1.28521   1.3643 
 H                    -0.30308  -2.0266   -0.06801 
 H                    -0.57826  -1.3528   -1.66702 
 O                     2.48921  -1.06696  -0.50625 
 O                     1.68438  -2.51821  -1.96262 
 C                     3.55241   0.15097   1.25575 
 C                     4.90147   0.24068   0.53569 
 C                     0.79729  -0.71075   2.1504 
 O                    -1.37873   0.24954   0.55448 
 Si                   -2.96877  -0.19893   0.2296 
 C                    -3.53652   0.32934  -1.49223 
 C                    -3.21438  -2.06102   0.41981 
 C                    -3.95739   0.71368   1.54365 
 H                    -4.28354  -2.29866   0.36893 
 H                    -2.71483  -2.63295  -0.36845 
 H                    -2.84251  -2.41925   1.38565 
 H                    -3.83963   1.798     1.447 
 H                    -5.02503   0.48292   1.45707 
 H                    -3.63432   0.42975   2.55057 
 H                    -4.60097   0.09573  -1.61334 
 H                    -3.41489   1.40642  -1.64734 
 H                    -2.99827  -0.19128  -2.29139 
 H                    -0.23275  -0.67354   2.50783 
 H                     1.02934  -1.74485   1.87567 
 H                     1.45247  -0.43952   2.98192 
 H                     3.51934  -0.75061   1.87642 
 H                     3.43247   1.0071    1.93123 
 H                     5.7253    0.23911   1.25564 
 H                     5.04096  -0.6058   -0.14182 
 H                     4.97491   1.16101  -0.05453 
 C                    -0.02844   1.23583  -1.19282 
 C                    -0.07528   2.63857  -0.65348 
 C                     0.79631   3.60266  -0.95559 
 H                    -0.87828   1.07764  -1.86841 
 H                     0.8707    1.09993  -1.80398 
 H                    -0.89959   2.85692   0.02369 
 H                     0.70128   4.60483  -0.54782 
 H                     1.63226   3.42916  -1.62999 
 
                          Input orientation:                          
 ---------------------------------------------------------------------
 Center     Atomic      Atomic             Coordinates (Angstroms)
 Number     Number       Type             X           Y           Z
 ---------------------------------------------------------------------
      1          6           0        2.358632    0.147913    0.302777
      2          6           0        0.982900    0.262237    0.974847
      3          6           0       -0.122638    0.124925   -0.107987
      4          6           0        0.035737   -1.254757   -0.767593
      5          6           0        1.454701   -1.645572   -1.151287
      6          1           0        2.480572    0.984034   -0.394744
      7          1           0        0.921374    1.285207    1.364304
      8          1           0       -0.303081   -2.026601   -0.068014
      9          1           0       -0.578261   -1.352796   -1.667022
     10          8           0        2.489209   -1.066959   -0.506250
     11          8           0        1.684384   -2.518212   -1.962619
     12          6           0        3.552414    0.150966    1.255745
     13          6           0        4.901468    0.240683    0.535687
     14          6           0        0.797291   -0.710754    2.150396
     15          8           0       -1.378728    0.249537    0.554479
     16         14           0       -2.968770   -0.198933    0.229603
     17          6           0       -3.536519    0.329340   -1.492225
     18          6           0       -3.214379   -2.061016    0.419807
     19          6           0       -3.957385    0.713681    1.543653
     20          1           0       -4.283541   -2.298660    0.368930
     21          1           0       -2.714826   -2.632945   -0.368447
     22          1           0       -2.842512   -2.419254    1.385647
     23          1           0       -3.839626    1.797996    1.447000
     24          1           0       -5.025031    0.482924    1.457071
     25          1           0       -3.634316    0.429751    2.550569
     26          1           0       -4.600973    0.095733   -1.613344
     27          1           0       -3.414889    1.406417   -1.647338
     28          1           0       -2.998266   -0.191282   -2.291392
     29          1           0       -0.232750   -0.673535    2.507826
     30          1           0        1.029339   -1.744852    1.875673
     31          1           0        1.452465   -0.439522    2.981919
     32          1           0        3.519341   -0.750614    1.876421
     33          1           0        3.432468    1.007100    1.931231
     34          1           0        5.725304    0.239106    1.255637
     35          1           0        5.040961   -0.605800   -0.141822
     36          1           0        4.974908    1.161012   -0.054531
     37          6           0       -0.028444    1.235832   -1.192821
     38          6           0       -0.075279    2.638566   -0.653478
     39          6           0        0.796305    3.602659   -0.955586
     40          1           0       -0.878282    1.077640   -1.868410
     41          1           0        0.870696    1.099930   -1.803983
     42          1           0       -0.899588    2.856921    0.023694
     43          1           0        0.701275    4.604831   -0.547819
     44          1           0        1.632264    3.429162   -1.629987
 ---------------------------------------------------------------------
                    Distance matrix (angstroms):
                    1          2          3          4          5
     1  C    0.000000
     2  C    1.535378   0.000000
     3  C    2.515145   1.553576   0.000000
     4  C    2.917022   2.496895   1.537428   0.000000
     5  C    2.479512   2.895303   2.590585   1.520992   0.000000
     6  H    1.095675   2.154018   2.756266   3.335929   2.922259
     7  H    2.118015   1.096326   2.145660   3.432310   3.898987
     8  H    3.456980   2.824905   2.159449   1.095423   2.099634
     9  H    3.841559   3.467712   2.195869   1.093425   2.117696
    10  O    1.465431   2.495872   2.898438   2.474488   1.349471
    11  O    3.562984   4.105080   3.700157   2.396339   1.213472
    12  C    1.527505   2.587216   3.920006   4.293829   3.663571
    13  C    2.555165   3.943159   5.066494   5.254543   4.275984
    14  C    2.566864   1.537231   2.577775   3.064403   3.493878
    15  O    3.747204   2.398782   1.425535   2.451833   3.811744
    16  Si   5.339182   4.047686   2.884323   3.337099   4.854556
    17  C    6.165043   5.149378   3.689510   3.974351   5.378549
    18  C    5.995958   4.829361   3.823057   3.552918   4.943808
    19  C    6.461574   4.993371   4.216614   5.016137   6.489950
    20  H    7.078740   5.887336   4.838835   4.586674   5.972018
    21  H    5.824405   4.884639   3.793827   3.102308   4.355766
    22  H    5.900411   4.689662   4.012668   3.778467   5.049818
    23  H    6.515399   5.083133   4.362700   5.407602   6.829287
    24  H    7.480849   6.031292   5.158588   5.794829   7.302120
    25  H    6.406827   4.881562   4.415056   5.226572   6.626371
    26  H    7.218749   6.156793   4.724663   4.902876   6.317977
    27  H    6.222566   5.246480   3.853666   4.445517   5.768328
    28  H    5.961638   5.169495   3.624428   3.557825   4.821174
    29  H    3.500325   2.168755   2.737178   3.337405   4.145052
    30  H    2.797067   2.200466   2.959396   2.866059   3.058313
    31  H    2.888602   2.177451   3.513840   4.090302   4.305572
    32  H    2.151965   2.876149   4.238921   4.402325   3.772361
    33  H    2.131476   2.733107   4.192305   4.892589   4.522184
    34  H    3.500106   4.750766   6.005908   6.220632   5.251985
    35  H    2.821461   4.297476   5.215157   5.085765   3.867998
    36  H    2.828240   4.219425   5.202049   5.544349   4.633751
    37  C    3.019688   2.582535   1.555587   2.527444   3.240977
    38  C    3.611329   3.068896   2.572585   3.896577   4.576297
    39  C    3.994948   3.862617   3.695607   4.920193   5.292987
    40  H    4.007001   3.494709   2.139568   2.736294   3.656906
    41  H    2.749314   2.904516   2.194026   2.704776   2.881815
    42  H    4.246482   3.343776   2.843377   4.290322   5.214950
    43  H    4.830576   4.610417   4.576226   5.901357   6.324505
    44  H    3.876826   4.151656   4.039078   5.023118   5.100354
                    6          7          8          9         10
     6  H    0.000000
     7  H    2.369821   0.000000
     8  H    4.113320   3.810367   0.000000
     9  H    4.054124   4.289161   1.756862   0.000000
    10  O    2.054040   3.389655   2.984937   3.292183   0.000000
    11  O    3.918912   5.110440   2.789485   2.562252   2.207915
    12  C    2.137045   2.867169   4.621577   5.278858   2.391312
    13  C    2.697964   4.197474   5.708972   6.117069   2.935056
    14  C    3.490484   2.148767   2.804214   4.108168   3.169738
    15  O    4.041622   2.649320   2.593322   2.853644   4.221285
    16  Si   5.611109   4.315488   3.245742   3.262379   5.575346
    17  C    6.151298   5.380172   4.246641   3.407554   6.263481
    18  C    6.509093   5.403123   2.952086   3.435920   5.863160
    19  C    6.728875   4.915394   4.843610   5.098749   6.995095
    20  H    7.557281   6.397344   4.013602   4.332304   6.939249
    21  H    6.330513   5.619279   2.504881   2.808912   5.436293
    22  H    6.564098   5.281129   2.952290   3.947525   5.816805
    23  H    6.633209   4.789250   5.424939   5.501011   7.216461
    24  H    7.746897   6.001000   5.560613   5.736165   7.919632
    25  H    6.809842   4.784699   4.897731   5.505000   7.005843
    26  H    7.240328   6.385730   5.036291   4.275901   7.269676
    27  H    6.041842   5.280895   4.895225   3.957285   6.502157
    28  H    5.915768   5.559470   3.946622   2.755971   5.836602
    29  H    4.305179   2.544861   2.910444   4.243834   4.080257
    30  H    3.835061   3.074803   2.373319   3.910086   2.874772
    31  H    3.805965   2.423515   3.860421   5.154665   3.692674
    32  H    3.040762   3.340099   4.474358   5.450592   2.615027
    33  H    2.513324   2.589275   5.211012   5.882387   3.336581
    34  H    3.715772   4.917711   6.574717   7.128185   3.909266
    35  H    3.024423   4.776539   5.530182   5.870255   2.618571
    36  H    2.523644   4.296470   6.165892   6.305319   3.368472
    37  C    2.644899   2.728274   3.461804   2.688524   3.480345
    38  C    3.055617   2.626089   4.707276   4.148642   4.508790
    39  C    3.163621   3.281481   5.803878   5.191542   4.987300
    40  H    3.669108   3.705710   3.634363   2.457151   4.218386
    41  H    2.142682   3.174104   3.763846   2.852034   2.999851
    42  H    3.886937   2.753801   4.920673   4.547910   5.211681
    43  H    4.037264   3.837260   6.724198   6.195413   5.947070
    44  H    2.867770   3.750691   5.995888   5.268293   4.712987
                   11         12         13         14         15
    11  O    0.000000
    12  C    4.579510   0.000000
    13  C    4.919620   1.531822   0.000000
    14  C    4.579381   3.022195   4.511850   0.000000
    15  O    4.835170   4.981732   6.280230   2.864292   0.000000
    16  Si   5.642405   6.610691   7.888447   4.258476   1.683717
    17  C    5.965539   7.605007   8.678704   5.756074   2.975135
    18  C    5.466522   7.168064   8.436718   4.572925   2.954049
    19  C    7.387058   7.536353   8.928550   5.000410   2.800601
    20  H    6.410963   8.257681   9.531026   5.613370   3.868549
    21  H    4.680555   7.047443   8.190429   4.730154   3.308421
    22  H    5.631471   6.893329   8.232067   4.092918   3.155305
    23  H    7.795501   7.575721   8.925382   5.318796   3.041437
    24  H    8.106624   8.586227   9.972112   5.983728   3.763598
    25  H    7.572841   7.307762   8.772406   4.593477   3.017371
    26  H    6.816188   8.643636   9.743497   6.630039   3.886641
    27  H    6.442414   7.651625   8.676769   6.053731   3.214393
    28  H    5.239266   7.457260   8.401474   5.865627   3.303968
    29  H    5.202222   4.071238   5.575421   1.090929   2.445586
    30  H    3.969843   3.216262   4.553163   1.094841   3.394397
    31  H    5.368724   2.781751   4.282797   1.092818   3.792482
    32  H    4.607570   1.095070   2.165759   2.736093   5.170968
    33  H    5.535855   1.097102   2.166310   3.153286   5.061319
    34  H    5.855682   2.174677   1.094092   5.097856   7.138557
    35  H    4.270741   2.177535   1.093165   4.824315   6.513743
    36  H    5.291979   2.181858   1.095790   5.081112   6.447509
    37  C    4.197525   4.471572   5.318091   3.955772   2.418492
    38  C    5.603804   4.795148   5.650838   4.454327   2.977516
    39  C    6.266407   4.939667   5.511728   5.315323   4.272528
    40  H    4.416592   5.500012   6.315512   4.707090   2.608945
    41  H    3.711900   4.177808   4.739144   4.349837   3.368296
    42  H    6.286048   5.353547   6.384285   4.486710   2.703657
    43  H    7.328431   5.587374   6.153161   5.961965   4.950763
    44  H    5.956897   4.770848   5.054131   5.668102   4.893667
                   16         17         18         19         20
    16  Si   0.000000
    17  C    1.888413   0.000000
    18  C    1.887817   3.077896   0.000000
    19  C    1.880678   3.088916   3.084482   0.000000
    20  H    2.481308   3.305802   1.096435   3.249700   0.000000
    21  H    2.519239   3.273101   1.094532   4.049689   1.765315
    22  H    2.506433   4.039624   1.095202   3.329142   1.767716
    23  H    2.495630   3.299677   4.042033   1.094965   4.259329
    24  H    2.489943   3.307205   3.290290   1.095725   3.077510
    25  H    2.495011   4.045223   3.304605   1.094929   3.553205
    26  H    2.479389   1.096496   3.272295   3.280655   3.124627
    27  H    2.509796   1.094965   4.041829   3.310077   4.306680
    28  H    2.521179   1.095186   3.300486   4.055421   3.629089
    29  H    3.591845   5.284038   3.895515   4.089854   4.860537
    30  H    4.591763   6.040867   4.497627   5.569743   5.550106
    31  H    5.213487   6.745300   5.565348   5.715327   6.571596
    32  H    6.716543   7.892987   7.012978   7.626030   8.096539
    33  H    6.732451   7.793984   7.475180   7.405825   8.538479
    34  H    8.765361   9.661276   9.268609   9.698590  10.363565
    35  H    8.028654   8.733341   8.401412   9.249437   9.490679
    36  H    8.064255   8.671968   8.813109   9.085161   9.892802
    37  C    3.567542   3.635651   4.860037   4.816379   5.747830
    38  C    4.147713   4.244550   5.752561   4.858324   6.567419
    39  C    5.480197   5.456736   7.074921   6.098357   7.898401
    40  H    3.225126   2.787058   4.532598   4.610370   5.291586
    41  H    4.534756   4.484924   5.623581   5.887803   6.545084
    42  H    3.696235   3.954754   5.449887   4.031610   6.176596
    43  H    6.095061   6.093490   7.791159   6.420157   8.564287
    44  H    6.147411   6.028614   7.604844   6.977822   8.473509
                   21         22         23         24         25
    21  H    0.000000
    22  H    1.771670   0.000000
    23  H    4.918766   4.333959   0.000000
    24  H    4.286981   3.631959   1.770509   0.000000
    25  H    4.329691   3.178180   1.769777   1.769930   0.000000
    26  H    3.543022   4.290838   3.583721   3.123650   4.287676
    27  H    4.294426   4.915524   3.147803   3.617009   4.315605
    28  H    3.120861   4.302178   4.317486   4.314314   4.922888
    29  H    4.274685   3.334318   4.499263   5.040579   3.576272
    30  H    4.454611   3.960577   6.036750   6.464798   5.189804
    31  H    5.779478   4.991418   5.947158   6.718186   5.178517
    32  H    6.888210   6.595331   7.799629   8.643134   7.281658
    33  H    7.505176   7.170282   7.330985   8.486983   7.117327
    34  H    9.062126   8.971692   9.693020  10.754986   9.450697
    35  H    8.019533   8.232310   9.336349  10.250169   9.142306
    36  H    8.580481   8.718054   8.964171  10.136248   9.024413
    37  C    4.781598   5.284613   4.670095   5.705671   5.259757
    38  C    5.902311   6.115321   4.391910   5.796659   5.273663
    39  C    7.180218   7.415241   5.524589   7.031473   6.480036
    40  H    4.403547   5.164819   4.503378   5.348648   5.248129
    41  H    5.371321   6.028790   5.765702   6.765705   6.301301
    42  H    5.795472   5.785144   3.433795   4.970886   4.444658
    43  H    8.005456   8.101511   5.698895   7.334868   6.769686
    44  H    7.565568   7.957489   6.486149   7.907580   7.362770
                   26         27         28         29         30
    26  H    0.000000
    27  H    1.768005   0.000000
    28  H    1.763745   1.772293   0.000000
    29  H    6.054518   5.631838   5.559959   0.000000
    30  H    6.874693   6.487932   5.999968   1.772063   0.000000
    31  H    7.618862   6.966251   6.904958   1.766204   1.762584
    32  H    8.878866   8.071754   7.756463   3.805627   2.681160
    33  H    8.827841   7.736401   7.785949   4.073183   3.653951
    34  H   10.718377   9.660901   9.426947   6.156241   5.135428
    35  H    9.778774   8.821394   8.331965   5.902309   4.632584
    36  H    9.760236   8.543182   8.390694   6.086948   5.266616
    37  C    4.731246   3.421066   3.473234   4.169198   4.406704
    38  C    5.279133   3.695801   4.385733   4.581337   5.179878
    39  C    6.470068   4.799599   5.529660   5.598215   6.055263
    40  H    3.858449   2.567361   2.506673   4.757601   5.061980
    41  H    5.566320   4.299385   4.107756   4.791082   4.653796
    42  H    4.899419   3.350082   4.365274   4.368032   5.322302
    43  H    7.041388   5.327438   6.303122   6.170131   6.804367
    44  H    7.068612   5.437421   5.914971   6.118161   6.278821
                   31         32         33         34         35
    31  H    0.000000
    32  H    2.364504   0.000000
    33  H    2.667784   1.760713   0.000000
    34  H    4.658083   2.496235   2.510645   0.000000
    35  H    4.760537   2.531719   3.079975   1.770617   0.000000
    36  H    4.918266   3.082461   2.519139   1.769052   1.770200
    37  C    4.735859   5.094408   4.667969   6.331984   5.495004
    38  C    5.002473   5.550516   4.652600   6.561165   6.079771
    39  C    5.680996   5.863973   4.692547   6.363806   6.032449
    40  H    5.591051   6.058495   5.746722   7.353241   6.391597
    41  H    5.060951   4.897469   4.530245   5.802544   4.802437
    42  H    5.014956   5.997820   5.082051   7.229096   6.878078
    43  H    6.202325   6.519143   5.152550   6.895859   6.793260
    44  H    6.022352   5.772909   4.667911   5.937698   5.487692
                   36         37         38         39         40
    36  H    0.000000
    37  C    5.131748   0.000000
    38  C    5.295875   1.503578   0.000000
    39  C    4.922831   2.517610   1.334318   0.000000
    40  H    6.128372   1.097119   2.134798   3.164366   0.000000
    41  H    4.461936   1.095646   2.141479   2.643665   1.750306
    42  H    6.114894   2.206067   1.088911   2.095511   2.597374
    43  H    5.510641   3.506946   2.116695   1.086118   4.084120
    44  H    4.335878   2.785635   2.119980   1.088001   3.448093
                   41         42         43         44
    41  H    0.000000
    42  H    3.092139   0.000000
    43  H    3.727061   2.438151   0.000000
    44  H    2.456742   3.077726   1.849331   0.000000
 Stoichiometry    C14H26O3Si
 Framework group  C1[X(C14H26O3Si)]
 Deg. of freedom   126
 Full point group                 C1      NOp   1
 Largest Abelian subgroup         C1      NOp   1
 Largest concise Abelian subgroup C1      NOp   1
                         Standard orientation:                         
 ---------------------------------------------------------------------
 Center     Atomic      Atomic             Coordinates (Angstroms)
 Number     Number       Type             X           Y           Z
 ---------------------------------------------------------------------
      1          6           0        2.358632    0.147913    0.302777
      2          6           0        0.982900    0.262237    0.974847
      3          6           0       -0.122638    0.124925   -0.107987
      4          6           0        0.035737   -1.254757   -0.767593
      5          6           0        1.454701   -1.645572   -1.151287
      6          1           0        2.480572    0.984034   -0.394744
      7          1           0        0.921374    1.285207    1.364304
      8          1           0       -0.303081   -2.026601   -0.068014
      9          1           0       -0.578261   -1.352796   -1.667022
     10          8           0        2.489209   -1.066959   -0.506250
     11          8           0        1.684384   -2.518212   -1.962619
     12          6           0        3.552414    0.150966    1.255745
     13          6           0        4.901468    0.240683    0.535687
     14          6           0        0.797291   -0.710754    2.150396
     15          8           0       -1.378728    0.249537    0.554479
     16         14           0       -2.968770   -0.198933    0.229603
     17          6           0       -3.536519    0.329340   -1.492225
     18          6           0       -3.214379   -2.061016    0.419807
     19          6           0       -3.957385    0.713681    1.543653
     20          1           0       -4.283541   -2.298660    0.368930
     21          1           0       -2.714826   -2.632945   -0.368447
     22          1           0       -2.842512   -2.419254    1.385647
     23          1           0       -3.839626    1.797996    1.447000
     24          1           0       -5.025031    0.482924    1.457071
     25          1           0       -3.634316    0.429751    2.550569
     26          1           0       -4.600973    0.095733   -1.613344
     27          1           0       -3.414889    1.406417   -1.647338
     28          1           0       -2.998266   -0.191282   -2.291392
     29          1           0       -0.232750   -0.673535    2.507826
     30          1           0        1.029339   -1.744852    1.875673
     31          1           0        1.452465   -0.439522    2.981919
     32          1           0        3.519341   -0.750614    1.876421
     33          1           0        3.432468    1.007100    1.931231
     34          1           0        5.725304    0.239106    1.255637
     35          1           0        5.040961   -0.605800   -0.141822
     36          1           0        4.974908    1.161012   -0.054531
     37          6           0       -0.028444    1.235832   -1.192821
     38          6           0       -0.075279    2.638566   -0.653478
     39          6           0        0.796305    3.602659   -0.955586
     40          1           0       -0.878282    1.077640   -1.868410
     41          1           0        0.870696    1.099930   -1.803983
     42          1           0       -0.899588    2.856921    0.023694
     43          1           0        0.701275    4.604831   -0.547819
     44          1           0        1.632264    3.429162   -1.629987
 ---------------------------------------------------------------------
 Rotational constants (GHZ):      0.5480352      0.2479676      0.2218323
 Standard basis: def2TZVP (5D, 7F)
 There are   810 symmetry adapted cartesian basis functions of A   symmetry.
 There are   720 symmetry adapted basis functions of A   symmetry.
   720 basis functions,  1144 primitive gaussians,   810 cartesian basis functions
    74 alpha electrons       74 beta electrons
       nuclear repulsion energy      1621.0536828513 Hartrees.
 NAtoms=   44 NActive=   44 NUniq=   44 SFac= 1.00D+00 NAtFMM=   60 NAOKFM=F Big=F
 Integral buffers will be    131072 words long.
 Raffenetti 2 integral format.
 Two-electron integral symmetry is turned on.
 ------------------------------------------------------------------------------
 Polarizable Continuum Model (PCM)
 =================================
 Model                : PCM (using non-symmetric T matrix).
 Atomic radii         : UFF (Universal Force Field).
 Polarization charges : Total charges.
 Charge compensation  : None.
 Solution method      : On-the-fly selection.
 Cavity type          : Scaled VdW (van der Waals Surface) (Alpha=1.100).
 Cavity algorithm     : GePol (No added spheres)
                        Default sphere list used, NSphG=   44.
                        Lebedev-Laikov grids with approx.  5.0 points / Ang**2.
                        Smoothing algorithm: Karplus/York (Gamma=1.0000).
                        Polarization charges: spherical gaussians, with
                                              point-specific exponents (IZeta= 3).
                        Self-potential: point-specific (ISelfS= 7).
                        Self-field    : sphere-specific E.n sum rule (ISelfD= 2).
 Solvent              : Chloroform, Eps=   4.711300 Eps(inf)=   2.090627
 ------------------------------------------------------------------------------
 One-electron integrals computed using PRISM.
   1 Symmetry operations used in ECPInt.
 ECPInt:  NShTT=   46360 NPrTT=  137514 LenC2=   41886 LenP2D=   89822.
 LDataN:  DoStor=T MaxTD1= 6 Len=  172
 NBasis=   720 RedAO= T EigKep=  4.37D-05  NBF=   720
 NBsUse=   720 1.00D-06 EigRej= -1.00D+00 NBFU=   720
 ExpMin= 7.01D-02 ExpMax= 4.48D+04 ExpMxC= 1.53D+03 IAcc=3 IRadAn=         5 AccDes= 0.00D+00
 Harris functional with IExCor= 1009 and IRadAn=       5 diagonalized for initial guess.
 HarFok:  IExCor= 1009 AccDes= 0.00D+00 IRadAn=         5 IDoV= 1 UseB2=F ITyADJ=14
 ICtDFT=  3500011 ScaDFX=  1.000000  1.000000  1.000000  1.000000
 FoFCou: FMM=F IPFlag=           0 FMFlag=      100000 FMFlg1=           0
         NFxFlg=           0 DoJE=T BraDBF=F KetDBF=T FulRan=T
         wScrn=  0.000000 ICntrl=     500 IOpCl=  0 I1Cent=   200000004 NGrid=           0
         NMat0=    1 NMatS0=      1 NMatT0=    0 NMatD0=    1 NMtDS0=    0 NMtDT0=    0
 Petite list used in FoFCou.
 Requested convergence on RMS density matrix=1.00D-08 within 128 cycles.
 Requested convergence on MAX density matrix=1.00D-06.
 Requested convergence on             energy=1.00D-06.
 No special actions if energy rises.
 Inv3:  Mode=1 IEnd=    25719552.
 Iteration    1 A*A^-1 deviation from unit magnitude is 4.88D-15 for   2908.
 Iteration    1 A*A^-1 deviation from orthogonality  is 3.24D-15 for   2919   1550.
 Iteration    1 A^-1*A deviation from unit magnitude is 5.11D-15 for   2894.
 Iteration    1 A^-1*A deviation from orthogonality  is 5.13D-13 for   2131   2082.
 Error on total polarization charges =  0.01480
 SCF Done:  E(RM062X) =  -1064.34157071     A.U. after   14 cycles
            NFock= 14  Conv=0.16D-08     -V/T= 2.0047

 **********************************************************************

            Population analysis using the SCF density.

 **********************************************************************

 Orbital symmetries:
       Occupied  (A) (A) (A) (A) (A) (A) (A) (A) (A) (A) (A) (A)
                 (A) (A) (A) (A) (A) (A) (A) (A) (A) (A) (A) (A)
                 (A) (A) (A) (A) (A) (A) (A) (A) (A) (A) (A) (A)
                 (A) (A) (A) (A) (A) (A) (A) (A) (A) (A) (A) (A)
                 (A) (A) (A) (A) (A) (A) (A) (A) (A) (A) (A) (A)
                 (A) (A) (A) (A) (A) (A) (A) (A) (A) (A) (A) (A)
                 (A) (A)
       Virtual   (A) (A) (A) (A) (A) (A) (A) (A) (A) (A) (A) (A)
                 (A) (A) (A) (A) (A) (A) (A) (A) (A) (A) (A) (A)
                 (A) (A) (A) (A) (A) (A) (A) (A) (A) (A) (A) (A)
                 (A) (A) (A) (A) (A) (A) (A) (A) (A) (A) (A) (A)
                 (A) (A) (A) (A) (A) (A) (A) (A) (A) (A) (A) (A)
                 (A) (A) (A) (A) (A) (A) (A) (A) (A) (A) (A) (A)
                 (A) (A) (A) (A) (A) (A) (A) (A) (A) (A) (A) (A)
                 (A) (A) (A) (A) (A) (A) (A) (A) (A) (A) (A) (A)
                 (A) (A) (A) (A) (A) (A) (A) (A) (A) (A) (A) (A)
                 (A) (A) (A) (A) (A) (A) (A) (A) (A) (A) (A) (A)
                 (A) (A) (A) (A) (A) (A) (A) (A) (A) (A) (A) (A)
                 (A) (A) (A) (A) (A) (A) (A) (A) (A) (A) (A) (A)
                 (A) (A) (A) (A) (A) (A) (A) (A) (A) (A) (A) (A)
                 (A) (A) (A) (A) (A) (A) (A) (A) (A) (A) (A) (A)
                 (A) (A) (A) (A) (A) (A) (A) (A) (A) (A) (A) (A)
                 (A) (A) (A) (A) (A) (A) (A) (A) (A) (A) (A) (A)
                 (A) (A) (A) (A) (A) (A) (A) (A) (A) (A) (A) (A)
                 (A) (A) (A) (A) (A) (A) (A) (A) (A) (A) (A) (A)
                 (A) (A) (A) (A) (A) (A) (A) (A) (A) (A) (A) (A)
                 (A) (A) (A) (A) (A) (A) (A) (A) (A) (A) (A) (A)
                 (A) (A) (A) (A) (A) (A) (A) (A) (A) (A) (A) (A)
                 (A) (A) (A) (A) (A) (A) (A) (A) (A) (A) (A) (A)
                 (A) (A) (A) (A) (A) (A) (A) (A) (A) (A) (A) (A)
                 (A) (A) (A) (A) (A) (A) (A) (A) (A) (A) (A) (A)
                 (A) (A) (A) (A) (A) (A) (A) (A) (A) (A) (A) (A)
                 (A) (A) (A) (A) (A) (A) (A) (A) (A) (A) (A) (A)
                 (A) (A) (A) (A) (A) (A) (A) (A) (A) (A) (A) (A)
                 (A) (A) (A) (A) (A) (A) (A) (A) (A) (A) (A) (A)
                 (A) (A) (A) (A) (A) (A) (A) (A) (A) (A) (A) (A)
                 (A) (A) (A) (A) (A) (A) (A) (A) (A) (A) (A) (A)
                 (A) (A) (A) (A) (A) (A) (A) (A) (A) (A) (A) (A)
                 (A) (A) (A) (A) (A) (A) (A) (A) (A) (A) (A) (A)
                 (A) (A) (A) (A) (A) (A) (A) (A) (A) (A) (A) (A)
                 (A) (A) (A) (A) (A) (A) (A) (A) (A) (A) (A) (A)
                 (A) (A) (A) (A) (A) (A) (A) (A) (A) (A) (A) (A)
                 (A) (A) (A) (A) (A) (A) (A) (A) (A) (A) (A) (A)
                 (A) (A) (A) (A) (A) (A) (A) (A) (A) (A) (A) (A)
                 (A) (A) (A) (A) (A) (A) (A) (A) (A) (A) (A) (A)
                 (A) (A) (A) (A) (A) (A) (A) (A) (A) (A) (A) (A)
                 (A) (A) (A) (A) (A) (A) (A) (A) (A) (A) (A) (A)
                 (A) (A) (A) (A) (A) (A) (A) (A) (A) (A) (A) (A)
                 (A) (A) (A) (A) (A) (A) (A) (A) (A) (A) (A) (A)
                 (A) (A) (A) (A) (A) (A) (A) (A) (A) (A) (A) (A)
                 (A) (A) (A) (A) (A) (A) (A) (A) (A) (A) (A) (A)
                 (A) (A) (A) (A) (A) (A) (A) (A) (A) (A) (A) (A)
                 (A) (A) (A) (A) (A) (A) (A) (A) (A) (A) (A) (A)
                 (A) (A) (A) (A) (A) (A) (A) (A) (A) (A) (A) (A)
                 (A) (A) (A) (A) (A) (A) (A) (A) (A) (A) (A) (A)
                 (A) (A) (A) (A) (A) (A) (A) (A) (A) (A) (A) (A)
                 (A) (A) (A) (A) (A) (A) (A) (A) (A) (A) (A) (A)
                 (A) (A) (A) (A) (A) (A) (A) (A) (A) (A) (A) (A)
                 (A) (A) (A) (A) (A) (A) (A) (A) (A) (A) (A) (A)
                 (A) (A) (A) (A) (A) (A) (A) (A) (A) (A) (A) (A)
                 (A) (A) (A) (A) (A) (A) (A) (A) (A) (A)
 The electronic state is 1-A.
 Alpha  occ. eigenvalues --  -67.01742 -19.67295 -19.62041 -19.61740 -10.68393
 Alpha  occ. eigenvalues --  -10.62096 -10.60848 -10.55900 -10.55283 -10.54860
 Alpha  occ. eigenvalues --  -10.54743 -10.54092 -10.53647 -10.52868 -10.52526
 Alpha  occ. eigenvalues --  -10.51268 -10.51083 -10.50877  -5.55191  -3.86377
 Alpha  occ. eigenvalues --   -3.86234  -3.86223  -1.22945  -1.14294  -1.13420
 Alpha  occ. eigenvalues --   -0.93622  -0.90508  -0.88372  -0.84679  -0.80939
 Alpha  occ. eigenvalues --   -0.80160  -0.78299  -0.77015  -0.76875  -0.73285
 Alpha  occ. eigenvalues --   -0.70363  -0.68816  -0.64892  -0.60819  -0.59350
 Alpha  occ. eigenvalues --   -0.58832  -0.57081  -0.56491  -0.54316  -0.53241
 Alpha  occ. eigenvalues --   -0.52001  -0.50456  -0.50333  -0.49838  -0.49112
 Alpha  occ. eigenvalues --   -0.48178  -0.47682  -0.47583  -0.46729  -0.46194
 Alpha  occ. eigenvalues --   -0.45935  -0.45201  -0.44649  -0.44502  -0.44104
 Alpha  occ. eigenvalues --   -0.43589  -0.43171  -0.42442  -0.41728  -0.41266
 Alpha  occ. eigenvalues --   -0.40512  -0.39615  -0.38310  -0.36689  -0.36504
 Alpha  occ. eigenvalues --   -0.35841  -0.34536  -0.33835  -0.32015
 Alpha virt. eigenvalues --    0.03084   0.03631   0.04757   0.06650   0.07460
 Alpha virt. eigenvalues --    0.07670   0.08826   0.09661   0.09830   0.10114
 Alpha virt. eigenvalues --    0.10685   0.11162   0.11406   0.12123   0.12623
 Alpha virt. eigenvalues --    0.13215   0.13614   0.14005   0.15124   0.15202
 Alpha virt. eigenvalues --    0.15401   0.15831   0.16009   0.16359   0.16681
 Alpha virt. eigenvalues --    0.16978   0.17276   0.17494   0.18120   0.18220
 Alpha virt. eigenvalues --    0.18840   0.19428   0.19505   0.20254   0.20507
 Alpha virt. eigenvalues --    0.20889   0.21206   0.22450   0.22902   0.23032
 Alpha virt. eigenvalues --    0.23378   0.23752   0.24308   0.25177   0.25750
 Alpha virt. eigenvalues --    0.26568   0.27117   0.27269   0.27448   0.27993
 Alpha virt. eigenvalues --    0.28171   0.29406   0.29833   0.30290   0.30626
 Alpha virt. eigenvalues --    0.31526   0.32219   0.32610   0.33202   0.33955
 Alpha virt. eigenvalues --    0.34179   0.34668   0.36081   0.36279   0.36719
 Alpha virt. eigenvalues --    0.37112   0.37555   0.37951   0.38305   0.39046
 Alpha virt. eigenvalues --    0.39255   0.39503   0.40781   0.41039   0.41890
 Alpha virt. eigenvalues --    0.42240   0.42648   0.43555   0.43631   0.44068
 Alpha virt. eigenvalues --    0.44829   0.45055   0.45190   0.45956   0.46441
 Alpha virt. eigenvalues --    0.46822   0.46974   0.47412   0.47971   0.48249
 Alpha virt. eigenvalues --    0.48620   0.48830   0.49184   0.49431   0.49611
 Alpha virt. eigenvalues --    0.50048   0.50500   0.50805   0.51197   0.51284
 Alpha virt. eigenvalues --    0.51863   0.52474   0.52772   0.53096   0.53742
 Alpha virt. eigenvalues --    0.54106   0.54498   0.55264   0.55460   0.55940
 Alpha virt. eigenvalues --    0.56568   0.56957   0.57670   0.57949   0.58280
 Alpha virt. eigenvalues --    0.59439   0.60468   0.61037   0.61211   0.61400
 Alpha virt. eigenvalues --    0.62122   0.62898   0.63058   0.64162   0.65515
 Alpha virt. eigenvalues --    0.66328   0.66574   0.67139   0.67679   0.68742
 Alpha virt. eigenvalues --    0.69403   0.70974   0.71673   0.72059   0.73394
 Alpha virt. eigenvalues --    0.73747   0.74915   0.75678   0.76697   0.77227
 Alpha virt. eigenvalues --    0.77545   0.78607   0.79091   0.79700   0.81211
 Alpha virt. eigenvalues --    0.82189   0.83146   0.83711   0.84499   0.86057
 Alpha virt. eigenvalues --    0.86899   0.87667   0.88398   0.89235   0.90337
 Alpha virt. eigenvalues --    0.91794   0.92260   0.93115   0.93491   0.94232
 Alpha virt. eigenvalues --    0.94575   0.94977   0.96435   0.96922   0.97275
 Alpha virt. eigenvalues --    0.97877   0.99285   0.99897   1.00804   1.01270
 Alpha virt. eigenvalues --    1.01644   1.02910   1.03824   1.04557   1.04981
 Alpha virt. eigenvalues --    1.05164   1.05974   1.06601   1.06894   1.07355
 Alpha virt. eigenvalues --    1.07955   1.09368   1.09606   1.10137   1.11713
 Alpha virt. eigenvalues --    1.12234   1.12507   1.13235   1.13982   1.14843
 Alpha virt. eigenvalues --    1.15739   1.16827   1.17748   1.18926   1.19671
 Alpha virt. eigenvalues --    1.20498   1.21394   1.22847   1.23324   1.23717
 Alpha virt. eigenvalues --    1.24209   1.25878   1.26988   1.27267   1.28806
 Alpha virt. eigenvalues --    1.29391   1.30106   1.32025   1.32356   1.32922
 Alpha virt. eigenvalues --    1.34786   1.35568   1.36512   1.36943   1.37510
 Alpha virt. eigenvalues --    1.39539   1.40066   1.40884   1.41885   1.42804
 Alpha virt. eigenvalues --    1.43541   1.44759   1.45411   1.45784   1.46476
 Alpha virt. eigenvalues --    1.47172   1.47685   1.49536   1.50596   1.53556
 Alpha virt. eigenvalues --    1.53966   1.55061   1.55883   1.56110   1.56933
 Alpha virt. eigenvalues --    1.57320   1.57635   1.58334   1.58849   1.58899
 Alpha virt. eigenvalues --    1.59073   1.59955   1.60477   1.61381   1.61970
 Alpha virt. eigenvalues --    1.62125   1.62750   1.63019   1.63801   1.63927
 Alpha virt. eigenvalues --    1.64779   1.65915   1.66190   1.66428   1.66773
 Alpha virt. eigenvalues --    1.67337   1.67736   1.68171   1.68536   1.69335
 Alpha virt. eigenvalues --    1.69932   1.70544   1.71729   1.71929   1.73466
 Alpha virt. eigenvalues --    1.74637   1.74780   1.75441   1.76249   1.77435
 Alpha virt. eigenvalues --    1.79742   1.80280   1.81242   1.82157   1.82896
 Alpha virt. eigenvalues --    1.83281   1.84565   1.85024   1.86735   1.87460
 Alpha virt. eigenvalues --    1.87844   1.88228   1.90117   1.91616   1.92560
 Alpha virt. eigenvalues --    1.94606   1.94928   1.96075   1.97728   1.98134
 Alpha virt. eigenvalues --    1.99202   2.00195   2.00555   2.01173   2.01942
 Alpha virt. eigenvalues --    2.03167   2.03462   2.05417   2.06334   2.07169
 Alpha virt. eigenvalues --    2.07444   2.07741   2.08252   2.09221   2.09376
 Alpha virt. eigenvalues --    2.10114   2.11633   2.12643   2.13578   2.14593
 Alpha virt. eigenvalues --    2.15200   2.15827   2.17445   2.18369   2.19224
 Alpha virt. eigenvalues --    2.21319   2.21396   2.22387   2.23361   2.23913
 Alpha virt. eigenvalues --    2.24530   2.26044   2.26351   2.27475   2.29288
 Alpha virt. eigenvalues --    2.29913   2.30121   2.31918   2.32006   2.32900
 Alpha virt. eigenvalues --    2.33607   2.34313   2.35306   2.36023   2.37160
 Alpha virt. eigenvalues --    2.37294   2.38601   2.38617   2.39245   2.39602
 Alpha virt. eigenvalues --    2.40622   2.40821   2.40981   2.42291   2.42792
 Alpha virt. eigenvalues --    2.43176   2.43314   2.43782   2.44736   2.45237
 Alpha virt. eigenvalues --    2.45862   2.46067   2.46657   2.47105   2.48406
 Alpha virt. eigenvalues --    2.49706   2.51475   2.52744   2.53508   2.54284
 Alpha virt. eigenvalues --    2.55836   2.57384   2.57694   2.58124   2.58766
 Alpha virt. eigenvalues --    2.59360   2.59749   2.60071   2.60576   2.60759
 Alpha virt. eigenvalues --    2.61616   2.62307   2.62859   2.63614   2.64155
 Alpha virt. eigenvalues --    2.64880   2.65725   2.66817   2.67011   2.67969
 Alpha virt. eigenvalues --    2.68179   2.69154   2.69441   2.69655   2.70166
 Alpha virt. eigenvalues --    2.71136   2.71611   2.72198   2.72559   2.73447
 Alpha virt. eigenvalues --    2.73893   2.75218   2.77072   2.77404   2.78392
 Alpha virt. eigenvalues --    2.80336   2.81303   2.82214   2.83883   2.84699
 Alpha virt. eigenvalues --    2.84931   2.85770   2.86420   2.87341   2.88385
 Alpha virt. eigenvalues --    2.89149   2.89414   2.91893   2.92787   2.93892
 Alpha virt. eigenvalues --    2.95875   2.96785   2.97329   2.98497   3.00372
 Alpha virt. eigenvalues --    3.00969   3.02145   3.03601   3.04504   3.05945
 Alpha virt. eigenvalues --    3.07527   3.07724   3.08516   3.09831   3.10412
 Alpha virt. eigenvalues --    3.10936   3.11624   3.12151   3.13270   3.13712
 Alpha virt. eigenvalues --    3.14239   3.14854   3.15597   3.15689   3.16612
 Alpha virt. eigenvalues --    3.17136   3.17552   3.17886   3.18741   3.19908
 Alpha virt. eigenvalues --    3.20945   3.22025   3.22952   3.23548   3.23873
 Alpha virt. eigenvalues --    3.24171   3.24616   3.25234   3.25904   3.26542
 Alpha virt. eigenvalues --    3.27824   3.28090   3.28720   3.29366   3.29871
 Alpha virt. eigenvalues --    3.30491   3.31296   3.31649   3.32289   3.32932
 Alpha virt. eigenvalues --    3.33347   3.33919   3.34525   3.35043   3.35787
 Alpha virt. eigenvalues --    3.36165   3.36762   3.37814   3.38587   3.39115
 Alpha virt. eigenvalues --    3.39205   3.40527   3.41627   3.42077   3.42646
 Alpha virt. eigenvalues --    3.43008   3.43923   3.44530   3.45046   3.45570
 Alpha virt. eigenvalues --    3.45895   3.47188   3.48321   3.50262   3.51638
 Alpha virt. eigenvalues --    3.51879   3.52728   3.52888   3.54666   3.55394
 Alpha virt. eigenvalues --    3.56465   3.56950   3.57675   3.57980   3.58284
 Alpha virt. eigenvalues --    3.59512   3.60547   3.61249   3.61832   3.62073
 Alpha virt. eigenvalues --    3.63218   3.63597   3.64824   3.65618   3.65784
 Alpha virt. eigenvalues --    3.66662   3.67562   3.68531   3.69323   3.69404
 Alpha virt. eigenvalues --    3.70738   3.73459   3.74425   3.75541   3.76103
 Alpha virt. eigenvalues --    3.77483   3.77914   3.80355   3.80727   3.83900
 Alpha virt. eigenvalues --    3.85137   3.87819   3.89765   3.90634   3.91626
 Alpha virt. eigenvalues --    3.94146   3.94800   3.97047   3.98343   4.00763
 Alpha virt. eigenvalues --    4.01702   4.04389   4.06684   4.07833   4.11346
 Alpha virt. eigenvalues --    4.11742   4.12413   4.14812   4.15541   4.18910
 Alpha virt. eigenvalues --    4.21760   4.24088   4.25080   4.25415   4.26222
 Alpha virt. eigenvalues --    4.26780   4.27849   4.28394   4.28918   4.29448
 Alpha virt. eigenvalues --    4.30652   4.31071   4.33958   4.35322   4.36030
 Alpha virt. eigenvalues --    4.36836   4.37228   4.38393   4.38558   4.40263
 Alpha virt. eigenvalues --    4.41423   4.42946   4.45489   4.47001   4.48564
 Alpha virt. eigenvalues --    4.51597   4.53453   4.54434   4.56091   4.56736
 Alpha virt. eigenvalues --    4.61403   4.64678   4.66947   4.67093   4.70249
 Alpha virt. eigenvalues --    4.71156   4.73711   4.77545   4.80032   4.82930
 Alpha virt. eigenvalues --    4.84531   4.88366   4.92061   4.94917   5.00330
 Alpha virt. eigenvalues --    5.07471   5.12533   5.14383   5.17789   5.21753
 Alpha virt. eigenvalues --    5.24776   5.26060   5.26687   5.28919   5.38088
 Alpha virt. eigenvalues --    5.48062   5.48961   5.53082   5.60528   5.80962
 Alpha virt. eigenvalues --    5.84970   5.86671   5.89310   5.91527   6.01581
 Alpha virt. eigenvalues --    6.13065   6.17490   6.22244   6.36462   6.38566
 Alpha virt. eigenvalues --    6.51207   6.60949   6.63658   6.66158   6.66607
 Alpha virt. eigenvalues --    6.69500   6.76361   6.81427   6.84699   6.88765
 Alpha virt. eigenvalues --    6.92010   6.97610   7.04898   7.05993   7.16559
 Alpha virt. eigenvalues --    7.21425   7.34511   7.41889  12.16748  22.31376
 Alpha virt. eigenvalues --   22.38003  22.41465  22.42586  22.44296  22.53002
 Alpha virt. eigenvalues --   22.60887  22.65216  22.71461  22.77401  22.82836
 Alpha virt. eigenvalues --   22.87443  22.92143  23.44668  44.05461  44.49635
 Alpha virt. eigenvalues --   44.52046
          Condensed to atoms (all electrons):
               1          2          3          4          5          6
     1  C    5.505773  -0.019255   0.007736  -0.005704  -0.037660   0.442305
     2  C   -0.019255   5.929986  -0.012237   0.009745  -0.019104  -0.039342
     3  C    0.007736  -0.012237   5.809607  -0.232646   0.081881  -0.042334
     4  C   -0.005704   0.009745  -0.232646   6.215148   0.104751   0.003551
     5  C   -0.037660  -0.019104   0.081881   0.104751   4.419035  -0.005302
     6  H    0.442305  -0.039342  -0.042334   0.003551  -0.005302   0.533656
     7  H   -0.033351   0.433065  -0.040521   0.010519   0.000914   0.000604
     8  H    0.004821  -0.025774  -0.030375   0.402068  -0.007305  -0.000350
     9  H   -0.002725   0.015388  -0.023854   0.369090  -0.006051   0.000301
    10  O    0.135327   0.016558   0.017802  -0.159098   0.399742  -0.041104
    11  O    0.000437   0.001021   0.014647  -0.157765   0.740958   0.000287
    12  C    0.181907  -0.026147   0.014705  -0.003921   0.001373  -0.037876
    13  C   -0.045150   0.007069   0.000407  -0.000541   0.000498  -0.012909
    14  C   -0.028825   0.146884  -0.026297   0.013074  -0.008357   0.006848
    15  O    0.013717  -0.080646   0.177202  -0.022541  -0.003300  -0.000142
    16  Si  -0.001893   0.007677  -0.068671   0.013177  -0.002532  -0.000035
    17  C    0.000235  -0.001123   0.017756  -0.009856   0.000401   0.000003
    18  C    0.000246   0.000142  -0.007623   0.014652   0.000716   0.000000
    19  C   -0.000030  -0.000106   0.000247  -0.001266  -0.000069   0.000001
    20  H   -0.000002  -0.000040   0.000094  -0.000340  -0.000019   0.000000
    21  H   -0.000014   0.000031  -0.004562   0.004386   0.000617   0.000000
    22  H   -0.000006  -0.000030   0.004116  -0.004071  -0.000044   0.000000
    23  H    0.000002   0.000104   0.000584   0.000059  -0.000001   0.000000
    24  H    0.000001   0.000006   0.000034   0.000009   0.000000   0.000000
    25  H    0.000010   0.000151  -0.000087   0.000088   0.000001   0.000000
    26  H   -0.000003   0.000035  -0.000698   0.000224  -0.000005   0.000000
    27  H    0.000010  -0.000204  -0.002450   0.000997  -0.000008  -0.000001
    28  H   -0.000027   0.000077   0.005729  -0.003088  -0.000133  -0.000003
    29  H    0.010027  -0.063368   0.017838  -0.009158   0.000252  -0.000152
    30  H    0.009619  -0.040753  -0.028674   0.023716  -0.005427   0.000239
    31  H   -0.019766  -0.040983   0.009379  -0.000956   0.000117  -0.000082
    32  H   -0.022370  -0.020048  -0.001809   0.000308  -0.000900   0.006208
    33  H   -0.076036   0.017317  -0.002101   0.000690   0.000105  -0.000054
    34  H    0.013656  -0.000811   0.000062   0.000022   0.000007   0.000004
    35  H   -0.019420   0.000712  -0.000347   0.000653   0.000894   0.001091
    36  H    0.001744   0.000288  -0.000124   0.000057  -0.000210   0.002008
    37  C    0.047041  -0.108289   0.222915  -0.065823  -0.003402   0.014737
    38  C   -0.003611   0.001159  -0.028556   0.003891   0.001213   0.003930
    39  C   -0.006740   0.004396  -0.008557  -0.000355   0.000060   0.003305
    40  H   -0.003210   0.018252  -0.063827   0.001893  -0.002187   0.001445
    41  H    0.006134  -0.028045  -0.004801  -0.002130   0.000550  -0.014346
    42  H    0.001139  -0.005105   0.005123   0.000428  -0.000035  -0.000164
    43  H    0.000004   0.000033  -0.000150   0.000018   0.000003  -0.000062
    44  H   -0.000143  -0.000654  -0.001152   0.000021  -0.000012   0.000379
               7          8          9         10         11         12
     1  C   -0.033351   0.004821  -0.002725   0.135327   0.000437   0.181907
     2  C    0.433065  -0.025774   0.015388   0.016558   0.001021  -0.026147
     3  C   -0.040521  -0.030375  -0.023854   0.017802   0.014647   0.014705
     4  C    0.010519   0.402068   0.369090  -0.159098  -0.157765  -0.003921
     5  C    0.000914  -0.007305  -0.006051   0.399742   0.740958   0.001373
     6  H    0.000604  -0.000350   0.000301  -0.041104   0.000287  -0.037876
     7  H    0.490236  -0.000401  -0.000011   0.002913   0.000038  -0.010924
     8  H   -0.000401   0.448139  -0.010884   0.000617   0.003323   0.000218
     9  H   -0.000011  -0.010884   0.452789   0.006179   0.010900   0.000009
    10  O    0.002913   0.000617   0.006179   8.000395  -0.102681  -0.038117
    11  O    0.000038   0.003323   0.010900  -0.102681   7.858948  -0.000111
    12  C   -0.010924   0.000218   0.000009  -0.038117  -0.000111   5.227627
    13  C   -0.000247   0.000032  -0.000014  -0.002637  -0.000073   0.252409
    14  C   -0.033159  -0.004281   0.000592  -0.005800  -0.000164   0.011134
    15  O    0.002918  -0.002788  -0.001426  -0.000300  -0.000198  -0.000372
    16  Si  -0.000690  -0.006851   0.002137  -0.000250  -0.000680   0.000083
    17  C    0.000006   0.000879  -0.000488  -0.000002   0.000036  -0.000001
    18  C    0.000061  -0.004051  -0.003981  -0.000005   0.000002  -0.000003
    19  C   -0.000010   0.000028   0.000070  -0.000001  -0.000001  -0.000001
    20  H   -0.000002   0.000495   0.000057   0.000000  -0.000001   0.000000
    21  H    0.000005  -0.003559  -0.000582  -0.000003  -0.000009   0.000000
    22  H   -0.000014   0.000571   0.000198   0.000001   0.000003   0.000000
    23  H    0.000003  -0.000011  -0.000003   0.000000   0.000000   0.000000
    24  H    0.000003  -0.000004  -0.000003   0.000000   0.000000   0.000000
    25  H   -0.000025  -0.000002  -0.000011   0.000000   0.000000   0.000000
    26  H    0.000000  -0.000024   0.000012   0.000000   0.000000   0.000000
    27  H    0.000006  -0.000028  -0.000180   0.000000   0.000000   0.000000
    28  H   -0.000004  -0.000041   0.001910  -0.000003  -0.000044   0.000000
    29  H   -0.002877   0.001133  -0.000250  -0.000291  -0.000005  -0.000474
    30  H    0.006090  -0.006735   0.000406   0.004738  -0.000047  -0.010664
    31  H   -0.006330   0.000303   0.000018   0.000651  -0.000007   0.007679
    32  H    0.001406  -0.000048   0.000004  -0.000191  -0.000066   0.418209
    33  H   -0.000285  -0.000025  -0.000003   0.004737   0.000013   0.437308
    34  H   -0.000023   0.000000   0.000000   0.000210   0.000001  -0.053158
    35  H   -0.000058  -0.000010  -0.000006   0.008680   0.000307  -0.035590
    36  H    0.000164  -0.000001   0.000000  -0.000903   0.000003  -0.046678
    37  C   -0.014096   0.008913  -0.013991  -0.012129   0.001978  -0.002018
    38  C    0.001710  -0.000519   0.000289   0.001264  -0.000022   0.000594
    39  C    0.000401  -0.000016   0.000036  -0.000033   0.000003   0.000446
    40  H   -0.000079  -0.000612   0.003592  -0.000043  -0.000066   0.000035
    41  H    0.001178   0.000167  -0.000516   0.003673  -0.000613   0.000621
    42  H    0.000806  -0.000003  -0.000010  -0.000004   0.000000  -0.000019
    43  H    0.000062   0.000000   0.000000   0.000000   0.000000   0.000010
    44  H    0.000146   0.000001  -0.000001   0.000006  -0.000001  -0.000091
              13         14         15         16         17         18
     1  C   -0.045150  -0.028825   0.013717  -0.001893   0.000235   0.000246
     2  C    0.007069   0.146884  -0.080646   0.007677  -0.001123   0.000142
     3  C    0.000407  -0.026297   0.177202  -0.068671   0.017756  -0.007623
     4  C   -0.000541   0.013074  -0.022541   0.013177  -0.009856   0.014652
     5  C    0.000498  -0.008357  -0.003300  -0.002532   0.000401   0.000716
     6  H   -0.012909   0.006848  -0.000142  -0.000035   0.000003   0.000000
     7  H   -0.000247  -0.033159   0.002918  -0.000690   0.000006   0.000061
     8  H    0.000032  -0.004281  -0.002788  -0.006851   0.000879  -0.004051
     9  H   -0.000014   0.000592  -0.001426   0.002137  -0.000488  -0.003981
    10  O   -0.002637  -0.005800  -0.000300  -0.000250  -0.000002  -0.000005
    11  O   -0.000073  -0.000164  -0.000198  -0.000680   0.000036   0.000002
    12  C    0.252409   0.011134  -0.000372   0.000083  -0.000001  -0.000003
    13  C    5.052911  -0.000343   0.000013  -0.000002   0.000000   0.000000
    14  C   -0.000343   5.182409  -0.010047   0.003467  -0.000147  -0.001853
    15  O    0.000013  -0.010047   8.076711   0.370271  -0.026431  -0.019808
    16  Si  -0.000002   0.003467   0.370271  12.439146   0.336463   0.347056
    17  C    0.000000  -0.000147  -0.026431   0.336463   5.190438  -0.045052
    18  C    0.000000  -0.001853  -0.019808   0.347056  -0.045052   5.167997
    19  C    0.000000  -0.000145  -0.016799   0.386112  -0.046850  -0.045883
    20  H    0.000000   0.000036   0.001206  -0.028346   0.001499   0.384295
    21  H    0.000000   0.000124   0.001658  -0.036620   0.001182   0.393925
    22  H    0.000000  -0.000321  -0.000886  -0.040304   0.003184   0.393665
    23  H    0.000000   0.000024   0.000064  -0.033718   0.000666   0.002929
    24  H    0.000000  -0.000017   0.001326  -0.044384   0.003080   0.003167
    25  H    0.000000  -0.000199   0.000486  -0.032982   0.003092   0.000669
    26  H    0.000000   0.000002   0.001151  -0.023098   0.382894   0.000804
    27  H    0.000000   0.000002   0.000324  -0.040095   0.395704   0.003596
    28  H    0.000000   0.000013   0.000668  -0.034828   0.390894   0.000404
    29  H    0.000047   0.423755   0.005267  -0.002362   0.000243  -0.000118
    30  H   -0.000240   0.414330  -0.000155  -0.000644   0.000008   0.000251
    31  H    0.000395   0.429637   0.000553   0.000012   0.000002  -0.000003
    32  H   -0.034120   0.005352  -0.000003  -0.000001   0.000000   0.000000
    33  H   -0.030557  -0.006867  -0.000011  -0.000003   0.000000   0.000000
    34  H    0.422994   0.000021   0.000000   0.000000   0.000000   0.000000
    35  H    0.421331  -0.000085   0.000000   0.000000   0.000000   0.000000
    36  H    0.411725  -0.000001   0.000000   0.000000   0.000000   0.000000
    37  C   -0.000206   0.010550  -0.081828  -0.002725   0.000039   0.000419
    38  C    0.000256  -0.000144   0.010258  -0.002590  -0.000956   0.000102
    39  C    0.000003  -0.000193   0.002864  -0.000031  -0.000155   0.000010
    40  H   -0.000006  -0.000155  -0.006342  -0.002313  -0.003523  -0.000105
    41  H    0.000204  -0.001129   0.004868   0.000795  -0.000374   0.000033
    42  H    0.000004  -0.000475   0.006901  -0.001325   0.000006   0.000150
    43  H   -0.000003   0.000003  -0.000010   0.000015  -0.000003   0.000000
    44  H    0.000041  -0.000030  -0.000005  -0.000004  -0.000003   0.000000
              19         20         21         22         23         24
     1  C   -0.000030  -0.000002  -0.000014  -0.000006   0.000002   0.000001
     2  C   -0.000106  -0.000040   0.000031  -0.000030   0.000104   0.000006
     3  C    0.000247   0.000094  -0.004562   0.004116   0.000584   0.000034
     4  C   -0.001266  -0.000340   0.004386  -0.004071   0.000059   0.000009
     5  C   -0.000069  -0.000019   0.000617  -0.000044  -0.000001   0.000000
     6  H    0.000001   0.000000   0.000000   0.000000   0.000000   0.000000
     7  H   -0.000010  -0.000002   0.000005  -0.000014   0.000003   0.000003
     8  H    0.000028   0.000495  -0.003559   0.000571  -0.000011  -0.000004
     9  H    0.000070   0.000057  -0.000582   0.000198  -0.000003  -0.000003
    10  O   -0.000001   0.000000  -0.000003   0.000001   0.000000   0.000000
    11  O   -0.000001  -0.000001  -0.000009   0.000003   0.000000   0.000000
    12  C   -0.000001   0.000000   0.000000   0.000000   0.000000   0.000000
    13  C    0.000000   0.000000   0.000000   0.000000   0.000000   0.000000
    14  C   -0.000145   0.000036   0.000124  -0.000321   0.000024  -0.000017
    15  O   -0.016799   0.001206   0.001658  -0.000886   0.000064   0.001326
    16  Si   0.386112  -0.028346  -0.036620  -0.040304  -0.033718  -0.044384
    17  C   -0.046850   0.001499   0.001182   0.003184   0.000666   0.003080
    18  C   -0.045883   0.384295   0.393925   0.393665   0.002929   0.003167
    19  C    5.099036   0.001323   0.002636   0.002322   0.391799   0.394224
    20  H    0.001323   0.504186  -0.016683  -0.014585  -0.000113  -0.000031
    21  H    0.002636  -0.016683   0.508655  -0.019553  -0.000096  -0.000161
    22  H    0.002322  -0.014585  -0.019553   0.507326  -0.000176   0.000202
    23  H    0.391799  -0.000113  -0.000096  -0.000176   0.517367  -0.019422
    24  H    0.394224  -0.000031  -0.000161   0.000202  -0.019422   0.526129
    25  H    0.390911   0.000274  -0.000140   0.000830  -0.018064  -0.018966
    26  H    0.000259   0.000163   0.000216  -0.000131   0.000261   0.000143
    27  H    0.000500  -0.000176  -0.000162  -0.000098   0.000750   0.000211
    28  H    0.003522   0.000180   0.000820  -0.000200  -0.000121  -0.000175
    29  H   -0.000110   0.000002  -0.000039   0.000646  -0.000006   0.000022
    30  H   -0.000008  -0.000008   0.000022   0.000027  -0.000001   0.000001
    31  H    0.000005   0.000000   0.000000   0.000009   0.000000   0.000000
    32  H    0.000000   0.000000   0.000000   0.000000   0.000000   0.000000
    33  H    0.000000   0.000000   0.000000   0.000000   0.000000   0.000000
    34  H    0.000000   0.000000   0.000000   0.000000   0.000000   0.000000
    35  H    0.000000   0.000000   0.000000   0.000000   0.000000   0.000000
    36  H    0.000000   0.000000   0.000000   0.000000   0.000000   0.000000
    37  C    0.000419   0.000025   0.000440  -0.000112  -0.000505  -0.000046
    38  C   -0.000370  -0.000006  -0.000033   0.000015   0.000025   0.000018
    39  C   -0.000012   0.000000   0.000000   0.000000   0.000012   0.000001
    40  H    0.000314  -0.000003  -0.000094   0.000007   0.000029  -0.000007
    41  H    0.000001  -0.000001   0.000007  -0.000002   0.000003   0.000000
    42  H   -0.000248  -0.000004  -0.000005  -0.000004   0.000829   0.000032
    43  H    0.000000   0.000000   0.000000   0.000000  -0.000003   0.000000
    44  H    0.000000   0.000000   0.000000   0.000000   0.000000   0.000000
              25         26         27         28         29         30
     1  C    0.000010  -0.000003   0.000010  -0.000027   0.010027   0.009619
     2  C    0.000151   0.000035  -0.000204   0.000077  -0.063368  -0.040753
     3  C   -0.000087  -0.000698  -0.002450   0.005729   0.017838  -0.028674
     4  C    0.000088   0.000224   0.000997  -0.003088  -0.009158   0.023716
     5  C    0.000001  -0.000005  -0.000008  -0.000133   0.000252  -0.005427
     6  H    0.000000   0.000000  -0.000001  -0.000003  -0.000152   0.000239
     7  H   -0.000025   0.000000   0.000006  -0.000004  -0.002877   0.006090
     8  H   -0.000002  -0.000024  -0.000028  -0.000041   0.001133  -0.006735
     9  H   -0.000011   0.000012  -0.000180   0.001910  -0.000250   0.000406
    10  O    0.000000   0.000000   0.000000  -0.000003  -0.000291   0.004738
    11  O    0.000000   0.000000   0.000000  -0.000044  -0.000005  -0.000047
    12  C    0.000000   0.000000   0.000000   0.000000  -0.000474  -0.010664
    13  C    0.000000   0.000000   0.000000   0.000000   0.000047  -0.000240
    14  C   -0.000199   0.000002   0.000002   0.000013   0.423755   0.414330
    15  O    0.000486   0.001151   0.000324   0.000668   0.005267  -0.000155
    16  Si  -0.032982  -0.023098  -0.040095  -0.034828  -0.002362  -0.000644
    17  C    0.003092   0.382894   0.395704   0.390894   0.000243   0.000008
    18  C    0.000669   0.000804   0.003596   0.000404  -0.000118   0.000251
    19  C    0.390911   0.000259   0.000500   0.003522  -0.000110  -0.000008
    20  H    0.000274   0.000163  -0.000176   0.000180   0.000002  -0.000008
    21  H   -0.000140   0.000216  -0.000162   0.000820  -0.000039   0.000022
    22  H    0.000830  -0.000131  -0.000098  -0.000200   0.000646   0.000027
    23  H   -0.018064   0.000261   0.000750  -0.000121  -0.000006  -0.000001
    24  H   -0.018966   0.000143   0.000211  -0.000175   0.000022   0.000001
    25  H    0.515042  -0.000132  -0.000197  -0.000090   0.000705  -0.000001
    26  H   -0.000132   0.493601  -0.014319  -0.014420  -0.000005   0.000000
    27  H   -0.000197  -0.014319   0.508029  -0.021546  -0.000006   0.000000
    28  H   -0.000090  -0.014420  -0.021546   0.509478  -0.000006  -0.000003
    29  H    0.000705  -0.000005  -0.000006  -0.000006   0.490162  -0.022239
    30  H   -0.000001   0.000000   0.000000  -0.000003  -0.022239   0.510084
    31  H    0.000004   0.000000   0.000000   0.000000  -0.018944  -0.024011
    32  H    0.000000   0.000000   0.000000   0.000000   0.000396   0.000297
    33  H    0.000000   0.000000   0.000000   0.000000  -0.000151   0.000735
    34  H    0.000000   0.000000   0.000000   0.000000  -0.000002  -0.000007
    35  H    0.000000   0.000000   0.000000   0.000000  -0.000001   0.000016
    36  H    0.000000   0.000000   0.000000   0.000000   0.000001   0.000007
    37  C    0.000012   0.000366   0.003548  -0.006559   0.000651  -0.000192
    38  C    0.000031  -0.000051  -0.001190   0.000967   0.000093  -0.000075
    39  C    0.000001   0.000001   0.000154   0.000004  -0.000008  -0.000001
    40  H   -0.000010   0.000658  -0.003856   0.000638  -0.000072   0.000007
    41  H    0.000000   0.000005   0.000135  -0.000014  -0.000027  -0.000029
    42  H   -0.000018  -0.000003   0.000252   0.000027   0.000071   0.000002
    43  H    0.000000   0.000000   0.000002   0.000000  -0.000001   0.000000
    44  H    0.000000   0.000000  -0.000004   0.000002   0.000001   0.000000
              31         32         33         34         35         36
     1  C   -0.019766  -0.022370  -0.076036   0.013656  -0.019420   0.001744
     2  C   -0.040983  -0.020048   0.017317  -0.000811   0.000712   0.000288
     3  C    0.009379  -0.001809  -0.002101   0.000062  -0.000347  -0.000124
     4  C   -0.000956   0.000308   0.000690   0.000022   0.000653   0.000057
     5  C    0.000117  -0.000900   0.000105   0.000007   0.000894  -0.000210
     6  H   -0.000082   0.006208  -0.000054   0.000004   0.001091   0.002008
     7  H   -0.006330   0.001406  -0.000285  -0.000023  -0.000058   0.000164
     8  H    0.000303  -0.000048  -0.000025   0.000000  -0.000010  -0.000001
     9  H    0.000018   0.000004  -0.000003   0.000000  -0.000006   0.000000
    10  O    0.000651  -0.000191   0.004737   0.000210   0.008680  -0.000903
    11  O   -0.000007  -0.000066   0.000013   0.000001   0.000307   0.000003
    12  C    0.007679   0.418209   0.437308  -0.053158  -0.035590  -0.046678
    13  C    0.000395  -0.034120  -0.030557   0.422994   0.421331   0.411725
    14  C    0.429637   0.005352  -0.006867   0.000021  -0.000085  -0.000001
    15  O    0.000553  -0.000003  -0.000011   0.000000   0.000000   0.000000
    16  Si   0.000012  -0.000001  -0.000003   0.000000   0.000000   0.000000
    17  C    0.000002   0.000000   0.000000   0.000000   0.000000   0.000000
    18  C   -0.000003   0.000000   0.000000   0.000000   0.000000   0.000000
    19  C    0.000005   0.000000   0.000000   0.000000   0.000000   0.000000
    20  H    0.000000   0.000000   0.000000   0.000000   0.000000   0.000000
    21  H    0.000000   0.000000   0.000000   0.000000   0.000000   0.000000
    22  H    0.000009   0.000000   0.000000   0.000000   0.000000   0.000000
    23  H    0.000000   0.000000   0.000000   0.000000   0.000000   0.000000
    24  H    0.000000   0.000000   0.000000   0.000000   0.000000   0.000000
    25  H    0.000004   0.000000   0.000000   0.000000   0.000000   0.000000
    26  H    0.000000   0.000000   0.000000   0.000000   0.000000   0.000000
    27  H    0.000000   0.000000   0.000000   0.000000   0.000000   0.000000
    28  H    0.000000   0.000000   0.000000   0.000000   0.000000   0.000000
    29  H   -0.018944   0.000396  -0.000151  -0.000002  -0.000001   0.000001
    30  H   -0.024011   0.000297   0.000735  -0.000007   0.000016   0.000007
    31  H    0.498140  -0.007576  -0.001172   0.000008  -0.000008  -0.000039
    32  H   -0.007576   0.517080  -0.024070  -0.004180  -0.003102   0.006198
    33  H   -0.001172  -0.024070   0.523928  -0.003720   0.006135  -0.004495
    34  H    0.000008  -0.004180  -0.003720   0.522293  -0.023003  -0.024697
    35  H   -0.000008  -0.003102   0.006135  -0.023003   0.510288  -0.026691
    36  H   -0.000039   0.006198  -0.004495  -0.024697  -0.026691   0.541157
    37  C   -0.000380   0.000214   0.000252  -0.000003   0.000012   0.000063
    38  C   -0.000036  -0.000030   0.000006   0.000004  -0.000013  -0.000014
    39  C    0.000010  -0.000004   0.000277   0.000000   0.000006  -0.000036
    40  H    0.000011   0.000003   0.000004   0.000000   0.000000   0.000002
    41  H   -0.000002  -0.000044  -0.000059   0.000003  -0.000014   0.000004
    42  H    0.000004   0.000000  -0.000006   0.000000   0.000000   0.000001
    43  H    0.000000   0.000000   0.000004   0.000000   0.000000  -0.000003
    44  H    0.000000   0.000001  -0.000005  -0.000001  -0.000001   0.000057
              37         38         39         40         41         42
     1  C    0.047041  -0.003611  -0.006740  -0.003210   0.006134   0.001139
     2  C   -0.108289   0.001159   0.004396   0.018252  -0.028045  -0.005105
     3  C    0.222915  -0.028556  -0.008557  -0.063827  -0.004801   0.005123
     4  C   -0.065823   0.003891  -0.000355   0.001893  -0.002130   0.000428
     5  C   -0.003402   0.001213   0.000060  -0.002187   0.000550  -0.000035
     6  H    0.014737   0.003930   0.003305   0.001445  -0.014346  -0.000164
     7  H   -0.014096   0.001710   0.000401  -0.000079   0.001178   0.000806
     8  H    0.008913  -0.000519  -0.000016  -0.000612   0.000167  -0.000003
     9  H   -0.013991   0.000289   0.000036   0.003592  -0.000516  -0.000010
    10  O   -0.012129   0.001264  -0.000033  -0.000043   0.003673  -0.000004
    11  O    0.001978  -0.000022   0.000003  -0.000066  -0.000613   0.000000
    12  C   -0.002018   0.000594   0.000446   0.000035   0.000621  -0.000019
    13  C   -0.000206   0.000256   0.000003  -0.000006   0.000204   0.000004
    14  C    0.010550  -0.000144  -0.000193  -0.000155  -0.001129  -0.000475
    15  O   -0.081828   0.010258   0.002864  -0.006342   0.004868   0.006901
    16  Si  -0.002725  -0.002590  -0.000031  -0.002313   0.000795  -0.001325
    17  C    0.000039  -0.000956  -0.000155  -0.003523  -0.000374   0.000006
    18  C    0.000419   0.000102   0.000010  -0.000105   0.000033   0.000150
    19  C    0.000419  -0.000370  -0.000012   0.000314   0.000001  -0.000248
    20  H    0.000025  -0.000006   0.000000  -0.000003  -0.000001  -0.000004
    21  H    0.000440  -0.000033   0.000000  -0.000094   0.000007  -0.000005
    22  H   -0.000112   0.000015   0.000000   0.000007  -0.000002  -0.000004
    23  H   -0.000505   0.000025   0.000012   0.000029   0.000003   0.000829
    24  H   -0.000046   0.000018   0.000001  -0.000007   0.000000   0.000032
    25  H    0.000012   0.000031   0.000001  -0.000010   0.000000  -0.000018
    26  H    0.000366  -0.000051   0.000001   0.000658   0.000005  -0.000003
    27  H    0.003548  -0.001190   0.000154  -0.003856   0.000135   0.000252
    28  H   -0.006559   0.000967   0.000004   0.000638  -0.000014   0.000027
    29  H    0.000651   0.000093  -0.000008  -0.000072  -0.000027   0.000071
    30  H   -0.000192  -0.000075  -0.000001   0.000007  -0.000029   0.000002
    31  H   -0.000380  -0.000036   0.000010   0.000011  -0.000002   0.000004
    32  H    0.000214  -0.000030  -0.000004   0.000003  -0.000044   0.000000
    33  H    0.000252   0.000006   0.000277   0.000004  -0.000059  -0.000006
    34  H   -0.000003   0.000004   0.000000   0.000000   0.000003   0.000000
    35  H    0.000012  -0.000013   0.000006   0.000000  -0.000014   0.000000
    36  H    0.000063  -0.000014  -0.000036   0.000002   0.000004   0.000001
    37  C    5.399951   0.189261  -0.042667   0.437129   0.412629  -0.045266
    38  C    0.189261   5.226543   0.530353  -0.044785  -0.047899   0.406766
    39  C   -0.042667   0.530353   5.004727  -0.004924   0.003738  -0.019200
    40  H    0.437129  -0.044785  -0.004924   0.500366  -0.014583   0.001394
    41  H    0.412629  -0.047899   0.003738  -0.014583   0.483767   0.002887
    42  H   -0.045266   0.406766  -0.019200   0.001394   0.002887   0.476324
    43  H    0.006466  -0.052915   0.426580  -0.000341   0.000185  -0.005722
    44  H    0.006364  -0.070154   0.434966   0.000769   0.000218   0.003887
              43         44
     1  C    0.000004  -0.000143
     2  C    0.000033  -0.000654
     3  C   -0.000150  -0.001152
     4  C    0.000018   0.000021
     5  C    0.000003  -0.000012
     6  H   -0.000062   0.000379
     7  H    0.000062   0.000146
     8  H    0.000000   0.000001
     9  H    0.000000  -0.000001
    10  O    0.000000   0.000006
    11  O    0.000000  -0.000001
    12  C    0.000010  -0.000091
    13  C   -0.000003   0.000041
    14  C    0.000003  -0.000030
    15  O   -0.000010  -0.000005
    16  Si   0.000015  -0.000004
    17  C   -0.000003  -0.000003
    18  C    0.000000   0.000000
    19  C    0.000000   0.000000
    20  H    0.000000   0.000000
    21  H    0.000000   0.000000
    22  H    0.000000   0.000000
    23  H   -0.000003   0.000000
    24  H    0.000000   0.000000
    25  H    0.000000   0.000000
    26  H    0.000000   0.000000
    27  H    0.000002  -0.000004
    28  H    0.000000   0.000002
    29  H   -0.000001   0.000001
    30  H    0.000000   0.000000
    31  H    0.000000   0.000000
    32  H    0.000000   0.000001
    33  H    0.000004  -0.000005
    34  H    0.000000  -0.000001
    35  H    0.000000  -0.000001
    36  H   -0.000003   0.000057
    37  C    0.006466   0.006364
    38  C   -0.052915  -0.070154
    39  C    0.426580   0.434966
    40  H   -0.000341   0.000769
    41  H    0.000185   0.000218
    42  H   -0.005722   0.003887
    43  H    0.499753  -0.022398
    44  H   -0.022398   0.503399
 Mulliken charges:
               1
     1  C   -0.055949
     2  C   -0.078031
     3  C    0.224590
     4  C   -0.513974
     5  C    0.347974
     6  H    0.173356
     7  H    0.189852
     8  H    0.232991
     9  H    0.201015
    10  O   -0.239897
    11  O   -0.370352
    12  C   -0.288205
    13  C   -0.443292
    14  C   -0.519224
    15  O   -0.404389
    16  Si   0.501562
    17  C   -0.593745
    18  C   -0.586807
    19  C   -0.561822
    20  H    0.166526
    21  H    0.167591
    22  H    0.167414
    23  H    0.156728
    24  H    0.154605
    25  H    0.158619
    26  H    0.172094
    27  H    0.170300
    28  H    0.165970
    29  H    0.169360
    30  H    0.169320
    31  H    0.173355
    32  H    0.162888
    33  H    0.158106
    34  H    0.150321
    35  H    0.158223
    36  H    0.140413
    37  C   -0.364157
    38  C   -0.124780
    39  C   -0.329422
    40  H    0.184594
    41  H    0.192821
    42  H    0.170585
    43  H    0.148473
    44  H    0.144400
 Sum of Mulliken charges =   0.00000
 Mulliken charges with hydrogens summed into heavy atoms:
               1
     1  C    0.117407
     2  C    0.111821
     3  C    0.224590
     4  C   -0.079969
     5  C    0.347974
    10  O   -0.239897
    11  O   -0.370352
    12  C    0.032790
    13  C    0.005665
    14  C   -0.007188
    15  O   -0.404389
    16  Si   0.501562
    17  C   -0.085380
    18  C   -0.085276
    19  C   -0.091870
    37  C    0.013258
    38  C    0.045805
    39  C   -0.036549
 Electronic spatial extent (au):  <R**2>=           5662.8190
 Charge=              0.0000 electrons
 Dipole moment (field-independent basis, Debye):
    X=             -2.4069    Y=              3.4787    Z=              2.7023  Tot=              5.0197
 Quadrupole moment (field-independent basis, Debye-Ang):
   XX=           -116.8722   YY=           -128.5237   ZZ=           -124.9810
   XY=             12.1148   XZ=              9.0143   YZ=             -8.8202
 Traceless Quadrupole moment (field-independent basis, Debye-Ang):
   XX=              6.5868   YY=             -5.0647   ZZ=             -1.5220
   XY=             12.1148   XZ=              9.0143   YZ=             -8.8202
 Octapole moment (field-independent basis, Debye-Ang**2):
  XXX=            -17.6367  YYY=             29.6381  ZZZ=             14.9975  XYY=            -13.1252
  XXY=             15.4790  XXZ=             17.5844  XZZ=             -0.1767  YZZ=             10.5361
  YYZ=             27.0164  XYZ=            -20.7150
 Hexadecapole moment (field-independent basis, Debye-Ang**3):
 XXXX=          -4766.1766 YYYY=          -1776.7658 ZZZZ=          -1147.7110 XXXY=             58.9202
 XXXZ=             62.5320 YYYX=             38.1331 YYYZ=            -33.2767 ZZZX=             16.0408
 ZZZY=            -15.6068 XXYY=          -1156.4532 XXZZ=          -1026.3309 YYZZ=           -546.7860
 XXYZ=            -36.6249 YYXZ=             30.2852 ZZXY=             45.2343
 N-N= 1.621053682851D+03 E-N=-5.735185302962D+03  KE= 1.059315957139D+03
 1\1\GINC-CPU-E-118\SP\RM062X\def2TZVP\C14H26O3Si1\KE291\26-Jun-2019\0\
 \# m062x/def2tzvp int=ultrafine scrf=(solvent=chloroform)\\IP1_3ginp00
 1\\0,1\C,0,2.358632,0.147913,0.302777\C,0,0.9829,0.262237,0.974847\C,0
 ,-0.122638,0.124925,-0.107987\C,0,0.035737,-1.254757,-0.767593\C,0,1.4
 54701,-1.645572,-1.151287\H,0,2.480572,0.984034,-0.394744\H,0,0.921374
 ,1.285207,1.364304\H,0,-0.303081,-2.026601,-0.068014\H,0,-0.578261,-1.
 352796,-1.667022\O,0,2.489209,-1.066959,-0.50625\O,0,1.684384,-2.51821
 2,-1.962619\C,0,3.552414,0.150966,1.255745\C,0,4.901468,0.240683,0.535
 687\C,0,0.797291,-0.710754,2.150396\O,0,-1.378728,0.249537,0.554479\Si
 ,0,-2.96877,-0.198933,0.229603\C,0,-3.536519,0.32934,-1.492225\C,0,-3.
 214379,-2.061016,0.419807\C,0,-3.957385,0.713681,1.543653\H,0,-4.28354
 1,-2.29866,0.36893\H,0,-2.714826,-2.632945,-0.368447\H,0,-2.842512,-2.
 419254,1.385647\H,0,-3.839626,1.797996,1.447\H,0,-5.025031,0.482924,1.
 457071\H,0,-3.634316,0.429751,2.550569\H,0,-4.600973,0.095733,-1.61334
 4\H,0,-3.414889,1.406417,-1.647338\H,0,-2.998266,-0.191282,-2.291392\H
 ,0,-0.23275,-0.673535,2.507826\H,0,1.029339,-1.744852,1.875673\H,0,1.4
 52465,-0.439522,2.981919\H,0,3.519341,-0.750614,1.876421\H,0,3.432468,
 1.0071,1.931231\H,0,5.725304,0.239106,1.255637\H,0,5.040961,-0.6058,-0
 .141822\H,0,4.974908,1.161012,-0.054531\C,0,-0.028444,1.235832,-1.1928
 21\C,0,-0.075279,2.638566,-0.653478\C,0,0.796305,3.602659,-0.955586\H,
 0,-0.878282,1.07764,-1.86841\H,0,0.870696,1.09993,-1.803983\H,0,-0.899
 588,2.856921,0.023694\H,0,0.701275,4.604831,-0.547819\H,0,1.632264,3.4
 29162,-1.629987\\Version=ES64L-G09RevD.01\State=1-A\HF=-1064.3415707\R
 MSD=1.598e-09\Dipole=-0.9469463,1.3686409,1.0631488\Quadrupole=4.89711
 29,-3.7655139,-1.131599,9.0070629,6.7019282,-6.5575911\PG=C01 [X(C14H2
 6O3Si1)]\\@


 WORK FAITHFULLY FOR EIGHT HOURS A DAY AND DON'T WORRY.
 IN TIME YOU MAY BECOME BOSS AND WORK TWELVE HOURS A DAY
 AND HAVE ALL THE WORRY.
 Job cpu time:       0 days  2 hours 22 minutes 49.5 seconds.
 File lengths (MBytes):  RWF=    413 Int=      0 D2E=      0 Chk=     21 Scr=      1
 Normal termination of Gaussian 09 at Wed Jun 26 13:54:53 2019.
