 Entering Gaussian System, Link 0=/usr/local/Cluster-Apps/gaussian/g09/g09
 Initial command:
 /usr/local/Cluster-Apps/gaussian/g09/l1.exe "/home/ke291/rds/hpc-work/26Jun1304IP1NMR/Gau-429816.inp" -scrdir="/home/ke291/rds/hpc-work/26Jun1304IP1NMR/"
 Entering Link 1 = /usr/local/Cluster-Apps/gaussian/g09/l1.exe PID=    429840.
  
 Copyright (c) 1988,1990,1992,1993,1995,1998,2003,2009,2013,
            Gaussian, Inc.  All Rights Reserved.
  
 This is part of the Gaussian(R) 09 program.  It is based on
 the Gaussian(R) 03 system (copyright 2003, Gaussian, Inc.),
 the Gaussian(R) 98 system (copyright 1998, Gaussian, Inc.),
 the Gaussian(R) 94 system (copyright 1995, Gaussian, Inc.),
 the Gaussian 92(TM) system (copyright 1992, Gaussian, Inc.),
 the Gaussian 90(TM) system (copyright 1990, Gaussian, Inc.),
 the Gaussian 88(TM) system (copyright 1988, Gaussian, Inc.),
 the Gaussian 86(TM) system (copyright 1986, Carnegie Mellon
 University), and the Gaussian 82(TM) system (copyright 1983,
 Carnegie Mellon University). Gaussian is a federally registered
 trademark of Gaussian, Inc.
  
 This software contains proprietary and confidential information,
 including trade secrets, belonging to Gaussian, Inc.
  
 This software is provided under written license and may be
 used, copied, transmitted, or stored only in accord with that
 written license.
  
 The following legend is applicable only to US Government
 contracts under FAR:
  
                    RESTRICTED RIGHTS LEGEND
  
 Use, reproduction and disclosure by the US Government is
 subject to restrictions as set forth in subparagraphs (a)
 and (c) of the Commercial Computer Software - Restricted
 Rights clause in FAR 52.227-19.
  
 Gaussian, Inc.
 340 Quinnipiac St., Bldg. 40, Wallingford CT 06492
  
  
 ---------------------------------------------------------------
 Warning -- This program may not be used in any manner that
 competes with the business of Gaussian, Inc. or will provide
 assistance to any competitor of Gaussian, Inc.  The licensee
 of this program is prohibited from giving any competitor of
 Gaussian, Inc. access to this program.  By using this program,
 the user acknowledges that Gaussian, Inc. is engaged in the
 business of creating and licensing software in the field of
 computational chemistry and represents and warrants to the
 licensee that it is not a competitor of Gaussian, Inc. and that
 it will not use this program in any manner prohibited above.
 ---------------------------------------------------------------
  

 Cite this work as:
 Gaussian 09, Revision D.01,
 M. J. Frisch, G. W. Trucks, H. B. Schlegel, G. E. Scuseria, 
 M. A. Robb, J. R. Cheeseman, G. Scalmani, V. Barone, B. Mennucci, 
 G. A. Petersson, H. Nakatsuji, M. Caricato, X. Li, H. P. Hratchian, 
 A. F. Izmaylov, J. Bloino, G. Zheng, J. L. Sonnenberg, M. Hada, 
 M. Ehara, K. Toyota, R. Fukuda, J. Hasegawa, M. Ishida, T. Nakajima, 
 Y. Honda, O. Kitao, H. Nakai, T. Vreven, J. A. Montgomery, Jr., 
 J. E. Peralta, F. Ogliaro, M. Bearpark, J. J. Heyd, E. Brothers, 
 K. N. Kudin, V. N. Staroverov, T. Keith, R. Kobayashi, J. Normand, 
 K. Raghavachari, A. Rendell, J. C. Burant, S. S. Iyengar, J. Tomasi, 
 M. Cossi, N. Rega, J. M. Millam, M. Klene, J. E. Knox, J. B. Cross, 
 V. Bakken, C. Adamo, J. Jaramillo, R. Gomperts, R. E. Stratmann, 
 O. Yazyev, A. J. Austin, R. Cammi, C. Pomelli, J. W. Ochterski, 
 R. L. Martin, K. Morokuma, V. G. Zakrzewski, G. A. Voth, 
 P. Salvador, J. J. Dannenberg, S. Dapprich, A. D. Daniels, 
 O. Farkas, J. B. Foresman, J. V. Ortiz, J. Cioslowski, 
 and D. J. Fox, Gaussian, Inc., Wallingford CT, 2013.
 
 ******************************************
 Gaussian 09:  ES64L-G09RevD.01 24-Apr-2013
                26-Jun-2019 
 ******************************************
 %nprocshared=4
 Will use up to    4 processors via shared memory.
 %mem=6000MB
 %chk=IP1_4ginp001.chk
 --------------------------------------------------------
 # m062x/def2tzvp int=ultrafine scrf=(solvent=chloroform)
 --------------------------------------------------------
 1/38=1/1;
 2/12=2,17=6,18=5,40=1/2;
 3/5=44,7=101,11=2,16=1,25=1,30=1,70=2201,72=7,74=-55,75=-5/1,2,3;
 4//1;
 5/5=2,38=5,53=7/2;
 6/7=2,8=2,9=2,10=2,28=1/1;
 99/5=1,9=1/99;
 ------------
 IP1_4ginp001
 ------------
 Symbolic Z-matrix:
 Charge =  0 Multiplicity = 1
 C                    -2.35863   0.14791   0.30278 
 C                    -0.9829    0.26224   0.97485 
 C                     0.12264   0.12493  -0.10799 
 C                    -0.03574  -1.25476  -0.76759 
 C                    -1.4547   -1.64557  -1.15129 
 H                    -2.48057   0.98403  -0.39474 
 H                    -0.92137   1.28521   1.3643 
 H                     0.57826  -1.3528   -1.66702 
 H                     0.30308  -2.0266   -0.06801 
 O                    -2.48921  -1.06696  -0.50625 
 O                    -1.68438  -2.51821  -1.96262 
 C                    -3.55241   0.15097   1.25575 
 C                    -4.90147   0.24068   0.53569 
 C                    -0.79729  -0.71075   2.1504 
 O                     1.37873   0.24954   0.55448 
 Si                    2.96877  -0.19893   0.2296 
 C                     3.21438  -2.06102   0.4198 
 C                     3.53652   0.32934  -1.49222 
 C                     3.95738   0.71368   1.54366 
 H                     4.60097   0.09574  -1.61334 
 H                     2.99827  -0.19128  -2.29139 
 H                     3.41489   1.40642  -1.64733 
 H                     5.02503   0.48292   1.45707 
 H                     3.83963   1.79799   1.44701 
 H                     3.63432   0.42975   2.55057 
 H                     4.28354  -2.29866   0.36893 
 H                     2.84251  -2.41926   1.38564 
 H                     2.71483  -2.63294  -0.36845 
 H                    -1.45247  -0.43952   2.98192 
 H                    -1.02934  -1.74485   1.87567 
 H                     0.23275  -0.67354   2.50783 
 H                    -3.43247   1.0071    1.93123 
 H                    -3.51934  -0.75061   1.87642 
 H                    -5.7253    0.23911   1.25564 
 H                    -4.97491   1.16101  -0.05453 
 H                    -5.04096  -0.6058   -0.14182 
 C                     0.02844   1.23583  -1.19282 
 C                     0.07528   2.63857  -0.65348 
 C                    -0.7963    3.60266  -0.95559 
 H                    -0.8707    1.09993  -1.80398 
 H                     0.87828   1.07764  -1.86841 
 H                     0.89959   2.85692   0.0237 
 H                    -0.70128   4.60483  -0.54782 
 H                    -1.63226   3.42916  -1.62999 
 
                          Input orientation:                          
 ---------------------------------------------------------------------
 Center     Atomic      Atomic             Coordinates (Angstroms)
 Number     Number       Type             X           Y           Z
 ---------------------------------------------------------------------
      1          6           0       -2.358632    0.147914    0.302777
      2          6           0       -0.982900    0.262237    0.974847
      3          6           0        0.122638    0.124925   -0.107987
      4          6           0       -0.035737   -1.254757   -0.767594
      5          6           0       -1.454701   -1.645572   -1.151287
      6          1           0       -2.480572    0.984034   -0.394744
      7          1           0       -0.921374    1.285207    1.364304
      8          1           0        0.578260   -1.352796   -1.667022
      9          1           0        0.303081   -2.026601   -0.068014
     10          8           0       -2.489209   -1.066959   -0.506250
     11          8           0       -1.684384   -2.518213   -1.962619
     12          6           0       -3.552414    0.150966    1.255745
     13          6           0       -4.901468    0.240683    0.535686
     14          6           0       -0.797291   -0.710754    2.150396
     15          8           0        1.378728    0.249537    0.554480
     16         14           0        2.968770   -0.198933    0.229603
     17          6           0        3.214379   -2.061016    0.419803
     18          6           0        3.536519    0.329343   -1.492224
     19          6           0        3.957384    0.713678    1.543656
     20          1           0        4.600974    0.095737   -1.613342
     21          1           0        2.998268   -0.191277   -2.291392
     22          1           0        3.414890    1.406421   -1.647334
     23          1           0        5.025031    0.482921    1.457074
     24          1           0        3.839625    1.797994    1.447005
     25          1           0        3.634315    0.429745    2.550571
     26          1           0        4.283541   -2.298660    0.368926
     27          1           0        2.842511   -2.419256    1.385643
     28          1           0        2.714826   -2.632944   -0.368452
     29          1           0       -1.452465   -0.439523    2.981919
     30          1           0       -1.029339   -1.744852    1.875673
     31          1           0        0.232750   -0.673536    2.507826
     32          1           0       -3.432468    1.007101    1.931231
     33          1           0       -3.519341   -0.750614    1.876421
     34          1           0       -5.725304    0.239106    1.255637
     35          1           0       -4.974908    1.161013   -0.054531
     36          1           0       -5.040961   -0.605799   -0.141822
     37          6           0        0.028444    1.235832   -1.192821
     38          6           0        0.075279    2.638566   -0.653478
     39          6           0       -0.796304    3.602659   -0.955586
     40          1           0       -0.870695    1.099930   -1.803983
     41          1           0        0.878282    1.077640   -1.868410
     42          1           0        0.899588    2.856921    0.023695
     43          1           0       -0.701275    4.604831   -0.547819
     44          1           0       -1.632264    3.429162   -1.629987
 ---------------------------------------------------------------------
                    Distance matrix (angstroms):
                    1          2          3          4          5
     1  C    0.000000
     2  C    1.535378   0.000000
     3  C    2.515145   1.553576   0.000000
     4  C    2.917023   2.496896   1.537429   0.000000
     5  C    2.479513   2.895303   2.590585   1.520992   0.000000
     6  H    1.095674   2.154018   2.756266   3.335929   2.922259
     7  H    2.118015   1.096326   2.145660   3.432311   3.898987
     8  H    3.841559   3.467712   2.195869   1.093423   2.117695
     9  H    3.456981   2.824905   2.159449   1.095424   2.099634
    10  O    1.465432   2.495872   2.898438   2.474489   1.349471
    11  O    3.562985   4.105081   3.700158   2.396339   1.213473
    12  C    1.527505   2.587216   3.920006   4.293830   3.663571
    13  C    2.555165   3.943159   5.066493   5.254543   4.275984
    14  C    2.566864   1.537231   2.577775   3.064404   3.493878
    15  O    3.747204   2.398782   1.425536   2.451834   3.811745
    16  Si   5.339182   4.047686   2.884323   3.337099   4.854556
    17  C    5.995959   4.829361   3.823057   3.552917   4.943807
    18  C    6.165043   5.149378   3.689510   3.974352   5.378550
    19  C    6.461573   4.993370   4.216614   5.016137   6.489949
    20  H    7.218750   6.156792   4.724663   4.902878   6.317978
    21  H    5.961639   5.169496   3.624429   3.557827   4.821177
    22  H    6.222566   5.246479   3.853666   4.445519   5.768331
    23  H    7.480850   6.031292   5.158588   5.794829   7.302120
    24  H    6.515398   5.083132   4.362700   5.407603   6.829287
    25  H    6.406826   4.881561   4.415056   5.226571   6.626370
    26  H    7.078740   5.887337   4.838835   4.586673   5.972017
    27  H    5.900411   4.689662   4.012667   3.778465   5.049815
    28  H    5.824405   4.884639   3.793827   3.102307   4.355765
    29  H    2.888602   2.177452   3.513840   4.090302   4.305572
    30  H    2.797067   2.200466   2.959396   2.866060   3.058313
    31  H    3.500326   2.168756   2.737178   3.337406   4.145052
    32  H    2.131476   2.733107   4.192305   4.892590   4.522185
    33  H    2.151965   2.876149   4.238921   4.402326   3.772361
    34  H    3.500106   4.750766   6.005908   6.220632   5.251985
    35  H    2.828240   4.219425   5.202049   5.544350   4.633751
    36  H    2.821461   4.297475   5.215156   5.085765   3.867998
    37  C    3.019687   2.582535   1.555587   2.527444   3.240977
    38  C    3.611329   3.068896   2.572585   3.896577   4.576297
    39  C    3.994948   3.862617   3.695607   4.920192   5.292987
    40  H    2.749314   2.904516   2.194025   2.704775   2.881815
    41  H    4.007001   3.494709   2.139568   2.736294   3.656906
    42  H    4.246481   3.343776   2.843377   4.290322   5.214950
    43  H    4.830575   4.610417   4.576226   5.901357   6.324505
    44  H    3.876825   4.151656   4.039078   5.023118   5.100354
                    6          7          8          9         10
     6  H    0.000000
     7  H    2.369821   0.000000
     8  H    4.054124   4.289161   0.000000
     9  H    4.113320   3.810367   1.756862   0.000000
    10  O    2.054040   3.389655   3.292182   2.984937   0.000000
    11  O    3.918913   5.110441   2.562251   2.789485   2.207916
    12  C    2.137045   2.867169   5.278857   4.621577   2.391312
    13  C    2.697964   4.197474   6.117068   5.708972   2.935056
    14  C    3.490484   2.148767   4.108167   2.804214   3.169738
    15  O    4.041622   2.649320   2.853645   2.593322   4.221285
    16  Si   5.611109   4.315488   3.262380   3.245742   5.575346
    17  C    6.509092   5.403123   3.435919   2.952085   5.863160
    18  C    6.151298   5.380171   3.407557   4.246642   6.263482
    19  C    6.728875   4.915393   5.098750   4.843608   6.995094
    20  H    7.240328   6.385730   4.275904   5.036292   7.269677
    21  H    5.915769   5.559470   2.755976   3.946626   5.836605
    22  H    6.041843   5.280894   3.957289   4.895227   6.502159
    23  H    7.746897   6.001000   5.736166   5.560612   7.919632
    24  H    6.633209   4.789249   5.501013   5.424938   7.216460
    25  H    6.809843   4.784699   5.504999   4.897728   7.005842
    26  H    7.557281   6.397345   4.332303   4.013601   6.939248
    27  H    6.564097   5.281130   3.947522   2.952287   5.816804
    28  H    6.330512   5.619279   2.808910   2.504881   5.436293
    29  H    3.805965   2.423516   5.154664   3.860421   3.692673
    30  H    3.835061   3.074803   3.910086   2.373319   2.874772
    31  H    4.305179   2.544861   4.243834   2.910444   4.080257
    32  H    2.513324   2.589274   5.882387   5.211013   3.336581
    33  H    3.040762   3.340099   5.450591   4.474358   2.615027
    34  H    3.715772   4.917711   7.128184   6.574717   3.909266
    35  H    2.523644   4.296470   6.305318   6.165893   3.368473
    36  H    3.024422   4.776538   5.870254   5.530182   2.618571
    37  C    2.644899   2.728274   2.688524   3.461804   3.480345
    38  C    3.055617   2.626089   4.148642   4.707276   4.508790
    39  C    3.163621   3.281481   5.191541   5.803878   4.987300
    40  H    2.142683   3.174104   2.852033   3.763846   2.999851
    41  H    3.669108   3.705710   2.457151   3.634363   4.218386
    42  H    3.886937   2.753801   4.547911   4.920673   5.211681
    43  H    4.037264   3.837260   6.195413   6.724198   5.947070
    44  H    2.867770   3.750691   5.268293   5.995888   4.712987
                   11         12         13         14         15
    11  O    0.000000
    12  C    4.579511   0.000000
    13  C    4.919620   1.531823   0.000000
    14  C    4.579381   3.022195   4.511850   0.000000
    15  O    4.835171   4.981732   6.280230   2.864291   0.000000
    16  Si   5.642405   6.610691   7.888447   4.258476   1.683717
    17  C    5.466520   7.168065   8.436719   4.572926   2.954049
    18  C    5.965541   7.605006   8.678704   5.756074   2.975135
    19  C    7.387058   7.536352   8.928549   5.000407   2.800600
    20  H    6.816191   8.643636   9.743497   6.630039   3.886641
    21  H    5.239270   7.457261   8.401475   5.865629   3.303969
    22  H    6.442418   7.651625   8.676770   6.053730   3.214393
    23  H    8.106624   8.586227   9.972112   5.983727   3.763598
    24  H    7.795502   7.575719   8.925381   5.318794   3.041436
    25  H    7.572840   7.307761   8.772405   4.593475   3.017371
    26  H    6.410962   8.257682   9.531026   5.613371   3.868550
    27  H    5.631468   6.893329   8.232066   4.092919   3.155305
    28  H    4.680553   7.047444   8.190429   4.730156   3.308422
    29  H    5.368724   2.781751   4.282798   1.092817   3.792482
    30  H    3.969843   3.216262   4.553163   1.094841   3.394396
    31  H    5.202222   4.071238   5.575422   1.090929   2.445586
    32  H    5.535856   1.097103   2.166311   3.153287   5.061319
    33  H    4.607570   1.095070   2.165760   2.736093   5.170968
    34  H    5.855682   2.174677   1.094092   5.097856   7.138557
    35  H    5.291980   2.181859   1.095791   5.081112   6.447509
    36  H    4.270742   2.177535   1.093164   4.824315   6.513743
    37  C    4.197526   4.471572   5.318091   3.955772   2.418492
    38  C    5.603805   4.795148   5.650838   4.454327   2.977516
    39  C    6.266409   4.939667   5.511728   5.315323   4.272527
    40  H    3.711902   4.177809   4.739144   4.349837   3.368296
    41  H    4.416593   5.500012   6.315511   4.707090   2.608946
    42  H    6.286050   5.353547   6.384284   4.486709   2.703657
    43  H    7.328432   5.587374   6.153161   5.961965   4.950764
    44  H    5.956898   4.770848   5.054130   5.668102   4.893668
                   16         17         18         19         20
    16  Si   0.000000
    17  C    1.887817   0.000000
    18  C    1.888413   3.077895   0.000000
    19  C    1.880679   3.084482   3.088917   0.000000
    20  H    2.479388   3.272294   1.096497   3.280655   0.000000
    21  H    2.521179   3.300486   1.095184   4.055421   1.763745
    22  H    2.509796   4.041829   1.094966   3.310077   1.768005
    23  H    2.489944   3.290290   3.307206   1.095726   3.123650
    24  H    2.495631   4.042033   3.299678   1.094966   3.583721
    25  H    2.495011   3.304604   4.045224   1.094929   4.287676
    26  H    2.481308   1.096435   3.305801   3.249700   3.124626
    27  H    2.506433   1.095203   4.039624   3.329142   4.290838
    28  H    2.519239   1.094532   3.273101   4.049690   3.543022
    29  H    5.213487   5.565349   6.745300   5.715325   7.618862
    30  H    4.591763   4.497628   6.040867   5.569741   6.874694
    31  H    3.591845   3.895517   5.284038   4.089851   6.054518
    32  H    6.732452   7.475181   7.793984   7.405824   8.827841
    33  H    6.716543   7.012979   7.892987   7.626028   8.878867
    34  H    8.765361   9.268609   9.661276   9.698589  10.718377
    35  H    8.064255   8.813109   8.671968   9.085161   9.760237
    36  H    8.028654   8.401412   8.733341   9.249436   9.778775
    37  C    3.567542   4.860035   3.635651   4.816380   4.731246
    38  C    4.147713   5.752560   4.244548   4.858326   5.279132
    39  C    5.480197   7.074920   5.456733   6.098358   6.470066
    40  H    4.534756   5.623578   4.484923   5.887803   5.566319
    41  H    3.225126   4.532596   2.787057   4.610372   3.858449
    42  H    3.696235   5.449887   3.954752   4.031611   4.899417
    43  H    6.095061   7.791159   6.093488   6.420159   7.041386
    44  H    6.147411   7.604843   6.028613   6.977824   7.068611
                   21         22         23         24         25
    21  H    0.000000
    22  H    1.772293   0.000000
    23  H    4.314314   3.617009   0.000000
    24  H    4.317487   3.147803   1.770510   0.000000
    25  H    4.922888   4.315605   1.769931   1.769778   0.000000
    26  H    3.629088   4.306679   3.077510   4.259330   3.553205
    27  H    4.302178   4.915524   3.631959   4.333959   3.178178
    28  H    3.120861   4.294426   4.286981   4.918767   4.329690
    29  H    6.904959   6.966250   6.718185   5.947156   5.178515
    30  H    5.999970   6.487933   6.464796   6.036748   5.189800
    31  H    5.559960   5.631837   5.040578   4.499261   3.576269
    32  H    7.785950   7.736401   8.486983   7.330984   7.117327
    33  H    7.756465   8.071754   8.643133   7.799627   7.281656
    34  H    9.426948   9.660901  10.754986   9.693019   9.450697
    35  H    8.390695   8.543182  10.136249   8.964170   9.024413
    36  H    8.331968   8.821395  10.250169   9.336348   9.142305
    37  C    3.473234   3.421067   5.705673   4.670097   5.259759
    38  C    4.385731   3.695799   5.796661   4.391912   5.273666
    39  C    5.529657   4.799597   7.031475   5.524590   6.480039
    40  H    4.107756   4.299385   6.765706   5.765703   6.301302
    41  H    2.506672   2.567363   5.348650   4.503381   5.248131
    42  H    4.365272   3.350079   4.970888   3.433796   4.444662
    43  H    6.303120   5.327436   7.334870   5.698897   6.769690
    44  H    5.914969   5.437421   7.907582   6.486151   7.362773
                   26         27         28         29         30
    26  H    0.000000
    27  H    1.767717   0.000000
    28  H    1.765316   1.771670   0.000000
    29  H    6.571597   4.991419   5.779481   0.000000
    30  H    5.550107   3.960577   4.454613   1.762583   0.000000
    31  H    4.860538   3.334319   4.274688   1.766204   1.772062
    32  H    8.538480   7.170282   7.505178   2.667785   3.653951
    33  H    8.096540   6.595331   6.888212   2.364504   2.681160
    34  H   10.363566   8.971691   9.062126   4.658083   5.135428
    35  H    9.892802   8.718054   8.580482   4.918267   5.266617
    36  H    9.490679   8.232309   8.019533   4.760537   4.632584
    37  C    5.747829   5.284611   4.781596   4.735859   4.406704
    38  C    6.567418   6.115321   5.902310   5.002474   5.179878
    39  C    7.898400   7.415240   7.180216   5.680997   6.055263
    40  H    6.545082   6.028788   5.371318   5.060951   4.653796
    41  H    5.291584   5.164817   4.403544   5.591051   5.061980
    42  H    6.176596   5.785144   5.795471   5.014956   5.322302
    43  H    8.564286   8.101512   8.005455   6.202326   6.804367
    44  H    8.473509   7.957489   7.565566   6.022352   6.278821
                   31         32         33         34         35
    31  H    0.000000
    32  H    4.073184   0.000000
    33  H    3.805627   1.760714   0.000000
    34  H    6.156241   2.510645   2.496235   0.000000
    35  H    6.086949   2.519139   3.082461   1.769053   0.000000
    36  H    5.902309   3.079975   2.531719   1.770616   1.770200
    37  C    4.169198   4.667969   5.094408   6.331984   5.131748
    38  C    4.581338   4.652600   5.550516   6.561165   5.295875
    39  C    5.598216   4.692547   5.863973   6.363807   4.922831
    40  H    4.791082   4.530245   4.897470   5.802544   4.461937
    41  H    4.757601   5.746722   6.058495   7.353241   6.128372
    42  H    4.368032   5.082050   5.997819   7.229096   6.114894
    43  H    6.170132   5.152549   6.519143   6.895859   5.510640
    44  H    6.118162   4.667910   5.772909   5.937698   4.335877
                   36         37         38         39         40
    36  H    0.000000
    37  C    5.495004   0.000000
    38  C    6.079770   1.503578   0.000000
    39  C    6.032449   2.517610   1.334317   0.000000
    40  H    4.802438   1.095646   2.141478   2.643665   0.000000
    41  H    6.391597   1.097119   2.134798   3.164365   1.750305
    42  H    6.878077   2.206067   1.088911   2.095511   3.092139
    43  H    6.793259   3.506946   2.116695   1.086118   3.727061
    44  H    5.487692   2.785635   2.119980   1.088001   2.456742
                   41         42         43         44
    41  H    0.000000
    42  H    2.597375   0.000000
    43  H    4.084120   2.438151   0.000000
    44  H    3.448093   3.077726   1.849331   0.000000
 Stoichiometry    C14H26O3Si
 Framework group  C1[X(C14H26O3Si)]
 Deg. of freedom   126
 Full point group                 C1      NOp   1
 Largest Abelian subgroup         C1      NOp   1
 Largest concise Abelian subgroup C1      NOp   1
                         Standard orientation:                         
 ---------------------------------------------------------------------
 Center     Atomic      Atomic             Coordinates (Angstroms)
 Number     Number       Type             X           Y           Z
 ---------------------------------------------------------------------
      1          6           0       -2.358632    0.147914    0.302777
      2          6           0       -0.982900    0.262237    0.974847
      3          6           0        0.122638    0.124925   -0.107987
      4          6           0       -0.035737   -1.254757   -0.767594
      5          6           0       -1.454701   -1.645572   -1.151287
      6          1           0       -2.480572    0.984034   -0.394744
      7          1           0       -0.921374    1.285207    1.364304
      8          1           0        0.578260   -1.352796   -1.667022
      9          1           0        0.303081   -2.026601   -0.068014
     10          8           0       -2.489209   -1.066959   -0.506250
     11          8           0       -1.684384   -2.518213   -1.962619
     12          6           0       -3.552414    0.150966    1.255745
     13          6           0       -4.901468    0.240683    0.535686
     14          6           0       -0.797291   -0.710754    2.150396
     15          8           0        1.378728    0.249537    0.554480
     16         14           0        2.968770   -0.198933    0.229603
     17          6           0        3.214379   -2.061016    0.419803
     18          6           0        3.536519    0.329343   -1.492224
     19          6           0        3.957384    0.713678    1.543656
     20          1           0        4.600974    0.095737   -1.613342
     21          1           0        2.998268   -0.191277   -2.291392
     22          1           0        3.414890    1.406421   -1.647334
     23          1           0        5.025031    0.482921    1.457074
     24          1           0        3.839625    1.797994    1.447005
     25          1           0        3.634315    0.429745    2.550571
     26          1           0        4.283541   -2.298660    0.368926
     27          1           0        2.842511   -2.419256    1.385643
     28          1           0        2.714826   -2.632944   -0.368452
     29          1           0       -1.452465   -0.439523    2.981919
     30          1           0       -1.029339   -1.744852    1.875673
     31          1           0        0.232750   -0.673536    2.507826
     32          1           0       -3.432468    1.007101    1.931231
     33          1           0       -3.519341   -0.750614    1.876421
     34          1           0       -5.725304    0.239106    1.255637
     35          1           0       -4.974908    1.161013   -0.054531
     36          1           0       -5.040961   -0.605799   -0.141822
     37          6           0        0.028444    1.235832   -1.192821
     38          6           0        0.075279    2.638566   -0.653478
     39          6           0       -0.796304    3.602659   -0.955586
     40          1           0       -0.870695    1.099930   -1.803983
     41          1           0        0.878282    1.077640   -1.868410
     42          1           0        0.899588    2.856921    0.023695
     43          1           0       -0.701275    4.604831   -0.547819
     44          1           0       -1.632264    3.429162   -1.629987
 ---------------------------------------------------------------------
 Rotational constants (GHZ):      0.5480351      0.2479676      0.2218323
 Standard basis: def2TZVP (5D, 7F)
 There are   810 symmetry adapted cartesian basis functions of A   symmetry.
 There are   720 symmetry adapted basis functions of A   symmetry.
   720 basis functions,  1144 primitive gaussians,   810 cartesian basis functions
    74 alpha electrons       74 beta electrons
       nuclear repulsion energy      1621.0536265546 Hartrees.
 NAtoms=   44 NActive=   44 NUniq=   44 SFac= 1.00D+00 NAtFMM=   60 NAOKFM=F Big=F
 Integral buffers will be    131072 words long.
 Raffenetti 2 integral format.
 Two-electron integral symmetry is turned on.
 ------------------------------------------------------------------------------
 Polarizable Continuum Model (PCM)
 =================================
 Model                : PCM (using non-symmetric T matrix).
 Atomic radii         : UFF (Universal Force Field).
 Polarization charges : Total charges.
 Charge compensation  : None.
 Solution method      : On-the-fly selection.
 Cavity type          : Scaled VdW (van der Waals Surface) (Alpha=1.100).
 Cavity algorithm     : GePol (No added spheres)
                        Default sphere list used, NSphG=   44.
                        Lebedev-Laikov grids with approx.  5.0 points / Ang**2.
                        Smoothing algorithm: Karplus/York (Gamma=1.0000).
                        Polarization charges: spherical gaussians, with
                                              point-specific exponents (IZeta= 3).
                        Self-potential: point-specific (ISelfS= 7).
                        Self-field    : sphere-specific E.n sum rule (ISelfD= 2).
 Solvent              : Chloroform, Eps=   4.711300 Eps(inf)=   2.090627
 ------------------------------------------------------------------------------
 One-electron integrals computed using PRISM.
   1 Symmetry operations used in ECPInt.
 ECPInt:  NShTT=   46360 NPrTT=  137514 LenC2=   41886 LenP2D=   89822.
 LDataN:  DoStor=T MaxTD1= 6 Len=  172
 NBasis=   720 RedAO= T EigKep=  4.37D-05  NBF=   720
 NBsUse=   720 1.00D-06 EigRej= -1.00D+00 NBFU=   720
 ExpMin= 7.01D-02 ExpMax= 4.48D+04 ExpMxC= 1.53D+03 IAcc=3 IRadAn=         5 AccDes= 0.00D+00
 Harris functional with IExCor= 1009 and IRadAn=       5 diagonalized for initial guess.
 HarFok:  IExCor= 1009 AccDes= 0.00D+00 IRadAn=         5 IDoV= 1 UseB2=F ITyADJ=14
 ICtDFT=  3500011 ScaDFX=  1.000000  1.000000  1.000000  1.000000
 FoFCou: FMM=F IPFlag=           0 FMFlag=      100000 FMFlg1=           0
         NFxFlg=           0 DoJE=T BraDBF=F KetDBF=T FulRan=T
         wScrn=  0.000000 ICntrl=     500 IOpCl=  0 I1Cent=   200000004 NGrid=           0
         NMat0=    1 NMatS0=      1 NMatT0=    0 NMatD0=    1 NMtDS0=    0 NMtDT0=    0
 Petite list used in FoFCou.
 Requested convergence on RMS density matrix=1.00D-08 within 128 cycles.
 Requested convergence on MAX density matrix=1.00D-06.
 Requested convergence on             energy=1.00D-06.
 No special actions if energy rises.
 Inv3:  Mode=1 IEnd=    25719552.
 Iteration    1 A*A^-1 deviation from unit magnitude is 5.77D-15 for   2905.
 Iteration    1 A*A^-1 deviation from orthogonality  is 4.95D-15 for   2301    979.
 Iteration    1 A^-1*A deviation from unit magnitude is 6.22D-15 for   2905.
 Iteration    1 A^-1*A deviation from orthogonality  is 6.02D-13 for   2705   2678.
 Error on total polarization charges =  0.01480
 SCF Done:  E(RM062X) =  -1064.34157066     A.U. after   14 cycles
            NFock= 14  Conv=0.16D-08     -V/T= 2.0047

 **********************************************************************

            Population analysis using the SCF density.

 **********************************************************************

 Orbital symmetries:
       Occupied  (A) (A) (A) (A) (A) (A) (A) (A) (A) (A) (A) (A)
                 (A) (A) (A) (A) (A) (A) (A) (A) (A) (A) (A) (A)
                 (A) (A) (A) (A) (A) (A) (A) (A) (A) (A) (A) (A)
                 (A) (A) (A) (A) (A) (A) (A) (A) (A) (A) (A) (A)
                 (A) (A) (A) (A) (A) (A) (A) (A) (A) (A) (A) (A)
                 (A) (A) (A) (A) (A) (A) (A) (A) (A) (A) (A) (A)
                 (A) (A)
       Virtual   (A) (A) (A) (A) (A) (A) (A) (A) (A) (A) (A) (A)
                 (A) (A) (A) (A) (A) (A) (A) (A) (A) (A) (A) (A)
                 (A) (A) (A) (A) (A) (A) (A) (A) (A) (A) (A) (A)
                 (A) (A) (A) (A) (A) (A) (A) (A) (A) (A) (A) (A)
                 (A) (A) (A) (A) (A) (A) (A) (A) (A) (A) (A) (A)
                 (A) (A) (A) (A) (A) (A) (A) (A) (A) (A) (A) (A)
                 (A) (A) (A) (A) (A) (A) (A) (A) (A) (A) (A) (A)
                 (A) (A) (A) (A) (A) (A) (A) (A) (A) (A) (A) (A)
                 (A) (A) (A) (A) (A) (A) (A) (A) (A) (A) (A) (A)
                 (A) (A) (A) (A) (A) (A) (A) (A) (A) (A) (A) (A)
                 (A) (A) (A) (A) (A) (A) (A) (A) (A) (A) (A) (A)
                 (A) (A) (A) (A) (A) (A) (A) (A) (A) (A) (A) (A)
                 (A) (A) (A) (A) (A) (A) (A) (A) (A) (A) (A) (A)
                 (A) (A) (A) (A) (A) (A) (A) (A) (A) (A) (A) (A)
                 (A) (A) (A) (A) (A) (A) (A) (A) (A) (A) (A) (A)
                 (A) (A) (A) (A) (A) (A) (A) (A) (A) (A) (A) (A)
                 (A) (A) (A) (A) (A) (A) (A) (A) (A) (A) (A) (A)
                 (A) (A) (A) (A) (A) (A) (A) (A) (A) (A) (A) (A)
                 (A) (A) (A) (A) (A) (A) (A) (A) (A) (A) (A) (A)
                 (A) (A) (A) (A) (A) (A) (A) (A) (A) (A) (A) (A)
                 (A) (A) (A) (A) (A) (A) (A) (A) (A) (A) (A) (A)
                 (A) (A) (A) (A) (A) (A) (A) (A) (A) (A) (A) (A)
                 (A) (A) (A) (A) (A) (A) (A) (A) (A) (A) (A) (A)
                 (A) (A) (A) (A) (A) (A) (A) (A) (A) (A) (A) (A)
                 (A) (A) (A) (A) (A) (A) (A) (A) (A) (A) (A) (A)
                 (A) (A) (A) (A) (A) (A) (A) (A) (A) (A) (A) (A)
                 (A) (A) (A) (A) (A) (A) (A) (A) (A) (A) (A) (A)
                 (A) (A) (A) (A) (A) (A) (A) (A) (A) (A) (A) (A)
                 (A) (A) (A) (A) (A) (A) (A) (A) (A) (A) (A) (A)
                 (A) (A) (A) (A) (A) (A) (A) (A) (A) (A) (A) (A)
                 (A) (A) (A) (A) (A) (A) (A) (A) (A) (A) (A) (A)
                 (A) (A) (A) (A) (A) (A) (A) (A) (A) (A) (A) (A)
                 (A) (A) (A) (A) (A) (A) (A) (A) (A) (A) (A) (A)
                 (A) (A) (A) (A) (A) (A) (A) (A) (A) (A) (A) (A)
                 (A) (A) (A) (A) (A) (A) (A) (A) (A) (A) (A) (A)
                 (A) (A) (A) (A) (A) (A) (A) (A) (A) (A) (A) (A)
                 (A) (A) (A) (A) (A) (A) (A) (A) (A) (A) (A) (A)
                 (A) (A) (A) (A) (A) (A) (A) (A) (A) (A) (A) (A)
                 (A) (A) (A) (A) (A) (A) (A) (A) (A) (A) (A) (A)
                 (A) (A) (A) (A) (A) (A) (A) (A) (A) (A) (A) (A)
                 (A) (A) (A) (A) (A) (A) (A) (A) (A) (A) (A) (A)
                 (A) (A) (A) (A) (A) (A) (A) (A) (A) (A) (A) (A)
                 (A) (A) (A) (A) (A) (A) (A) (A) (A) (A) (A) (A)
                 (A) (A) (A) (A) (A) (A) (A) (A) (A) (A) (A) (A)
                 (A) (A) (A) (A) (A) (A) (A) (A) (A) (A) (A) (A)
                 (A) (A) (A) (A) (A) (A) (A) (A) (A) (A) (A) (A)
                 (A) (A) (A) (A) (A) (A) (A) (A) (A) (A) (A) (A)
                 (A) (A) (A) (A) (A) (A) (A) (A) (A) (A) (A) (A)
                 (A) (A) (A) (A) (A) (A) (A) (A) (A) (A) (A) (A)
                 (A) (A) (A) (A) (A) (A) (A) (A) (A) (A) (A) (A)
                 (A) (A) (A) (A) (A) (A) (A) (A) (A) (A) (A) (A)
                 (A) (A) (A) (A) (A) (A) (A) (A) (A) (A) (A) (A)
                 (A) (A) (A) (A) (A) (A) (A) (A) (A) (A) (A) (A)
                 (A) (A) (A) (A) (A) (A) (A) (A) (A) (A)
 The electronic state is 1-A.
 Alpha  occ. eigenvalues --  -67.01742 -19.67295 -19.62041 -19.61740 -10.68393
 Alpha  occ. eigenvalues --  -10.62096 -10.60848 -10.55900 -10.55283 -10.54860
 Alpha  occ. eigenvalues --  -10.54743 -10.54092 -10.53647 -10.52868 -10.52526
 Alpha  occ. eigenvalues --  -10.51268 -10.51083 -10.50877  -5.55191  -3.86377
 Alpha  occ. eigenvalues --   -3.86234  -3.86223  -1.22945  -1.14294  -1.13420
 Alpha  occ. eigenvalues --   -0.93622  -0.90508  -0.88372  -0.84679  -0.80939
 Alpha  occ. eigenvalues --   -0.80160  -0.78299  -0.77015  -0.76875  -0.73285
 Alpha  occ. eigenvalues --   -0.70363  -0.68816  -0.64892  -0.60819  -0.59350
 Alpha  occ. eigenvalues --   -0.58832  -0.57081  -0.56491  -0.54316  -0.53241
 Alpha  occ. eigenvalues --   -0.52001  -0.50456  -0.50333  -0.49838  -0.49112
 Alpha  occ. eigenvalues --   -0.48178  -0.47682  -0.47583  -0.46729  -0.46194
 Alpha  occ. eigenvalues --   -0.45935  -0.45201  -0.44649  -0.44502  -0.44104
 Alpha  occ. eigenvalues --   -0.43589  -0.43171  -0.42442  -0.41728  -0.41266
 Alpha  occ. eigenvalues --   -0.40512  -0.39615  -0.38310  -0.36689  -0.36504
 Alpha  occ. eigenvalues --   -0.35841  -0.34536  -0.33835  -0.32015
 Alpha virt. eigenvalues --    0.03084   0.03631   0.04757   0.06650   0.07460
 Alpha virt. eigenvalues --    0.07670   0.08826   0.09661   0.09830   0.10114
 Alpha virt. eigenvalues --    0.10685   0.11162   0.11406   0.12123   0.12623
 Alpha virt. eigenvalues --    0.13215   0.13614   0.14005   0.15124   0.15202
 Alpha virt. eigenvalues --    0.15401   0.15831   0.16009   0.16359   0.16681
 Alpha virt. eigenvalues --    0.16978   0.17276   0.17494   0.18120   0.18220
 Alpha virt. eigenvalues --    0.18840   0.19428   0.19505   0.20254   0.20507
 Alpha virt. eigenvalues --    0.20889   0.21206   0.22450   0.22902   0.23032
 Alpha virt. eigenvalues --    0.23378   0.23752   0.24308   0.25177   0.25750
 Alpha virt. eigenvalues --    0.26568   0.27117   0.27269   0.27448   0.27993
 Alpha virt. eigenvalues --    0.28171   0.29406   0.29833   0.30290   0.30626
 Alpha virt. eigenvalues --    0.31526   0.32219   0.32610   0.33202   0.33955
 Alpha virt. eigenvalues --    0.34179   0.34668   0.36081   0.36279   0.36719
 Alpha virt. eigenvalues --    0.37112   0.37555   0.37951   0.38305   0.39046
 Alpha virt. eigenvalues --    0.39255   0.39503   0.40781   0.41039   0.41890
 Alpha virt. eigenvalues --    0.42240   0.42648   0.43555   0.43631   0.44068
 Alpha virt. eigenvalues --    0.44829   0.45055   0.45190   0.45956   0.46441
 Alpha virt. eigenvalues --    0.46822   0.46974   0.47412   0.47971   0.48249
 Alpha virt. eigenvalues --    0.48620   0.48830   0.49184   0.49431   0.49611
 Alpha virt. eigenvalues --    0.50048   0.50500   0.50805   0.51197   0.51284
 Alpha virt. eigenvalues --    0.51863   0.52474   0.52772   0.53096   0.53742
 Alpha virt. eigenvalues --    0.54106   0.54498   0.55264   0.55460   0.55940
 Alpha virt. eigenvalues --    0.56568   0.56957   0.57670   0.57949   0.58280
 Alpha virt. eigenvalues --    0.59439   0.60468   0.61037   0.61211   0.61400
 Alpha virt. eigenvalues --    0.62122   0.62898   0.63058   0.64162   0.65515
 Alpha virt. eigenvalues --    0.66328   0.66574   0.67139   0.67679   0.68742
 Alpha virt. eigenvalues --    0.69403   0.70974   0.71673   0.72059   0.73394
 Alpha virt. eigenvalues --    0.73747   0.74915   0.75678   0.76697   0.77227
 Alpha virt. eigenvalues --    0.77545   0.78607   0.79091   0.79700   0.81211
 Alpha virt. eigenvalues --    0.82189   0.83146   0.83711   0.84499   0.86057
 Alpha virt. eigenvalues --    0.86899   0.87667   0.88398   0.89235   0.90337
 Alpha virt. eigenvalues --    0.91794   0.92260   0.93115   0.93491   0.94232
 Alpha virt. eigenvalues --    0.94575   0.94977   0.96435   0.96922   0.97275
 Alpha virt. eigenvalues --    0.97877   0.99285   0.99897   1.00804   1.01270
 Alpha virt. eigenvalues --    1.01644   1.02910   1.03824   1.04557   1.04981
 Alpha virt. eigenvalues --    1.05164   1.05974   1.06601   1.06894   1.07355
 Alpha virt. eigenvalues --    1.07955   1.09368   1.09606   1.10137   1.11713
 Alpha virt. eigenvalues --    1.12234   1.12507   1.13235   1.13982   1.14843
 Alpha virt. eigenvalues --    1.15739   1.16827   1.17748   1.18926   1.19671
 Alpha virt. eigenvalues --    1.20498   1.21394   1.22847   1.23324   1.23717
 Alpha virt. eigenvalues --    1.24209   1.25878   1.26988   1.27267   1.28806
 Alpha virt. eigenvalues --    1.29391   1.30106   1.32025   1.32356   1.32922
 Alpha virt. eigenvalues --    1.34786   1.35568   1.36512   1.36943   1.37510
 Alpha virt. eigenvalues --    1.39539   1.40066   1.40884   1.41885   1.42804
 Alpha virt. eigenvalues --    1.43541   1.44759   1.45411   1.45784   1.46476
 Alpha virt. eigenvalues --    1.47172   1.47685   1.49536   1.50596   1.53556
 Alpha virt. eigenvalues --    1.53966   1.55061   1.55883   1.56110   1.56933
 Alpha virt. eigenvalues --    1.57320   1.57635   1.58334   1.58849   1.58899
 Alpha virt. eigenvalues --    1.59073   1.59955   1.60477   1.61381   1.61970
 Alpha virt. eigenvalues --    1.62125   1.62750   1.63019   1.63801   1.63927
 Alpha virt. eigenvalues --    1.64779   1.65915   1.66190   1.66428   1.66773
 Alpha virt. eigenvalues --    1.67337   1.67736   1.68171   1.68536   1.69335
 Alpha virt. eigenvalues --    1.69932   1.70544   1.71729   1.71929   1.73466
 Alpha virt. eigenvalues --    1.74637   1.74780   1.75441   1.76249   1.77435
 Alpha virt. eigenvalues --    1.79742   1.80280   1.81242   1.82157   1.82896
 Alpha virt. eigenvalues --    1.83281   1.84565   1.85024   1.86735   1.87460
 Alpha virt. eigenvalues --    1.87844   1.88228   1.90117   1.91616   1.92560
 Alpha virt. eigenvalues --    1.94606   1.94928   1.96075   1.97728   1.98134
 Alpha virt. eigenvalues --    1.99202   2.00195   2.00555   2.01173   2.01942
 Alpha virt. eigenvalues --    2.03167   2.03462   2.05417   2.06334   2.07169
 Alpha virt. eigenvalues --    2.07444   2.07741   2.08252   2.09221   2.09376
 Alpha virt. eigenvalues --    2.10114   2.11633   2.12643   2.13578   2.14593
 Alpha virt. eigenvalues --    2.15200   2.15827   2.17445   2.18369   2.19224
 Alpha virt. eigenvalues --    2.21319   2.21396   2.22387   2.23361   2.23913
 Alpha virt. eigenvalues --    2.24530   2.26044   2.26351   2.27475   2.29288
 Alpha virt. eigenvalues --    2.29913   2.30121   2.31918   2.32006   2.32900
 Alpha virt. eigenvalues --    2.33607   2.34313   2.35306   2.36023   2.37160
 Alpha virt. eigenvalues --    2.37294   2.38601   2.38617   2.39245   2.39602
 Alpha virt. eigenvalues --    2.40622   2.40821   2.40981   2.42290   2.42792
 Alpha virt. eigenvalues --    2.43176   2.43314   2.43782   2.44736   2.45237
 Alpha virt. eigenvalues --    2.45862   2.46067   2.46657   2.47105   2.48406
 Alpha virt. eigenvalues --    2.49706   2.51475   2.52744   2.53508   2.54284
 Alpha virt. eigenvalues --    2.55836   2.57384   2.57694   2.58124   2.58766
 Alpha virt. eigenvalues --    2.59360   2.59749   2.60071   2.60576   2.60759
 Alpha virt. eigenvalues --    2.61616   2.62307   2.62859   2.63614   2.64155
 Alpha virt. eigenvalues --    2.64880   2.65725   2.66817   2.67011   2.67969
 Alpha virt. eigenvalues --    2.68179   2.69154   2.69441   2.69655   2.70166
 Alpha virt. eigenvalues --    2.71136   2.71611   2.72198   2.72559   2.73447
 Alpha virt. eigenvalues --    2.73893   2.75218   2.77072   2.77404   2.78392
 Alpha virt. eigenvalues --    2.80336   2.81303   2.82214   2.83883   2.84699
 Alpha virt. eigenvalues --    2.84931   2.85770   2.86420   2.87341   2.88385
 Alpha virt. eigenvalues --    2.89149   2.89414   2.91893   2.92787   2.93892
 Alpha virt. eigenvalues --    2.95875   2.96785   2.97329   2.98497   3.00372
 Alpha virt. eigenvalues --    3.00969   3.02145   3.03601   3.04504   3.05945
 Alpha virt. eigenvalues --    3.07527   3.07724   3.08516   3.09831   3.10412
 Alpha virt. eigenvalues --    3.10936   3.11624   3.12151   3.13270   3.13712
 Alpha virt. eigenvalues --    3.14239   3.14854   3.15597   3.15689   3.16613
 Alpha virt. eigenvalues --    3.17136   3.17552   3.17886   3.18741   3.19908
 Alpha virt. eigenvalues --    3.20945   3.22025   3.22952   3.23548   3.23873
 Alpha virt. eigenvalues --    3.24171   3.24616   3.25234   3.25904   3.26542
 Alpha virt. eigenvalues --    3.27824   3.28090   3.28720   3.29366   3.29871
 Alpha virt. eigenvalues --    3.30491   3.31296   3.31649   3.32289   3.32932
 Alpha virt. eigenvalues --    3.33347   3.33919   3.34525   3.35043   3.35787
 Alpha virt. eigenvalues --    3.36165   3.36762   3.37814   3.38587   3.39115
 Alpha virt. eigenvalues --    3.39205   3.40527   3.41627   3.42077   3.42646
 Alpha virt. eigenvalues --    3.43008   3.43923   3.44530   3.45046   3.45570
 Alpha virt. eigenvalues --    3.45895   3.47188   3.48321   3.50262   3.51638
 Alpha virt. eigenvalues --    3.51879   3.52727   3.52888   3.54666   3.55394
 Alpha virt. eigenvalues --    3.56465   3.56950   3.57675   3.57980   3.58284
 Alpha virt. eigenvalues --    3.59512   3.60547   3.61249   3.61832   3.62073
 Alpha virt. eigenvalues --    3.63218   3.63597   3.64824   3.65618   3.65784
 Alpha virt. eigenvalues --    3.66662   3.67562   3.68531   3.69323   3.69404
 Alpha virt. eigenvalues --    3.70738   3.73459   3.74425   3.75541   3.76103
 Alpha virt. eigenvalues --    3.77483   3.77914   3.80355   3.80727   3.83900
 Alpha virt. eigenvalues --    3.85137   3.87819   3.89765   3.90634   3.91626
 Alpha virt. eigenvalues --    3.94146   3.94800   3.97047   3.98343   4.00763
 Alpha virt. eigenvalues --    4.01702   4.04389   4.06684   4.07833   4.11346
 Alpha virt. eigenvalues --    4.11742   4.12413   4.14812   4.15541   4.18910
 Alpha virt. eigenvalues --    4.21760   4.24088   4.25080   4.25415   4.26222
 Alpha virt. eigenvalues --    4.26780   4.27849   4.28394   4.28918   4.29448
 Alpha virt. eigenvalues --    4.30652   4.31071   4.33958   4.35322   4.36030
 Alpha virt. eigenvalues --    4.36836   4.37228   4.38393   4.38558   4.40263
 Alpha virt. eigenvalues --    4.41423   4.42946   4.45489   4.47001   4.48564
 Alpha virt. eigenvalues --    4.51596   4.53453   4.54434   4.56091   4.56736
 Alpha virt. eigenvalues --    4.61403   4.64678   4.66947   4.67093   4.70249
 Alpha virt. eigenvalues --    4.71156   4.73711   4.77545   4.80032   4.82930
 Alpha virt. eigenvalues --    4.84531   4.88366   4.92061   4.94917   5.00330
 Alpha virt. eigenvalues --    5.07471   5.12533   5.14383   5.17789   5.21753
 Alpha virt. eigenvalues --    5.24776   5.26060   5.26687   5.28919   5.38088
 Alpha virt. eigenvalues --    5.48062   5.48961   5.53082   5.60528   5.80962
 Alpha virt. eigenvalues --    5.84970   5.86671   5.89310   5.91527   6.01581
 Alpha virt. eigenvalues --    6.13065   6.17490   6.22244   6.36461   6.38566
 Alpha virt. eigenvalues --    6.51207   6.60949   6.63658   6.66158   6.66607
 Alpha virt. eigenvalues --    6.69500   6.76361   6.81427   6.84699   6.88765
 Alpha virt. eigenvalues --    6.92010   6.97610   7.04898   7.05993   7.16560
 Alpha virt. eigenvalues --    7.21425   7.34511   7.41889  12.16748  22.31375
 Alpha virt. eigenvalues --   22.38003  22.41465  22.42586  22.44296  22.53002
 Alpha virt. eigenvalues --   22.60887  22.65216  22.71461  22.77401  22.82836
 Alpha virt. eigenvalues --   22.87443  22.92143  23.44667  44.05461  44.49635
 Alpha virt. eigenvalues --   44.52046
          Condensed to atoms (all electrons):
               1          2          3          4          5          6
     1  C    5.505773  -0.019255   0.007736  -0.005704  -0.037660   0.442306
     2  C   -0.019255   5.929985  -0.012237   0.009745  -0.019104  -0.039342
     3  C    0.007736  -0.012237   5.809606  -0.232647   0.081882  -0.042333
     4  C   -0.005704   0.009745  -0.232647   6.215149   0.104750   0.003550
     5  C   -0.037660  -0.019104   0.081882   0.104750   4.419035  -0.005302
     6  H    0.442306  -0.039342  -0.042333   0.003550  -0.005302   0.533655
     7  H   -0.033351   0.433065  -0.040521   0.010519   0.000914   0.000604
     8  H   -0.002725   0.015388  -0.023854   0.369090  -0.006051   0.000301
     9  H    0.004821  -0.025774  -0.030375   0.402068  -0.007305  -0.000350
    10  O    0.135327   0.016558   0.017802  -0.159098   0.399742  -0.041104
    11  O    0.000437   0.001021   0.014647  -0.157765   0.740958   0.000287
    12  C    0.181907  -0.026147   0.014705  -0.003921   0.001373  -0.037875
    13  C   -0.045151   0.007069   0.000407  -0.000541   0.000498  -0.012909
    14  C   -0.028825   0.146884  -0.026297   0.013075  -0.008357   0.006848
    15  O    0.013717  -0.080646   0.177202  -0.022541  -0.003300  -0.000142
    16  Si  -0.001893   0.007677  -0.068671   0.013177  -0.002532  -0.000035
    17  C    0.000246   0.000142  -0.007623   0.014652   0.000716   0.000000
    18  C    0.000235  -0.001123   0.017756  -0.009856   0.000401   0.000003
    19  C   -0.000030  -0.000106   0.000247  -0.001266  -0.000069   0.000001
    20  H   -0.000003   0.000035  -0.000698   0.000224  -0.000005   0.000000
    21  H   -0.000027   0.000077   0.005729  -0.003088  -0.000133  -0.000003
    22  H    0.000010  -0.000204  -0.002450   0.000997  -0.000008  -0.000001
    23  H    0.000001   0.000006   0.000034   0.000009   0.000000   0.000000
    24  H    0.000002   0.000104   0.000584   0.000059  -0.000001   0.000000
    25  H    0.000010   0.000151  -0.000087   0.000088   0.000001   0.000000
    26  H   -0.000002  -0.000040   0.000094  -0.000340  -0.000019   0.000000
    27  H   -0.000006  -0.000030   0.004116  -0.004071  -0.000044   0.000000
    28  H   -0.000014   0.000031  -0.004562   0.004386   0.000617   0.000000
    29  H   -0.019766  -0.040983   0.009379  -0.000956   0.000117  -0.000082
    30  H    0.009619  -0.040753  -0.028674   0.023716  -0.005427   0.000239
    31  H    0.010027  -0.063368   0.017838  -0.009158   0.000252  -0.000152
    32  H   -0.076036   0.017317  -0.002101   0.000690   0.000105  -0.000054
    33  H   -0.022370  -0.020048  -0.001809   0.000308  -0.000900   0.006208
    34  H    0.013656  -0.000811   0.000062   0.000022   0.000007   0.000004
    35  H    0.001744   0.000288  -0.000124   0.000057  -0.000210   0.002008
    36  H   -0.019420   0.000712  -0.000347   0.000653   0.000894   0.001091
    37  C    0.047041  -0.108288   0.222915  -0.065823  -0.003402   0.014737
    38  C   -0.003611   0.001159  -0.028556   0.003891   0.001213   0.003930
    39  C   -0.006740   0.004396  -0.008557  -0.000355   0.000060   0.003305
    40  H    0.006134  -0.028045  -0.004801  -0.002130   0.000550  -0.014346
    41  H   -0.003210   0.018252  -0.063827   0.001893  -0.002187   0.001445
    42  H    0.001139  -0.005105   0.005123   0.000428  -0.000035  -0.000164
    43  H    0.000004   0.000033  -0.000150   0.000018   0.000003  -0.000062
    44  H   -0.000143  -0.000654  -0.001152   0.000021  -0.000012   0.000379
               7          8          9         10         11         12
     1  C   -0.033351  -0.002725   0.004821   0.135327   0.000437   0.181907
     2  C    0.433065   0.015388  -0.025774   0.016558   0.001021  -0.026147
     3  C   -0.040521  -0.023854  -0.030375   0.017802   0.014647   0.014705
     4  C    0.010519   0.369090   0.402068  -0.159098  -0.157765  -0.003921
     5  C    0.000914  -0.006051  -0.007305   0.399742   0.740958   0.001373
     6  H    0.000604   0.000301  -0.000350  -0.041104   0.000287  -0.037875
     7  H    0.490236  -0.000011  -0.000401   0.002913   0.000038  -0.010924
     8  H   -0.000011   0.452789  -0.010884   0.006179   0.010900   0.000009
     9  H   -0.000401  -0.010884   0.448139   0.000617   0.003323   0.000218
    10  O    0.002913   0.006179   0.000617   8.000395  -0.102681  -0.038117
    11  O    0.000038   0.010900   0.003323  -0.102681   7.858949  -0.000111
    12  C   -0.010924   0.000009   0.000218  -0.038117  -0.000111   5.227628
    13  C   -0.000247  -0.000014   0.000032  -0.002637  -0.000073   0.252409
    14  C   -0.033159   0.000592  -0.004281  -0.005800  -0.000164   0.011134
    15  O    0.002918  -0.001426  -0.002788  -0.000300  -0.000198  -0.000372
    16  Si  -0.000690   0.002136  -0.006851  -0.000250  -0.000680   0.000083
    17  C    0.000061  -0.003981  -0.004051  -0.000005   0.000002  -0.000003
    18  C    0.000006  -0.000488   0.000879  -0.000002   0.000036  -0.000001
    19  C   -0.000010   0.000070   0.000028  -0.000001  -0.000001  -0.000001
    20  H    0.000000   0.000012  -0.000024   0.000000   0.000000   0.000000
    21  H   -0.000004   0.001910  -0.000041  -0.000003  -0.000044   0.000000
    22  H    0.000006  -0.000180  -0.000028   0.000000   0.000000   0.000000
    23  H    0.000003  -0.000003  -0.000004   0.000000   0.000000   0.000000
    24  H    0.000003  -0.000003  -0.000011   0.000000   0.000000   0.000000
    25  H   -0.000025  -0.000011  -0.000002   0.000000   0.000000   0.000000
    26  H   -0.000002   0.000057   0.000495   0.000000  -0.000001   0.000000
    27  H   -0.000014   0.000198   0.000571   0.000001   0.000003   0.000000
    28  H    0.000005  -0.000582  -0.003559  -0.000003  -0.000009   0.000000
    29  H   -0.006330   0.000018   0.000303   0.000651  -0.000007   0.007679
    30  H    0.006090   0.000406  -0.006735   0.004738  -0.000047  -0.010664
    31  H   -0.002877  -0.000250   0.001133  -0.000291  -0.000005  -0.000474
    32  H   -0.000285  -0.000003  -0.000025   0.004737   0.000013   0.437308
    33  H    0.001406   0.000004  -0.000048  -0.000191  -0.000066   0.418209
    34  H   -0.000023   0.000000   0.000000   0.000210   0.000001  -0.053158
    35  H    0.000164   0.000000  -0.000001  -0.000903   0.000003  -0.046678
    36  H   -0.000058  -0.000006  -0.000010   0.008680   0.000307  -0.035590
    37  C   -0.014096  -0.013991   0.008913  -0.012129   0.001978  -0.002018
    38  C    0.001710   0.000289  -0.000519   0.001264  -0.000022   0.000594
    39  C    0.000401   0.000036  -0.000016  -0.000033   0.000003   0.000446
    40  H    0.001178  -0.000516   0.000167   0.003673  -0.000613   0.000621
    41  H   -0.000079   0.003592  -0.000612  -0.000043  -0.000066   0.000035
    42  H    0.000806  -0.000010  -0.000003  -0.000004   0.000000  -0.000019
    43  H    0.000062   0.000000   0.000000   0.000000   0.000000   0.000010
    44  H    0.000146  -0.000001   0.000001   0.000006  -0.000001  -0.000091
              13         14         15         16         17         18
     1  C   -0.045151  -0.028825   0.013717  -0.001893   0.000246   0.000235
     2  C    0.007069   0.146884  -0.080646   0.007677   0.000142  -0.001123
     3  C    0.000407  -0.026297   0.177202  -0.068671  -0.007623   0.017756
     4  C   -0.000541   0.013075  -0.022541   0.013177   0.014652  -0.009856
     5  C    0.000498  -0.008357  -0.003300  -0.002532   0.000716   0.000401
     6  H   -0.012909   0.006848  -0.000142  -0.000035   0.000000   0.000003
     7  H   -0.000247  -0.033159   0.002918  -0.000690   0.000061   0.000006
     8  H   -0.000014   0.000592  -0.001426   0.002136  -0.003981  -0.000488
     9  H    0.000032  -0.004281  -0.002788  -0.006851  -0.004051   0.000879
    10  O   -0.002637  -0.005800  -0.000300  -0.000250  -0.000005  -0.000002
    11  O   -0.000073  -0.000164  -0.000198  -0.000680   0.000002   0.000036
    12  C    0.252409   0.011134  -0.000372   0.000083  -0.000003  -0.000001
    13  C    5.052910  -0.000343   0.000013  -0.000002   0.000000   0.000000
    14  C   -0.000343   5.182409  -0.010047   0.003467  -0.001853  -0.000147
    15  O    0.000013  -0.010047   8.076711   0.370270  -0.019808  -0.026431
    16  Si  -0.000002   0.003467   0.370270  12.439146   0.347056   0.336463
    17  C    0.000000  -0.001853  -0.019808   0.347056   5.167997  -0.045052
    18  C    0.000000  -0.000147  -0.026431   0.336463  -0.045052   5.190438
    19  C    0.000000  -0.000145  -0.016799   0.386112  -0.045883  -0.046850
    20  H    0.000000   0.000002   0.001151  -0.023097   0.000804   0.382894
    21  H    0.000000   0.000013   0.000668  -0.034828   0.000404   0.390894
    22  H    0.000000   0.000002   0.000324  -0.040095   0.003596   0.395704
    23  H    0.000000  -0.000017   0.001326  -0.044384   0.003167   0.003080
    24  H    0.000000   0.000024   0.000064  -0.033718   0.002929   0.000666
    25  H    0.000000  -0.000199   0.000486  -0.032982   0.000669   0.003092
    26  H    0.000000   0.000036   0.001206  -0.028346   0.384295   0.001499
    27  H    0.000000  -0.000321  -0.000886  -0.040304   0.393665   0.003184
    28  H    0.000000   0.000124   0.001658  -0.036620   0.393925   0.001182
    29  H    0.000395   0.429637   0.000553   0.000012  -0.000003   0.000002
    30  H   -0.000240   0.414330  -0.000155  -0.000644   0.000251   0.000008
    31  H    0.000047   0.423755   0.005267  -0.002362  -0.000118   0.000243
    32  H   -0.030557  -0.006867  -0.000011  -0.000003   0.000000   0.000000
    33  H   -0.034120   0.005352  -0.000003  -0.000001   0.000000   0.000000
    34  H    0.422994   0.000021   0.000000   0.000000   0.000000   0.000000
    35  H    0.411725  -0.000001   0.000000   0.000000   0.000000   0.000000
    36  H    0.421331  -0.000085   0.000000   0.000000   0.000000   0.000000
    37  C   -0.000206   0.010550  -0.081828  -0.002725   0.000419   0.000039
    38  C    0.000256  -0.000144   0.010258  -0.002590   0.000102  -0.000956
    39  C    0.000003  -0.000193   0.002864  -0.000031   0.000010  -0.000155
    40  H    0.000204  -0.001129   0.004868   0.000795   0.000033  -0.000374
    41  H   -0.000006  -0.000155  -0.006342  -0.002313  -0.000105  -0.003523
    42  H    0.000004  -0.000475   0.006901  -0.001325   0.000150   0.000006
    43  H   -0.000003   0.000003  -0.000010   0.000015   0.000000  -0.000003
    44  H    0.000041  -0.000030  -0.000005  -0.000004   0.000000  -0.000003
              19         20         21         22         23         24
     1  C   -0.000030  -0.000003  -0.000027   0.000010   0.000001   0.000002
     2  C   -0.000106   0.000035   0.000077  -0.000204   0.000006   0.000104
     3  C    0.000247  -0.000698   0.005729  -0.002450   0.000034   0.000584
     4  C   -0.001266   0.000224  -0.003088   0.000997   0.000009   0.000059
     5  C   -0.000069  -0.000005  -0.000133  -0.000008   0.000000  -0.000001
     6  H    0.000001   0.000000  -0.000003  -0.000001   0.000000   0.000000
     7  H   -0.000010   0.000000  -0.000004   0.000006   0.000003   0.000003
     8  H    0.000070   0.000012   0.001910  -0.000180  -0.000003  -0.000003
     9  H    0.000028  -0.000024  -0.000041  -0.000028  -0.000004  -0.000011
    10  O   -0.000001   0.000000  -0.000003   0.000000   0.000000   0.000000
    11  O   -0.000001   0.000000  -0.000044   0.000000   0.000000   0.000000
    12  C   -0.000001   0.000000   0.000000   0.000000   0.000000   0.000000
    13  C    0.000000   0.000000   0.000000   0.000000   0.000000   0.000000
    14  C   -0.000145   0.000002   0.000013   0.000002  -0.000017   0.000024
    15  O   -0.016799   0.001151   0.000668   0.000324   0.001326   0.000064
    16  Si   0.386112  -0.023097  -0.034828  -0.040095  -0.044384  -0.033718
    17  C   -0.045883   0.000804   0.000404   0.003596   0.003167   0.002929
    18  C   -0.046850   0.382894   0.390894   0.395704   0.003080   0.000666
    19  C    5.099036   0.000259   0.003522   0.000500   0.394224   0.391799
    20  H    0.000259   0.493601  -0.014420  -0.014319   0.000143   0.000261
    21  H    0.003522  -0.014420   0.509478  -0.021546  -0.000175  -0.000121
    22  H    0.000500  -0.014319  -0.021546   0.508029   0.000211   0.000750
    23  H    0.394224   0.000143  -0.000175   0.000211   0.526129  -0.019422
    24  H    0.391799   0.000261  -0.000121   0.000750  -0.019422   0.517367
    25  H    0.390912  -0.000132  -0.000090  -0.000197  -0.018966  -0.018064
    26  H    0.001323   0.000163   0.000180  -0.000176  -0.000031  -0.000113
    27  H    0.002322  -0.000131  -0.000200  -0.000098   0.000202  -0.000176
    28  H    0.002636   0.000216   0.000820  -0.000162  -0.000161  -0.000096
    29  H    0.000005   0.000000   0.000000   0.000000   0.000000   0.000000
    30  H   -0.000008   0.000000  -0.000003   0.000000   0.000001  -0.000001
    31  H   -0.000110  -0.000005  -0.000006  -0.000006   0.000022  -0.000006
    32  H    0.000000   0.000000   0.000000   0.000000   0.000000   0.000000
    33  H    0.000000   0.000000   0.000000   0.000000   0.000000   0.000000
    34  H    0.000000   0.000000   0.000000   0.000000   0.000000   0.000000
    35  H    0.000000   0.000000   0.000000   0.000000   0.000000   0.000000
    36  H    0.000000   0.000000   0.000000   0.000000   0.000000   0.000000
    37  C    0.000419   0.000366  -0.006559   0.003548  -0.000046  -0.000505
    38  C   -0.000370  -0.000051   0.000967  -0.001190   0.000018   0.000025
    39  C   -0.000012   0.000001   0.000004   0.000154   0.000001   0.000012
    40  H    0.000001   0.000005  -0.000014   0.000135   0.000000   0.000003
    41  H    0.000314   0.000658   0.000638  -0.003856  -0.000007   0.000029
    42  H   -0.000248  -0.000003   0.000027   0.000252   0.000032   0.000829
    43  H    0.000000   0.000000   0.000000   0.000002   0.000000  -0.000003
    44  H    0.000000   0.000000   0.000002  -0.000004   0.000000   0.000000
              25         26         27         28         29         30
     1  C    0.000010  -0.000002  -0.000006  -0.000014  -0.019766   0.009619
     2  C    0.000151  -0.000040  -0.000030   0.000031  -0.040983  -0.040753
     3  C   -0.000087   0.000094   0.004116  -0.004562   0.009379  -0.028674
     4  C    0.000088  -0.000340  -0.004071   0.004386  -0.000956   0.023716
     5  C    0.000001  -0.000019  -0.000044   0.000617   0.000117  -0.005427
     6  H    0.000000   0.000000   0.000000   0.000000  -0.000082   0.000239
     7  H   -0.000025  -0.000002  -0.000014   0.000005  -0.006330   0.006090
     8  H   -0.000011   0.000057   0.000198  -0.000582   0.000018   0.000406
     9  H   -0.000002   0.000495   0.000571  -0.003559   0.000303  -0.006735
    10  O    0.000000   0.000000   0.000001  -0.000003   0.000651   0.004738
    11  O    0.000000  -0.000001   0.000003  -0.000009  -0.000007  -0.000047
    12  C    0.000000   0.000000   0.000000   0.000000   0.007679  -0.010664
    13  C    0.000000   0.000000   0.000000   0.000000   0.000395  -0.000240
    14  C   -0.000199   0.000036  -0.000321   0.000124   0.429637   0.414330
    15  O    0.000486   0.001206  -0.000886   0.001658   0.000553  -0.000155
    16  Si  -0.032982  -0.028346  -0.040304  -0.036620   0.000012  -0.000644
    17  C    0.000669   0.384295   0.393665   0.393925  -0.000003   0.000251
    18  C    0.003092   0.001499   0.003184   0.001182   0.000002   0.000008
    19  C    0.390912   0.001323   0.002322   0.002636   0.000005  -0.000008
    20  H   -0.000132   0.000163  -0.000131   0.000216   0.000000   0.000000
    21  H   -0.000090   0.000180  -0.000200   0.000820   0.000000  -0.000003
    22  H   -0.000197  -0.000176  -0.000098  -0.000162   0.000000   0.000000
    23  H   -0.018966  -0.000031   0.000202  -0.000161   0.000000   0.000001
    24  H   -0.018064  -0.000113  -0.000176  -0.000096   0.000000  -0.000001
    25  H    0.515042   0.000274   0.000830  -0.000140   0.000004  -0.000001
    26  H    0.000274   0.504186  -0.014585  -0.016683   0.000000  -0.000008
    27  H    0.000830  -0.014585   0.507326  -0.019553   0.000009   0.000027
    28  H   -0.000140  -0.016683  -0.019553   0.508655   0.000000   0.000022
    29  H    0.000004   0.000000   0.000009   0.000000   0.498140  -0.024011
    30  H   -0.000001  -0.000008   0.000027   0.000022  -0.024011   0.510084
    31  H    0.000705   0.000002   0.000646  -0.000039  -0.018944  -0.022240
    32  H    0.000000   0.000000   0.000000   0.000000  -0.001172   0.000735
    33  H    0.000000   0.000000   0.000000   0.000000  -0.007576   0.000297
    34  H    0.000000   0.000000   0.000000   0.000000   0.000008  -0.000007
    35  H    0.000000   0.000000   0.000000   0.000000  -0.000039   0.000007
    36  H    0.000000   0.000000   0.000000   0.000000  -0.000008   0.000016
    37  C    0.000012   0.000025  -0.000112   0.000440  -0.000380  -0.000192
    38  C    0.000031  -0.000006   0.000015  -0.000033  -0.000036  -0.000075
    39  C    0.000001   0.000000   0.000000   0.000000   0.000010  -0.000001
    40  H    0.000000  -0.000001  -0.000002   0.000007  -0.000002  -0.000029
    41  H   -0.000010  -0.000003   0.000007  -0.000094   0.000011   0.000007
    42  H   -0.000018  -0.000004  -0.000004  -0.000005   0.000004   0.000002
    43  H    0.000000   0.000000   0.000000   0.000000   0.000000   0.000000
    44  H    0.000000   0.000000   0.000000   0.000000   0.000000   0.000000
              31         32         33         34         35         36
     1  C    0.010027  -0.076036  -0.022370   0.013656   0.001744  -0.019420
     2  C   -0.063368   0.017317  -0.020048  -0.000811   0.000288   0.000712
     3  C    0.017838  -0.002101  -0.001809   0.000062  -0.000124  -0.000347
     4  C   -0.009158   0.000690   0.000308   0.000022   0.000057   0.000653
     5  C    0.000252   0.000105  -0.000900   0.000007  -0.000210   0.000894
     6  H   -0.000152  -0.000054   0.006208   0.000004   0.002008   0.001091
     7  H   -0.002877  -0.000285   0.001406  -0.000023   0.000164  -0.000058
     8  H   -0.000250  -0.000003   0.000004   0.000000   0.000000  -0.000006
     9  H    0.001133  -0.000025  -0.000048   0.000000  -0.000001  -0.000010
    10  O   -0.000291   0.004737  -0.000191   0.000210  -0.000903   0.008680
    11  O   -0.000005   0.000013  -0.000066   0.000001   0.000003   0.000307
    12  C   -0.000474   0.437308   0.418209  -0.053158  -0.046678  -0.035590
    13  C    0.000047  -0.030557  -0.034120   0.422994   0.411725   0.421331
    14  C    0.423755  -0.006867   0.005352   0.000021  -0.000001  -0.000085
    15  O    0.005267  -0.000011  -0.000003   0.000000   0.000000   0.000000
    16  Si  -0.002362  -0.000003  -0.000001   0.000000   0.000000   0.000000
    17  C   -0.000118   0.000000   0.000000   0.000000   0.000000   0.000000
    18  C    0.000243   0.000000   0.000000   0.000000   0.000000   0.000000
    19  C   -0.000110   0.000000   0.000000   0.000000   0.000000   0.000000
    20  H   -0.000005   0.000000   0.000000   0.000000   0.000000   0.000000
    21  H   -0.000006   0.000000   0.000000   0.000000   0.000000   0.000000
    22  H   -0.000006   0.000000   0.000000   0.000000   0.000000   0.000000
    23  H    0.000022   0.000000   0.000000   0.000000   0.000000   0.000000
    24  H   -0.000006   0.000000   0.000000   0.000000   0.000000   0.000000
    25  H    0.000705   0.000000   0.000000   0.000000   0.000000   0.000000
    26  H    0.000002   0.000000   0.000000   0.000000   0.000000   0.000000
    27  H    0.000646   0.000000   0.000000   0.000000   0.000000   0.000000
    28  H   -0.000039   0.000000   0.000000   0.000000   0.000000   0.000000
    29  H   -0.018944  -0.001172  -0.007576   0.000008  -0.000039  -0.000008
    30  H   -0.022240   0.000735   0.000297  -0.000007   0.000007   0.000016
    31  H    0.490161  -0.000151   0.000396  -0.000002   0.000001  -0.000001
    32  H   -0.000151   0.523928  -0.024070  -0.003720  -0.004495   0.006135
    33  H    0.000396  -0.024070   0.517080  -0.004180   0.006198  -0.003102
    34  H   -0.000002  -0.003720  -0.004180   0.522293  -0.024697  -0.023003
    35  H    0.000001  -0.004495   0.006198  -0.024697   0.541157  -0.026691
    36  H   -0.000001   0.006135  -0.003102  -0.023003  -0.026691   0.510287
    37  C    0.000651   0.000252   0.000214  -0.000003   0.000063   0.000012
    38  C    0.000093   0.000006  -0.000030   0.000004  -0.000014  -0.000013
    39  C   -0.000008   0.000277  -0.000004   0.000000  -0.000036   0.000006
    40  H   -0.000027  -0.000059  -0.000044   0.000003   0.000004  -0.000014
    41  H   -0.000072   0.000004   0.000003   0.000000   0.000002   0.000000
    42  H    0.000071  -0.000006   0.000000   0.000000   0.000001   0.000000
    43  H   -0.000001   0.000004   0.000000   0.000000  -0.000003   0.000000
    44  H    0.000001  -0.000005   0.000001  -0.000001   0.000057  -0.000001
              37         38         39         40         41         42
     1  C    0.047041  -0.003611  -0.006740   0.006134  -0.003210   0.001139
     2  C   -0.108288   0.001159   0.004396  -0.028045   0.018252  -0.005105
     3  C    0.222915  -0.028556  -0.008557  -0.004801  -0.063827   0.005123
     4  C   -0.065823   0.003891  -0.000355  -0.002130   0.001893   0.000428
     5  C   -0.003402   0.001213   0.000060   0.000550  -0.002187  -0.000035
     6  H    0.014737   0.003930   0.003305  -0.014346   0.001445  -0.000164
     7  H   -0.014096   0.001710   0.000401   0.001178  -0.000079   0.000806
     8  H   -0.013991   0.000289   0.000036  -0.000516   0.003592  -0.000010
     9  H    0.008913  -0.000519  -0.000016   0.000167  -0.000612  -0.000003
    10  O   -0.012129   0.001264  -0.000033   0.003673  -0.000043  -0.000004
    11  O    0.001978  -0.000022   0.000003  -0.000613  -0.000066   0.000000
    12  C   -0.002018   0.000594   0.000446   0.000621   0.000035  -0.000019
    13  C   -0.000206   0.000256   0.000003   0.000204  -0.000006   0.000004
    14  C    0.010550  -0.000144  -0.000193  -0.001129  -0.000155  -0.000475
    15  O   -0.081828   0.010258   0.002864   0.004868  -0.006342   0.006901
    16  Si  -0.002725  -0.002590  -0.000031   0.000795  -0.002313  -0.001325
    17  C    0.000419   0.000102   0.000010   0.000033  -0.000105   0.000150
    18  C    0.000039  -0.000956  -0.000155  -0.000374  -0.003523   0.000006
    19  C    0.000419  -0.000370  -0.000012   0.000001   0.000314  -0.000248
    20  H    0.000366  -0.000051   0.000001   0.000005   0.000658  -0.000003
    21  H   -0.006559   0.000967   0.000004  -0.000014   0.000638   0.000027
    22  H    0.003548  -0.001190   0.000154   0.000135  -0.003856   0.000252
    23  H   -0.000046   0.000018   0.000001   0.000000  -0.000007   0.000032
    24  H   -0.000505   0.000025   0.000012   0.000003   0.000029   0.000829
    25  H    0.000012   0.000031   0.000001   0.000000  -0.000010  -0.000018
    26  H    0.000025  -0.000006   0.000000  -0.000001  -0.000003  -0.000004
    27  H   -0.000112   0.000015   0.000000  -0.000002   0.000007  -0.000004
    28  H    0.000440  -0.000033   0.000000   0.000007  -0.000094  -0.000005
    29  H   -0.000380  -0.000036   0.000010  -0.000002   0.000011   0.000004
    30  H   -0.000192  -0.000075  -0.000001  -0.000029   0.000007   0.000002
    31  H    0.000651   0.000093  -0.000008  -0.000027  -0.000072   0.000071
    32  H    0.000252   0.000006   0.000277  -0.000059   0.000004  -0.000006
    33  H    0.000214  -0.000030  -0.000004  -0.000044   0.000003   0.000000
    34  H   -0.000003   0.000004   0.000000   0.000003   0.000000   0.000000
    35  H    0.000063  -0.000014  -0.000036   0.000004   0.000002   0.000001
    36  H    0.000012  -0.000013   0.000006  -0.000014   0.000000   0.000000
    37  C    5.399951   0.189261  -0.042667   0.412629   0.437129  -0.045266
    38  C    0.189261   5.226544   0.530353  -0.047899  -0.044785   0.406766
    39  C   -0.042667   0.530353   5.004727   0.003738  -0.004924  -0.019200
    40  H    0.412629  -0.047899   0.003738   0.483767  -0.014583   0.002887
    41  H    0.437129  -0.044785  -0.004924  -0.014583   0.500366   0.001394
    42  H   -0.045266   0.406766  -0.019200   0.002887   0.001394   0.476324
    43  H    0.006466  -0.052915   0.426580   0.000185  -0.000341  -0.005722
    44  H    0.006364  -0.070154   0.434966   0.000218   0.000769   0.003887
              43         44
     1  C    0.000004  -0.000143
     2  C    0.000033  -0.000654
     3  C   -0.000150  -0.001152
     4  C    0.000018   0.000021
     5  C    0.000003  -0.000012
     6  H   -0.000062   0.000379
     7  H    0.000062   0.000146
     8  H    0.000000  -0.000001
     9  H    0.000000   0.000001
    10  O    0.000000   0.000006
    11  O    0.000000  -0.000001
    12  C    0.000010  -0.000091
    13  C   -0.000003   0.000041
    14  C    0.000003  -0.000030
    15  O   -0.000010  -0.000005
    16  Si   0.000015  -0.000004
    17  C    0.000000   0.000000
    18  C   -0.000003  -0.000003
    19  C    0.000000   0.000000
    20  H    0.000000   0.000000
    21  H    0.000000   0.000002
    22  H    0.000002  -0.000004
    23  H    0.000000   0.000000
    24  H   -0.000003   0.000000
    25  H    0.000000   0.000000
    26  H    0.000000   0.000000
    27  H    0.000000   0.000000
    28  H    0.000000   0.000000
    29  H    0.000000   0.000000
    30  H    0.000000   0.000000
    31  H   -0.000001   0.000001
    32  H    0.000004  -0.000005
    33  H    0.000000   0.000001
    34  H    0.000000  -0.000001
    35  H   -0.000003   0.000057
    36  H    0.000000  -0.000001
    37  C    0.006466   0.006364
    38  C   -0.052915  -0.070154
    39  C    0.426580   0.434966
    40  H    0.000185   0.000218
    41  H   -0.000341   0.000769
    42  H   -0.005722   0.003887
    43  H    0.499753  -0.022398
    44  H   -0.022398   0.503400
 Mulliken charges:
               1
     1  C   -0.055949
     2  C   -0.078031
     3  C    0.224590
     4  C   -0.513974
     5  C    0.347974
     6  H    0.173356
     7  H    0.189852
     8  H    0.201015
     9  H    0.232990
    10  O   -0.239897
    11  O   -0.370353
    12  C   -0.288205
    13  C   -0.443292
    14  C   -0.519224
    15  O   -0.404390
    16  Si   0.501562
    17  C   -0.586807
    18  C   -0.593745
    19  C   -0.561822
    20  H    0.172094
    21  H    0.165971
    22  H    0.170300
    23  H    0.154605
    24  H    0.156728
    25  H    0.158619
    26  H    0.166526
    27  H    0.167414
    28  H    0.167591
    29  H    0.173355
    30  H    0.169320
    31  H    0.169360
    32  H    0.158106
    33  H    0.162888
    34  H    0.150321
    35  H    0.140413
    36  H    0.158223
    37  C   -0.364157
    38  C   -0.124780
    39  C   -0.329422
    40  H    0.192821
    41  H    0.184594
    42  H    0.170585
    43  H    0.148473
    44  H    0.144400
 Sum of Mulliken charges =   0.00000
 Mulliken charges with hydrogens summed into heavy atoms:
               1
     1  C    0.117407
     2  C    0.111821
     3  C    0.224590
     4  C   -0.079968
     5  C    0.347974
    10  O   -0.239897
    11  O   -0.370353
    12  C    0.032790
    13  C    0.005665
    14  C   -0.007188
    15  O   -0.404390
    16  Si   0.501562
    17  C   -0.085276
    18  C   -0.085380
    19  C   -0.091870
    37  C    0.013258
    38  C    0.045805
    39  C   -0.036549
 Electronic spatial extent (au):  <R**2>=           5662.8191
 Charge=              0.0000 electrons
 Dipole moment (field-independent basis, Debye):
    X=              2.4069    Y=              3.4787    Z=              2.7023  Tot=              5.0197
 Quadrupole moment (field-independent basis, Debye-Ang):
   XX=           -116.8722   YY=           -128.5238   ZZ=           -124.9810
   XY=            -12.1148   XZ=             -9.0143   YZ=             -8.8202
 Traceless Quadrupole moment (field-independent basis, Debye-Ang):
   XX=              6.5868   YY=             -5.0648   ZZ=             -1.5220
   XY=            -12.1148   XZ=             -9.0143   YZ=             -8.8202
 Octapole moment (field-independent basis, Debye-Ang**2):
  XXX=             17.6367  YYY=             29.6382  ZZZ=             14.9975  XYY=             13.1252
  XXY=             15.4790  XXZ=             17.5844  XZZ=              0.1767  YZZ=             10.5361
  YYZ=             27.0165  XYZ=             20.7150
 Hexadecapole moment (field-independent basis, Debye-Ang**3):
 XXXX=          -4766.1765 YYYY=          -1776.7662 ZZZZ=          -1147.7111 XXXY=            -58.9202
 XXXZ=            -62.5321 YYYX=            -38.1334 YYYZ=            -33.2769 ZZZX=            -16.0411
 ZZZY=            -15.6070 XXYY=          -1156.4532 XXZZ=          -1026.3310 YYZZ=           -546.7861
 XXYZ=            -36.6250 YYXZ=            -30.2853 ZZXY=            -45.2344
 N-N= 1.621053626555D+03 E-N=-5.735185187136D+03  KE= 1.059315951105D+03
 1\1\GINC-CPU-E-126\SP\RM062X\def2TZVP\C14H26O3Si1\KE291\26-Jun-2019\0\
 \# m062x/def2tzvp int=ultrafine scrf=(solvent=chloroform)\\IP1_4ginp00
 1\\0,1\C,0,-2.358632,0.147914,0.302777\C,0,-0.9829,0.262237,0.974847\C
 ,0,0.122638,0.124925,-0.107987\C,0,-0.035737,-1.254757,-0.767594\C,0,-
 1.454701,-1.645572,-1.151287\H,0,-2.480572,0.984034,-0.394744\H,0,-0.9
 21374,1.285207,1.364304\H,0,0.57826,-1.352796,-1.667022\H,0,0.303081,-
 2.026601,-0.068014\O,0,-2.489209,-1.066959,-0.50625\O,0,-1.684384,-2.5
 18213,-1.962619\C,0,-3.552414,0.150966,1.255745\C,0,-4.901468,0.240683
 ,0.535686\C,0,-0.797291,-0.710754,2.150396\O,0,1.378728,0.249537,0.554
 48\Si,0,2.96877,-0.198933,0.229603\C,0,3.214379,-2.061016,0.419803\C,0
 ,3.536519,0.329343,-1.492224\C,0,3.957384,0.713678,1.543656\H,0,4.6009
 74,0.095737,-1.613342\H,0,2.998268,-0.191277,-2.291392\H,0,3.41489,1.4
 06421,-1.647334\H,0,5.025031,0.482921,1.457074\H,0,3.839625,1.797994,1
 .447005\H,0,3.634315,0.429745,2.550571\H,0,4.283541,-2.29866,0.368926\
 H,0,2.842511,-2.419256,1.385643\H,0,2.714826,-2.632944,-0.368452\H,0,-
 1.452465,-0.439523,2.981919\H,0,-1.029339,-1.744852,1.875673\H,0,0.232
 75,-0.673536,2.507826\H,0,-3.432468,1.007101,1.931231\H,0,-3.519341,-0
 .750614,1.876421\H,0,-5.725304,0.239106,1.255637\H,0,-4.974908,1.16101
 3,-0.054531\H,0,-5.040961,-0.605799,-0.141822\C,0,0.028444,1.235832,-1
 .192821\C,0,0.075279,2.638566,-0.653478\C,0,-0.796304,3.602659,-0.9555
 86\H,0,-0.870695,1.09993,-1.803983\H,0,0.878282,1.07764,-1.86841\H,0,0
 .899588,2.856921,0.023695\H,0,-0.701275,4.604831,-0.547819\H,0,-1.6322
 64,3.429162,-1.629987\\Version=ES64L-G09RevD.01\State=1-A\HF=-1064.341
 5707\RMSD=1.598e-09\Dipole=0.9469464,1.3686437,1.0631495\Quadrupole=4.
 8971259,-3.7655271,-1.1315989,-9.0070793,-6.7019385,-6.5576037\PG=C01 
 [X(C14H26O3Si1)]\\@


 Just remember, when you're over the hill, you begin to pick up speed.
 -- Charles Schulz
 Job cpu time:       0 days  2 hours 21 minutes 53.9 seconds.
 File lengths (MBytes):  RWF=    413 Int=      0 D2E=      0 Chk=     21 Scr=      1
 Normal termination of Gaussian 09 at Wed Jun 26 13:54:39 2019.
