 Entering Gaussian System, Link 0=/usr/local/Cluster-Apps/gaussian/g09/g09
 Initial command:
 /usr/local/Cluster-Apps/gaussian/g09/l1.exe "/home/ke291/rds/hpc-work/26Jun1304IP1NMR/Gau-144650.inp" -scrdir="/home/ke291/rds/hpc-work/26Jun1304IP1NMR/"
 Entering Link 1 = /usr/local/Cluster-Apps/gaussian/g09/l1.exe PID=    144660.
  
 Copyright (c) 1988,1990,1992,1993,1995,1998,2003,2009,2013,
            Gaussian, Inc.  All Rights Reserved.
  
 This is part of the Gaussian(R) 09 program.  It is based on
 the Gaussian(R) 03 system (copyright 2003, Gaussian, Inc.),
 the Gaussian(R) 98 system (copyright 1998, Gaussian, Inc.),
 the Gaussian(R) 94 system (copyright 1995, Gaussian, Inc.),
 the Gaussian 92(TM) system (copyright 1992, Gaussian, Inc.),
 the Gaussian 90(TM) system (copyright 1990, Gaussian, Inc.),
 the Gaussian 88(TM) system (copyright 1988, Gaussian, Inc.),
 the Gaussian 86(TM) system (copyright 1986, Carnegie Mellon
 University), and the Gaussian 82(TM) system (copyright 1983,
 Carnegie Mellon University). Gaussian is a federally registered
 trademark of Gaussian, Inc.
  
 This software contains proprietary and confidential information,
 including trade secrets, belonging to Gaussian, Inc.
  
 This software is provided under written license and may be
 used, copied, transmitted, or stored only in accord with that
 written license.
  
 The following legend is applicable only to US Government
 contracts under FAR:
  
                    RESTRICTED RIGHTS LEGEND
  
 Use, reproduction and disclosure by the US Government is
 subject to restrictions as set forth in subparagraphs (a)
 and (c) of the Commercial Computer Software - Restricted
 Rights clause in FAR 52.227-19.
  
 Gaussian, Inc.
 340 Quinnipiac St., Bldg. 40, Wallingford CT 06492
  
  
 ---------------------------------------------------------------
 Warning -- This program may not be used in any manner that
 competes with the business of Gaussian, Inc. or will provide
 assistance to any competitor of Gaussian, Inc.  The licensee
 of this program is prohibited from giving any competitor of
 Gaussian, Inc. access to this program.  By using this program,
 the user acknowledges that Gaussian, Inc. is engaged in the
 business of creating and licensing software in the field of
 computational chemistry and represents and warrants to the
 licensee that it is not a competitor of Gaussian, Inc. and that
 it will not use this program in any manner prohibited above.
 ---------------------------------------------------------------
  

 Cite this work as:
 Gaussian 09, Revision D.01,
 M. J. Frisch, G. W. Trucks, H. B. Schlegel, G. E. Scuseria, 
 M. A. Robb, J. R. Cheeseman, G. Scalmani, V. Barone, B. Mennucci, 
 G. A. Petersson, H. Nakatsuji, M. Caricato, X. Li, H. P. Hratchian, 
 A. F. Izmaylov, J. Bloino, G. Zheng, J. L. Sonnenberg, M. Hada, 
 M. Ehara, K. Toyota, R. Fukuda, J. Hasegawa, M. Ishida, T. Nakajima, 
 Y. Honda, O. Kitao, H. Nakai, T. Vreven, J. A. Montgomery, Jr., 
 J. E. Peralta, F. Ogliaro, M. Bearpark, J. J. Heyd, E. Brothers, 
 K. N. Kudin, V. N. Staroverov, T. Keith, R. Kobayashi, J. Normand, 
 K. Raghavachari, A. Rendell, J. C. Burant, S. S. Iyengar, J. Tomasi, 
 M. Cossi, N. Rega, J. M. Millam, M. Klene, J. E. Knox, J. B. Cross, 
 V. Bakken, C. Adamo, J. Jaramillo, R. Gomperts, R. E. Stratmann, 
 O. Yazyev, A. J. Austin, R. Cammi, C. Pomelli, J. W. Ochterski, 
 R. L. Martin, K. Morokuma, V. G. Zakrzewski, G. A. Voth, 
 P. Salvador, J. J. Dannenberg, S. Dapprich, A. D. Daniels, 
 O. Farkas, J. B. Foresman, J. V. Ortiz, J. Cioslowski, 
 and D. J. Fox, Gaussian, Inc., Wallingford CT, 2013.
 
 ******************************************
 Gaussian 09:  ES64L-G09RevD.01 24-Apr-2013
                26-Jun-2019 
 ******************************************
 %nprocshared=4
 Will use up to    4 processors via shared memory.
 %mem=6000MB
 %chk=IP1_1ginp009.chk
 --------------------------------------------------------
 # m062x/def2tzvp int=ultrafine scrf=(solvent=chloroform)
 --------------------------------------------------------
 1/38=1/1;
 2/12=2,17=6,18=5,40=1/2;
 3/5=44,7=101,11=2,16=1,25=1,30=1,70=2201,72=7,74=-55,75=-5/1,2,3;
 4//1;
 5/5=2,38=5,53=7/2;
 6/7=2,8=2,9=2,10=2,28=1/1;
 99/5=1,9=1/99;
 ------------
 IP1_1ginp009
 ------------
 Symbolic Z-matrix:
 Charge =  0 Multiplicity = 1
 C                    -2.44467  -0.30293  -0.44429 
 C                    -1.00555  -0.79193  -0.68496 
 C                     0.04383   0.29569  -0.31333 
 C                    -0.19596   0.64117   1.16442 
 C                    -1.61974   1.04673   1.48855 
 H                    -2.73692   0.35951  -1.26931 
 H                    -0.81057  -1.62622   0.00285 
 H                     0.01249  -0.24507   1.77657 
 H                     0.45957   1.43654   1.52025 
 O                    -2.61854   0.51272   0.75885 
 O                    -1.89832   1.78899   2.40716 
 C                    -3.46727  -1.43613  -0.32812 
 C                    -4.9153   -0.95193  -0.20849 
 C                    -0.84945  -1.31921  -2.12007 
 O                     1.34194  -0.23807  -0.52858 
 Si                    2.5782   -0.91993   0.38198 
 C                     3.85511  -1.40152  -0.91219 
 C                     3.3231    0.32233   1.59084 
 C                     2.00414  -2.46      1.31427 
 H                     3.575     1.2579    1.08117 
 H                     2.65037   0.56062   2.42077 
 H                     4.24587  -0.08277   2.02256 
 H                     1.27726  -2.23727   2.1025 
 H                     1.55194  -3.19165   0.6362 
 H                     2.8636   -2.94221   1.79498 
 H                     3.44361  -2.12614  -1.62253 
 H                     4.19006  -0.52752  -1.48009 
 H                     4.7357   -1.85467  -0.44328 
 H                    -1.40708  -2.24794  -2.26393 
 H                    -1.2094   -0.59867  -2.86179 
 H                     0.20301  -1.52302  -2.32638 
 H                    -3.19924  -2.05001   0.54095 
 H                    -3.36834  -2.07724  -1.21036 
 H                    -5.59994  -1.80195  -0.13231 
 H                    -5.05025  -0.32531   0.67646 
 H                    -5.20874  -0.36474  -1.08587 
 C                    -0.07438   1.55244  -1.22164 
 C                     0.85863   2.68067  -0.87234 
 C                     1.88494   3.07631  -1.62693 
 H                    -1.1076    1.92191  -1.18005 
 H                     0.11366   1.23465  -2.25098 
 H                     0.65314   3.2175    0.0535 
 H                     2.51805   3.90989  -1.33701 
 H                     2.12452   2.58368  -2.56637 
 
                          Input orientation:                          
 ---------------------------------------------------------------------
 Center     Atomic      Atomic             Coordinates (Angstroms)
 Number     Number       Type             X           Y           Z
 ---------------------------------------------------------------------
      1          6           0       -2.444667   -0.302925   -0.444286
      2          6           0       -1.005550   -0.791929   -0.684963
      3          6           0        0.043832    0.295685   -0.313330
      4          6           0       -0.195960    0.641169    1.164423
      5          6           0       -1.619736    1.046728    1.488545
      6          1           0       -2.736919    0.359511   -1.269308
      7          1           0       -0.810568   -1.626223    0.002847
      8          1           0        0.012487   -0.245066    1.776573
      9          1           0        0.459573    1.436539    1.520254
     10          8           0       -2.618541    0.512716    0.758851
     11          8           0       -1.898323    1.788988    2.407159
     12          6           0       -3.467266   -1.436129   -0.328118
     13          6           0       -4.915295   -0.951926   -0.208485
     14          6           0       -0.849445   -1.319212   -2.120073
     15          8           0        1.341938   -0.238066   -0.528578
     16         14           0        2.578203   -0.919928    0.381976
     17          6           0        3.855109   -1.401519   -0.912187
     18          6           0        3.323104    0.322325    1.590844
     19          6           0        2.004141   -2.460002    1.314268
     20          1           0        3.575003    1.257899    1.081172
     21          1           0        2.650369    0.560621    2.420771
     22          1           0        4.245866   -0.082773    2.022559
     23          1           0        1.277259   -2.237268    2.102503
     24          1           0        1.551935   -3.191651    0.636195
     25          1           0        2.863600   -2.942206    1.794980
     26          1           0        3.443614   -2.126139   -1.622533
     27          1           0        4.190061   -0.527520   -1.480088
     28          1           0        4.735704   -1.854669   -0.443279
     29          1           0       -1.407077   -2.247943   -2.263929
     30          1           0       -1.209400   -0.598665   -2.861791
     31          1           0        0.203008   -1.523015   -2.326381
     32          1           0       -3.199235   -2.050010    0.540950
     33          1           0       -3.368336   -2.077244   -1.210364
     34          1           0       -5.599941   -1.801949   -0.132309
     35          1           0       -5.050249   -0.325314    0.676456
     36          1           0       -5.208744   -0.364744   -1.085873
     37          6           0       -0.074379    1.552436   -1.221638
     38          6           0        0.858630    2.680669   -0.872337
     39          6           0        1.884944    3.076308   -1.626933
     40          1           0       -1.107595    1.921907   -1.180045
     41          1           0        0.113662    1.234649   -2.250981
     42          1           0        0.653142    3.217498    0.053501
     43          1           0        2.518052    3.909894   -1.337007
     44          1           0        2.124516    2.583683   -2.566371
 ---------------------------------------------------------------------
                    Distance matrix (angstroms):
                    1          2          3          4          5
     1  C    0.000000
     2  C    1.538866   0.000000
     3  C    2.562833   1.556348   0.000000
     4  C    2.921633   2.475769   1.536429   0.000000
     5  C    2.497581   2.912391   2.564815   1.515477   0.000000
     6  H    1.097677   2.159841   2.941181   3.529710   3.053869
     7  H    2.149727   1.098702   2.126899   2.620700   3.163340
     8  H    3.312577   2.719305   2.158955   1.097083   2.101391
     9  H    3.914047   3.460583   2.199186   1.090391   2.115770
    10  O    1.463913   2.527536   2.878351   2.459652   1.347306
    11  O    3.578454   4.125457   3.661008   2.399984   1.213430
    12  C    1.530802   2.569509   3.914998   4.152624   3.588622
    13  C    2.565308   3.941920   5.114730   5.166716   4.211323
    14  C    2.527021   1.536859   2.582665   3.880470   4.383280
    15  O    3.788098   2.417006   1.419965   2.450395   3.806704
    16  Si   5.127633   3.741394   2.895549   3.277991   4.766017
    17  C    6.411943   4.904002   4.214850   4.989594   6.459981
    18  C    6.148160   5.015786   3.792125   3.559116   4.996688
    19  C    5.247608   3.979652   3.753092   3.805280   5.045792
    20  H    6.403095   5.320009   3.916588   3.821969   5.214965
    21  H    5.908778   4.984046   3.786758   3.112312   4.397629
    22  H    7.134215   5.950710   4.822520   4.581518   5.997185
    23  H    4.907194   3.882034   3.711259   3.366863   4.422008
    24  H    5.048267   3.747646   3.916310   4.245547   5.361889
    25  H    6.337019   5.073867   4.783304   4.753850   6.008810
    26  H    6.275685   4.738588   4.374673   5.354588   6.736721
    27  H    6.718850   5.262747   4.385226   5.253233   6.711541
    28  H    7.346131   5.843785   5.162807   5.756320   7.248563
    29  H    2.858459   2.185025   3.518525   4.644068   4.998114
    30  H    2.730875   2.194877   2.977433   4.332972   4.669167
    31  H    3.470027   2.165491   2.717606   4.126570   4.947690
    32  H    2.142981   2.810317   4.092623   4.080542   3.603129
    33  H    2.142020   2.740591   4.251865   4.805554   4.483404
    34  H    3.507158   4.736454   6.023704   6.070696   5.155983
    35  H    2.836480   4.293109   5.226373   4.973562   3.782910
    36  H    2.838235   4.243826   5.350004   5.586027   4.636902
    37  C    3.108843   2.578982   1.555127   2.557045   3.160532
    38  C    4.471782   3.945784   2.581576   3.069220   3.792865
    39  C    5.618131   4.919911   3.584287   4.248733   5.109616
    40  H    2.697959   2.760512   2.172919   2.822747   2.854750
    41  H    3.489030   2.795007   2.154303   3.480383   4.126020
    42  H    4.715675   4.401374   3.007127   2.931313   3.455079
    43  H    6.570645   5.911689   4.498020   4.930271   5.770854
    44  H    5.806306   4.973104   3.826274   4.803831   5.729223
                    6          7          8          9         10
     6  H    0.000000
     7  H    3.045053   0.000000
     8  H    4.147546   2.393975   0.000000
     9  H    4.377123   3.646408   1.758801   0.000000
    10  O    2.037379   2.900925   2.921010   3.302721   0.000000
    11  O    4.032748   4.315970   2.861155   2.543717   2.205562
    12  C    2.154894   2.683974   4.237574   5.204687   2.387432
    13  C    2.755092   4.165108   5.359398   6.130458   2.890674
    14  C    2.665421   2.145357   4.132864   4.749702   3.843678
    15  O    4.188419   2.615851   2.661054   2.789370   4.231612
    16  Si   5.710887   3.482292   2.997205   3.367077   5.403763
    17  C    6.832539   4.759866   4.830379   5.049852   6.954481
    18  C    6.701174   4.837956   3.364017   3.073478   6.002633
    19  C    6.091155   3.215214   3.014358   4.196564   5.524014
    20  H    6.795014   5.358561   3.928614   3.151287   6.246533
    21  H    6.532993   4.754653   2.832410   2.525421   5.525005
    22  H    7.732483   5.659417   4.243624   4.110552   7.005116
    23  H    5.850299   3.023401   2.382173   3.808475   4.954298
    24  H    5.885233   2.903983   3.514644   4.836833   5.579449
    25  H    7.187281   4.294539   3.924761   5.002822   6.562311
    26  H    6.670998   4.581467   5.183145   5.610195   7.027394
    27  H    6.986723   5.330341   5.304502   5.174565   7.242375
    28  H    7.837411   5.568873   5.461442   5.742195   7.818858
    29  H    3.091370   2.425001   4.727826   5.601770   4.269202
    30  H    2.405705   3.069380   4.809622   5.111736   4.041026
    31  H    3.647530   2.542300   4.301591   4.860184   4.650161
    32  H    3.049026   2.484931   3.885839   5.148003   2.636712
    33  H    2.517923   2.866614   4.869151   5.869909   3.338846
    34  H    3.763186   4.794501   6.129198   7.066575   3.878219
    35  H    3.099432   4.485645   5.181505   5.845875   2.573380
    36  H    2.582269   4.703253   5.955600   6.493561   3.298802
    37  C    2.917955   3.484998   3.496831   2.795802   3.387641
    38  C    4.298062   4.701222   4.036410   2.726096   4.410387
    39  C    5.373128   5.660015   5.110917   3.824305   5.704853
    40  H    2.259147   3.751891   3.833007   3.159622   2.833389
    41  H    3.139325   3.757463   4.291967   3.792443   4.128584
    42  H    4.627140   5.060301   3.920302   2.315307   4.303170
    43  H    6.342281   6.597235   5.765061   4.303343   6.505231
    44  H    5.501169   5.739243   5.596754   4.559438   6.151634
                   11         12         13         14         15
    11  O    0.000000
    12  C    4.510510   0.000000
    13  C    4.843173   1.531520   0.000000
    14  C    5.590785   3.174549   4.507794   0.000000
    15  O    4.819418   4.960240   6.305951   2.916143   0.000000
    16  Si   5.610604   6.108878   7.516793   4.262446   1.679999
    17  C    7.368811   7.345714   8.810069   4.857838   2.795855
    18  C    5.484594   7.272118   8.528336   5.820285   2.954828
    19  C    5.871759   5.803623   7.243733   4.608585   2.961688
    20  H    5.656642   7.670557   8.867452   6.038643   3.133015
    21  H    4.711653   6.997775   8.151077   6.033385   3.323936
    22  H    6.434475   8.176164   9.468889   6.682243   3.868490
    23  H    5.136913   5.390757   6.733535   4.816206   3.305084
    24  H    6.312476   5.404085   6.896007   4.107270   3.181896
    25  H    6.740539   6.845121   8.275645   5.634577   3.876435
    26  H    7.752608   7.064834   8.558602   4.396480   3.029620
    27  H    7.585863   7.796619   9.203510   5.141301   3.016780
    28  H    8.087741   8.214448   9.695971   5.855958   3.760097
    29  H    6.193319   2.941222   4.267564   1.092790   3.822059
    30  H    5.825576   3.495541   4.571486   1.094943   3.476096
    31  H    6.147468   4.179894   5.568541   1.091676   2.486031
    32  H    4.462400   1.097256   2.170784   3.624448   5.004926
    33  H    5.495012   1.095068   2.159441   2.783342   5.102361
    34  H    5.748539   2.172664   1.094112   5.172181   7.126882
    35  H    4.171360   2.179200   1.092692   5.143458   6.505365
    36  H    5.272449   2.180551   1.095767   4.580837   6.575565
    37  C    4.068279   4.608859   5.543715   3.107133   2.385830
    38  C    4.376183   5.996464   6.853806   4.524756   2.978384
    39  C    5.678398   7.120053   8.030063   5.200064   3.533598
    40  H    3.675725   4.191686   4.868411   3.384545   3.330181
    41  H    5.104277   4.863487   5.851778   2.732566   2.577639
    42  H    3.753708   6.227330   6.961338   5.250136   3.571299
    43  H    6.166149   8.088377   8.953519   6.268714   4.386613
    44  H    6.445989   7.241318   8.223083   4.927090   3.567534
                   16         17         18         19         20
    16  Si   0.000000
    17  C    1.880765   0.000000
    18  C    1.886646   3.085422   0.000000
    19  C    1.889588   3.082786   3.091521   0.000000
    20  H    2.495078   3.335333   1.094768   4.042861   0.000000
    21  H    2.520698   4.050926   1.094594   3.281177   1.770782
    22  H    2.484641   3.241067   1.096345   3.343385   1.770217
    23  H    2.527460   4.053658   3.316443   1.095117   4.305687
    24  H    2.505709   3.302525   4.049250   1.095255   4.908086
    25  H    2.483473   3.268877   3.303026   1.096483   4.319317
    26  H    2.494381   1.094986   4.041694   3.287605   4.333474
    27  H    2.493863   1.094796   3.302192   4.039945   3.182149
    28  H    2.491906   1.095750   3.297332   3.304064   3.655032
    29  H    4.964564   5.498567   6.621191   4.948219   6.949946
    30  H    4.997116   5.485871   6.420107   5.588460   6.471808
    31  H    3.652460   3.918233   5.337128   4.168495   5.542134
    32  H    5.889070   7.231592   7.019342   5.276480   7.558069
    33  H    6.263885   7.261107   7.640685   5.948427   8.036434
    34  H    8.241631   9.495606   9.332874   7.768377   9.747554
    35  H    7.657256   9.109742   8.447993   7.397845   8.778686
    36  H    7.943510   9.124610   8.968239   7.885207   9.191478
    37  C    3.964890   4.925696   4.578877   5.181768   4.325237
    38  C    4.182646   5.064063   4.207455   5.702625   3.635815
    39  C    4.526171   4.944021   4.472898   6.270215   3.673791
    40  H    4.909281   5.978741   5.465124   5.925000   5.242207
    41  H    4.201027   4.768666   5.088465   5.471321   4.804650
    42  H    4.575156   5.702672   4.227783   5.970656   3.665161
    43  H    5.126958   5.493569   4.700114   6.918738   3.741365
    44  H    4.601508   4.648990   4.881884   6.364951   4.143210
                   21         22         23         24         25
    21  H    0.000000
    22  H    1.765825   0.000000
    23  H    3.132875   3.668905   0.000000
    24  H    4.297768   4.341013   1.770975   0.000000
    25  H    3.564671   3.184150   1.762948   1.767900   0.000000
    26  H    4.918966   4.255073   4.310607   3.132989   3.561148
    27  H    4.332598   3.531211   4.923679   4.305340   4.279752
    28  H    4.287777   3.075697   4.311407   3.617896   3.114051
    29  H    6.804213   7.417392   5.125573   4.249359   5.932573
    30  H    6.644338   7.340500   5.789016   5.156011   6.615665
    31  H    5.732937   6.110014   4.612937   3.657979   5.106708
    32  H    6.675851   7.841857   4.744735   4.887334   6.255124
    33  H    7.507881   8.509158   5.708086   5.372220   6.972609
    34  H    8.953634  10.224428   7.244292   7.326063   8.754779
    35  H    7.945252   9.396200   6.762140   7.197662   8.410007
    36  H    8.655548   9.956481   7.465944   7.527530   8.950160
    37  C    4.655652   5.644753   5.219070   5.348159   6.159019
    38  C    4.306912   5.243129   5.762901   6.102498   6.538441
    39  C    4.826848   5.373317   6.520128   6.672327   6.992122
    40  H    5.379709   6.552477   5.810455   6.043203   6.948436
    41  H    5.358588   6.088830   5.688672   5.476910   6.432579
    42  H    4.080671   5.260860   5.860239   6.498042   6.772062
    43  H    5.035477   5.496673   7.152440   7.433630   7.541884
    44  H    5.407484   5.715627   6.764451   6.628632   7.078353
                   26         27         28         29         30
    26  H    0.000000
    27  H    1.770044   0.000000
    28  H    1.770263   1.770317   0.000000
    29  H    4.894428   5.907810   6.418971   0.000000
    30  H    5.051681   5.573898   6.539955   1.765399   0.000000
    31  H    3.370562   4.195690   4.919492   1.766860   1.770871
    32  H    6.986694   7.810523   7.998132   3.334420   4.200535
    33  H    6.824583   7.720347   8.143305   2.232862   3.094255
    34  H    9.171246   9.964177  10.340456   4.724703   5.307995
    35  H    8.981872   9.490780   9.967829   5.061133   5.229344
    36  H    8.846119   9.408477  10.075954   4.403059   4.382163
    37  C    5.105772   4.751680   5.945680   4.159968   2.933532
    38  C    5.509114   4.664791   5.982064   5.600105   4.357603
    39  C    5.430923   4.280503   5.817422   6.292123   4.960370
    40  H    6.107043   5.844217   6.996391   4.318813   3.031817
    41  H    4.772675   4.507388   5.845934   3.800166   2.341927
    42  H    6.257018   5.374649   6.530006   6.283791   5.150834
    43  H    6.113255   4.744126   6.240746   7.361031   6.045326
    44  H    4.981292   3.889225   5.569990   5.992348   4.618399
                   31         32         33         34         35
    31  H    0.000000
    32  H    4.480465   0.000000
    33  H    3.782481   1.759670   0.000000
    34  H    6.210151   2.505634   2.493602   0.000000
    35  H    6.168324   2.533612   3.075415   1.771077   0.000000
    36  H    5.671641   3.086228   2.516993   1.768581   1.769881
    37  C    3.279604   5.084197   4.901516   6.555179   5.646945
    38  C    4.496114   6.390851   6.373323   7.896496   6.808050
    39  C    4.946909   7.538417   7.370860   9.058410   8.060616
    40  H    3.859955   4.807588   4.594026   5.928408   4.903174
    41  H    2.760141   5.436833   4.916892   6.808448   6.137536
    42  H    5.323431   6.544086   6.767860   8.020625   6.743016
    43  H    5.987887   8.469625   8.397108   9.998913   8.903381
    44  H    4.540348   7.711607   7.330376   9.210085   8.393774
                   36         37         38         39         40
    36  H    0.000000
    37  C    5.482309   0.000000
    38  C    6.792140   1.505133   0.000000
    39  C    7.902784   2.515034   1.333891   0.000000
    40  H    4.696495   1.098077   2.129893   3.238463   0.000000
    41  H    5.678340   1.093570   2.132278   2.630320   1.763717
    42  H    6.963644   2.219842   1.089765   2.088332   2.510057
    43  H    8.833967   3.505940   2.116741   1.086162   4.137879
    44  H    8.041256   2.776133   2.116985   1.087482   3.578602
                   41         42         43         44
    41  H    0.000000
    42  H    3.087615   0.000000
    43  H    3.711250   2.427100   0.000000
    44  H    2.441904   3.070894   1.850687   0.000000
 Stoichiometry    C14H26O3Si
 Framework group  C1[X(C14H26O3Si)]
 Deg. of freedom   126
 Full point group                 C1      NOp   1
 Largest Abelian subgroup         C1      NOp   1
 Largest concise Abelian subgroup C1      NOp   1
                         Standard orientation:                         
 ---------------------------------------------------------------------
 Center     Atomic      Atomic             Coordinates (Angstroms)
 Number     Number       Type             X           Y           Z
 ---------------------------------------------------------------------
      1          6           0       -2.444667   -0.302925   -0.444286
      2          6           0       -1.005550   -0.791929   -0.684963
      3          6           0        0.043832    0.295685   -0.313330
      4          6           0       -0.195960    0.641169    1.164423
      5          6           0       -1.619736    1.046728    1.488545
      6          1           0       -2.736919    0.359511   -1.269308
      7          1           0       -0.810568   -1.626223    0.002847
      8          1           0        0.012487   -0.245066    1.776573
      9          1           0        0.459573    1.436539    1.520254
     10          8           0       -2.618541    0.512716    0.758851
     11          8           0       -1.898323    1.788988    2.407159
     12          6           0       -3.467266   -1.436129   -0.328118
     13          6           0       -4.915295   -0.951926   -0.208485
     14          6           0       -0.849445   -1.319212   -2.120073
     15          8           0        1.341938   -0.238066   -0.528578
     16         14           0        2.578203   -0.919928    0.381976
     17          6           0        3.855109   -1.401519   -0.912187
     18          6           0        3.323104    0.322325    1.590844
     19          6           0        2.004141   -2.460002    1.314268
     20          1           0        3.575003    1.257899    1.081172
     21          1           0        2.650369    0.560621    2.420771
     22          1           0        4.245866   -0.082773    2.022559
     23          1           0        1.277259   -2.237268    2.102503
     24          1           0        1.551935   -3.191651    0.636195
     25          1           0        2.863600   -2.942206    1.794980
     26          1           0        3.443614   -2.126139   -1.622533
     27          1           0        4.190061   -0.527520   -1.480088
     28          1           0        4.735704   -1.854669   -0.443279
     29          1           0       -1.407077   -2.247943   -2.263929
     30          1           0       -1.209400   -0.598665   -2.861791
     31          1           0        0.203008   -1.523015   -2.326381
     32          1           0       -3.199235   -2.050010    0.540950
     33          1           0       -3.368336   -2.077244   -1.210364
     34          1           0       -5.599941   -1.801949   -0.132309
     35          1           0       -5.050249   -0.325314    0.676456
     36          1           0       -5.208744   -0.364744   -1.085873
     37          6           0       -0.074379    1.552436   -1.221638
     38          6           0        0.858630    2.680669   -0.872337
     39          6           0        1.884944    3.076308   -1.626933
     40          1           0       -1.107595    1.921907   -1.180045
     41          1           0        0.113662    1.234649   -2.250981
     42          1           0        0.653142    3.217498    0.053501
     43          1           0        2.518052    3.909894   -1.337007
     44          1           0        2.124516    2.583683   -2.566371
 ---------------------------------------------------------------------
 Rotational constants (GHZ):      0.5089610      0.2537463      0.2326171
 Standard basis: def2TZVP (5D, 7F)
 There are   810 symmetry adapted cartesian basis functions of A   symmetry.
 There are   720 symmetry adapted basis functions of A   symmetry.
   720 basis functions,  1144 primitive gaussians,   810 cartesian basis functions
    74 alpha electrons       74 beta electrons
       nuclear repulsion energy      1621.5244516545 Hartrees.
 NAtoms=   44 NActive=   44 NUniq=   44 SFac= 1.00D+00 NAtFMM=   60 NAOKFM=F Big=F
 Integral buffers will be    131072 words long.
 Raffenetti 2 integral format.
 Two-electron integral symmetry is turned on.
 ------------------------------------------------------------------------------
 Polarizable Continuum Model (PCM)
 =================================
 Model                : PCM (using non-symmetric T matrix).
 Atomic radii         : UFF (Universal Force Field).
 Polarization charges : Total charges.
 Charge compensation  : None.
 Solution method      : On-the-fly selection.
 Cavity type          : Scaled VdW (van der Waals Surface) (Alpha=1.100).
 Cavity algorithm     : GePol (No added spheres)
                        Default sphere list used, NSphG=   44.
                        Lebedev-Laikov grids with approx.  5.0 points / Ang**2.
                        Smoothing algorithm: Karplus/York (Gamma=1.0000).
                        Polarization charges: spherical gaussians, with
                                              point-specific exponents (IZeta= 3).
                        Self-potential: point-specific (ISelfS= 7).
                        Self-field    : sphere-specific E.n sum rule (ISelfD= 2).
 Solvent              : Chloroform, Eps=   4.711300 Eps(inf)=   2.090627
 ------------------------------------------------------------------------------
 One-electron integrals computed using PRISM.
   1 Symmetry operations used in ECPInt.
 ECPInt:  NShTT=   46360 NPrTT=  137514 LenC2=   41989 LenP2D=   89935.
 LDataN:  DoStor=T MaxTD1= 6 Len=  172
 NBasis=   720 RedAO= T EigKep=  3.73D-05  NBF=   720
 NBsUse=   720 1.00D-06 EigRej= -1.00D+00 NBFU=   720
 ExpMin= 7.01D-02 ExpMax= 4.48D+04 ExpMxC= 1.53D+03 IAcc=3 IRadAn=         5 AccDes= 0.00D+00
 Harris functional with IExCor= 1009 and IRadAn=       5 diagonalized for initial guess.
 HarFok:  IExCor= 1009 AccDes= 0.00D+00 IRadAn=         5 IDoV= 1 UseB2=F ITyADJ=14
 ICtDFT=  3500011 ScaDFX=  1.000000  1.000000  1.000000  1.000000
 FoFCou: FMM=F IPFlag=           0 FMFlag=      100000 FMFlg1=           0
         NFxFlg=           0 DoJE=T BraDBF=F KetDBF=T FulRan=T
         wScrn=  0.000000 ICntrl=     500 IOpCl=  0 I1Cent=   200000004 NGrid=           0
         NMat0=    1 NMatS0=      1 NMatT0=    0 NMatD0=    1 NMtDS0=    0 NMtDT0=    0
 Petite list used in FoFCou.
 Requested convergence on RMS density matrix=1.00D-08 within 128 cycles.
 Requested convergence on MAX density matrix=1.00D-06.
 Requested convergence on             energy=1.00D-06.
 No special actions if energy rises.
 Inv3:  Mode=1 IEnd=    26249292.
 Iteration    1 A*A^-1 deviation from unit magnitude is 5.88D-15 for   2957.
 Iteration    1 A*A^-1 deviation from orthogonality  is 2.77D-15 for   2139    594.
 Iteration    1 A^-1*A deviation from unit magnitude is 5.77D-15 for   2957.
 Iteration    1 A^-1*A deviation from orthogonality  is 4.11D-07 for   2933   2728.
 Iteration    2 A*A^-1 deviation from unit magnitude is 2.55D-15 for     42.
 Iteration    2 A*A^-1 deviation from orthogonality  is 2.26D-15 for   2132    641.
 Iteration    2 A^-1*A deviation from unit magnitude is 8.88D-16 for    125.
 Iteration    2 A^-1*A deviation from orthogonality  is 4.61D-16 for   2592   1515.
 Error on total polarization charges =  0.01485
 SCF Done:  E(RM062X) =  -1064.33904880     A.U. after   14 cycles
            NFock= 14  Conv=0.11D-08     -V/T= 2.0047

 **********************************************************************

            Population analysis using the SCF density.

 **********************************************************************

 Orbital symmetries:
       Occupied  (A) (A) (A) (A) (A) (A) (A) (A) (A) (A) (A) (A)
                 (A) (A) (A) (A) (A) (A) (A) (A) (A) (A) (A) (A)
                 (A) (A) (A) (A) (A) (A) (A) (A) (A) (A) (A) (A)
                 (A) (A) (A) (A) (A) (A) (A) (A) (A) (A) (A) (A)
                 (A) (A) (A) (A) (A) (A) (A) (A) (A) (A) (A) (A)
                 (A) (A) (A) (A) (A) (A) (A) (A) (A) (A) (A) (A)
                 (A) (A)
       Virtual   (A) (A) (A) (A) (A) (A) (A) (A) (A) (A) (A) (A)
                 (A) (A) (A) (A) (A) (A) (A) (A) (A) (A) (A) (A)
                 (A) (A) (A) (A) (A) (A) (A) (A) (A) (A) (A) (A)
                 (A) (A) (A) (A) (A) (A) (A) (A) (A) (A) (A) (A)
                 (A) (A) (A) (A) (A) (A) (A) (A) (A) (A) (A) (A)
                 (A) (A) (A) (A) (A) (A) (A) (A) (A) (A) (A) (A)
                 (A) (A) (A) (A) (A) (A) (A) (A) (A) (A) (A) (A)
                 (A) (A) (A) (A) (A) (A) (A) (A) (A) (A) (A) (A)
                 (A) (A) (A) (A) (A) (A) (A) (A) (A) (A) (A) (A)
                 (A) (A) (A) (A) (A) (A) (A) (A) (A) (A) (A) (A)
                 (A) (A) (A) (A) (A) (A) (A) (A) (A) (A) (A) (A)
                 (A) (A) (A) (A) (A) (A) (A) (A) (A) (A) (A) (A)
                 (A) (A) (A) (A) (A) (A) (A) (A) (A) (A) (A) (A)
                 (A) (A) (A) (A) (A) (A) (A) (A) (A) (A) (A) (A)
                 (A) (A) (A) (A) (A) (A) (A) (A) (A) (A) (A) (A)
                 (A) (A) (A) (A) (A) (A) (A) (A) (A) (A) (A) (A)
                 (A) (A) (A) (A) (A) (A) (A) (A) (A) (A) (A) (A)
                 (A) (A) (A) (A) (A) (A) (A) (A) (A) (A) (A) (A)
                 (A) (A) (A) (A) (A) (A) (A) (A) (A) (A) (A) (A)
                 (A) (A) (A) (A) (A) (A) (A) (A) (A) (A) (A) (A)
                 (A) (A) (A) (A) (A) (A) (A) (A) (A) (A) (A) (A)
                 (A) (A) (A) (A) (A) (A) (A) (A) (A) (A) (A) (A)
                 (A) (A) (A) (A) (A) (A) (A) (A) (A) (A) (A) (A)
                 (A) (A) (A) (A) (A) (A) (A) (A) (A) (A) (A) (A)
                 (A) (A) (A) (A) (A) (A) (A) (A) (A) (A) (A) (A)
                 (A) (A) (A) (A) (A) (A) (A) (A) (A) (A) (A) (A)
                 (A) (A) (A) (A) (A) (A) (A) (A) (A) (A) (A) (A)
                 (A) (A) (A) (A) (A) (A) (A) (A) (A) (A) (A) (A)
                 (A) (A) (A) (A) (A) (A) (A) (A) (A) (A) (A) (A)
                 (A) (A) (A) (A) (A) (A) (A) (A) (A) (A) (A) (A)
                 (A) (A) (A) (A) (A) (A) (A) (A) (A) (A) (A) (A)
                 (A) (A) (A) (A) (A) (A) (A) (A) (A) (A) (A) (A)
                 (A) (A) (A) (A) (A) (A) (A) (A) (A) (A) (A) (A)
                 (A) (A) (A) (A) (A) (A) (A) (A) (A) (A) (A) (A)
                 (A) (A) (A) (A) (A) (A) (A) (A) (A) (A) (A) (A)
                 (A) (A) (A) (A) (A) (A) (A) (A) (A) (A) (A) (A)
                 (A) (A) (A) (A) (A) (A) (A) (A) (A) (A) (A) (A)
                 (A) (A) (A) (A) (A) (A) (A) (A) (A) (A) (A) (A)
                 (A) (A) (A) (A) (A) (A) (A) (A) (A) (A) (A) (A)
                 (A) (A) (A) (A) (A) (A) (A) (A) (A) (A) (A) (A)
                 (A) (A) (A) (A) (A) (A) (A) (A) (A) (A) (A) (A)
                 (A) (A) (A) (A) (A) (A) (A) (A) (A) (A) (A) (A)
                 (A) (A) (A) (A) (A) (A) (A) (A) (A) (A) (A) (A)
                 (A) (A) (A) (A) (A) (A) (A) (A) (A) (A) (A) (A)
                 (A) (A) (A) (A) (A) (A) (A) (A) (A) (A) (A) (A)
                 (A) (A) (A) (A) (A) (A) (A) (A) (A) (A) (A) (A)
                 (A) (A) (A) (A) (A) (A) (A) (A) (A) (A) (A) (A)
                 (A) (A) (A) (A) (A) (A) (A) (A) (A) (A) (A) (A)
                 (A) (A) (A) (A) (A) (A) (A) (A) (A) (A) (A) (A)
                 (A) (A) (A) (A) (A) (A) (A) (A) (A) (A) (A) (A)
                 (A) (A) (A) (A) (A) (A) (A) (A) (A) (A) (A) (A)
                 (A) (A) (A) (A) (A) (A) (A) (A) (A) (A) (A) (A)
                 (A) (A) (A) (A) (A) (A) (A) (A) (A) (A) (A) (A)
                 (A) (A) (A) (A) (A) (A) (A) (A) (A) (A)
 The electronic state is 1-A.
 Alpha  occ. eigenvalues --  -67.01636 -19.67384 -19.61859 -19.61790 -10.68436
 Alpha  occ. eigenvalues --  -10.62195 -10.61222 -10.55910 -10.55716 -10.54620
 Alpha  occ. eigenvalues --  -10.54501 -10.54250 -10.53378 -10.53275 -10.52570
 Alpha  occ. eigenvalues --  -10.51186 -10.50916 -10.50752  -5.55077  -3.86266
 Alpha  occ. eigenvalues --   -3.86121  -3.86108  -1.23086  -1.14360  -1.13421
 Alpha  occ. eigenvalues --   -0.93614  -0.90838  -0.88030  -0.85112  -0.80923
 Alpha  occ. eigenvalues --   -0.79411  -0.78886  -0.76969  -0.76735  -0.73261
 Alpha  occ. eigenvalues --   -0.70577  -0.68469  -0.64866  -0.62314  -0.60102
 Alpha  occ. eigenvalues --   -0.58548  -0.56059  -0.55403  -0.54451  -0.53505
 Alpha  occ. eigenvalues --   -0.52494  -0.51192  -0.50344  -0.49432  -0.48555
 Alpha  occ. eigenvalues --   -0.47826  -0.47530  -0.47311  -0.46940  -0.46610
 Alpha  occ. eigenvalues --   -0.45849  -0.45526  -0.44883  -0.44460  -0.44159
 Alpha  occ. eigenvalues --   -0.43660  -0.42973  -0.42041  -0.41692  -0.40818
 Alpha  occ. eigenvalues --   -0.40622  -0.39489  -0.38688  -0.37103  -0.36588
 Alpha  occ. eigenvalues --   -0.36035  -0.34147  -0.33427  -0.32052
 Alpha virt. eigenvalues --    0.03210   0.03526   0.05147   0.06906   0.07194
 Alpha virt. eigenvalues --    0.07445   0.09297   0.09751   0.09883   0.09979
 Alpha virt. eigenvalues --    0.10644   0.11278   0.11460   0.11839   0.12325
 Alpha virt. eigenvalues --    0.12846   0.13955   0.14259   0.14403   0.14527
 Alpha virt. eigenvalues --    0.14945   0.15518   0.16015   0.16439   0.16484
 Alpha virt. eigenvalues --    0.16925   0.17211   0.17820   0.18047   0.18288
 Alpha virt. eigenvalues --    0.18722   0.19341   0.19687   0.20143   0.20877
 Alpha virt. eigenvalues --    0.21069   0.21608   0.21859   0.22479   0.23211
 Alpha virt. eigenvalues --    0.23330   0.23731   0.24063   0.24639   0.25748
 Alpha virt. eigenvalues --    0.26145   0.26429   0.27067   0.28035   0.28261
 Alpha virt. eigenvalues --    0.28902   0.29112   0.29724   0.29808   0.30597
 Alpha virt. eigenvalues --    0.31175   0.31826   0.32141   0.32769   0.34001
 Alpha virt. eigenvalues --    0.34665   0.35331   0.35494   0.35982   0.36410
 Alpha virt. eigenvalues --    0.36977   0.38126   0.38508   0.38750   0.39137
 Alpha virt. eigenvalues --    0.39436   0.39971   0.40587   0.40936   0.41666
 Alpha virt. eigenvalues --    0.42101   0.42350   0.43104   0.43203   0.44234
 Alpha virt. eigenvalues --    0.44312   0.44926   0.45243   0.45976   0.46058
 Alpha virt. eigenvalues --    0.46192   0.46542   0.47186   0.47623   0.47925
 Alpha virt. eigenvalues --    0.48168   0.48707   0.48935   0.49706   0.50074
 Alpha virt. eigenvalues --    0.50132   0.50421   0.51022   0.51163   0.51258
 Alpha virt. eigenvalues --    0.51775   0.52122   0.52433   0.53177   0.53467
 Alpha virt. eigenvalues --    0.54510   0.54872   0.55137   0.55272   0.55671
 Alpha virt. eigenvalues --    0.56699   0.56820   0.57316   0.58374   0.59527
 Alpha virt. eigenvalues --    0.59893   0.60141   0.60838   0.61148   0.61922
 Alpha virt. eigenvalues --    0.62561   0.63187   0.63410   0.64430   0.65072
 Alpha virt. eigenvalues --    0.66129   0.66264   0.66371   0.67856   0.68718
 Alpha virt. eigenvalues --    0.69919   0.70161   0.70558   0.71245   0.72381
 Alpha virt. eigenvalues --    0.72781   0.73895   0.75681   0.76116   0.76827
 Alpha virt. eigenvalues --    0.77712   0.78654   0.79733   0.80515   0.80748
 Alpha virt. eigenvalues --    0.82339   0.82698   0.83164   0.83649   0.85218
 Alpha virt. eigenvalues --    0.86509   0.87838   0.88667   0.89186   0.90427
 Alpha virt. eigenvalues --    0.90745   0.91732   0.92358   0.93445   0.93649
 Alpha virt. eigenvalues --    0.94711   0.94839   0.95698   0.96101   0.97291
 Alpha virt. eigenvalues --    0.97842   0.98805   0.99759   1.00331   1.01040
 Alpha virt. eigenvalues --    1.01563   1.02591   1.04018   1.04143   1.04499
 Alpha virt. eigenvalues --    1.04994   1.05695   1.06394   1.07154   1.07636
 Alpha virt. eigenvalues --    1.08372   1.08964   1.09239   1.09900   1.10924
 Alpha virt. eigenvalues --    1.11674   1.12935   1.13477   1.14207   1.15216
 Alpha virt. eigenvalues --    1.16005   1.16372   1.17672   1.18169   1.19328
 Alpha virt. eigenvalues --    1.20201   1.20858   1.21757   1.22804   1.24219
 Alpha virt. eigenvalues --    1.25235   1.26026   1.26298   1.27001   1.28697
 Alpha virt. eigenvalues --    1.29954   1.30536   1.31367   1.32715   1.33893
 Alpha virt. eigenvalues --    1.34350   1.35700   1.36573   1.37280   1.39281
 Alpha virt. eigenvalues --    1.39842   1.40548   1.40723   1.41820   1.42128
 Alpha virt. eigenvalues --    1.42509   1.43826   1.44663   1.45437   1.46026
 Alpha virt. eigenvalues --    1.47364   1.48770   1.50607   1.51282   1.53525
 Alpha virt. eigenvalues --    1.54142   1.54647   1.55415   1.56199   1.56547
 Alpha virt. eigenvalues --    1.57410   1.57609   1.58474   1.59027   1.59246
 Alpha virt. eigenvalues --    1.59568   1.59918   1.60817   1.61147   1.61715
 Alpha virt. eigenvalues --    1.62249   1.62687   1.63428   1.63645   1.64504
 Alpha virt. eigenvalues --    1.65118   1.65612   1.66203   1.66401   1.67122
 Alpha virt. eigenvalues --    1.67462   1.67599   1.68217   1.68650   1.68948
 Alpha virt. eigenvalues --    1.69114   1.70181   1.70996   1.71701   1.73179
 Alpha virt. eigenvalues --    1.74635   1.75426   1.75966   1.77087   1.77904
 Alpha virt. eigenvalues --    1.79030   1.79345   1.80023   1.80953   1.82151
 Alpha virt. eigenvalues --    1.83966   1.84602   1.85590   1.86593   1.87175
 Alpha virt. eigenvalues --    1.87752   1.88970   1.90041   1.91459   1.92460
 Alpha virt. eigenvalues --    1.93324   1.93699   1.95178   1.95979   1.98013
 Alpha virt. eigenvalues --    1.98698   1.99444   2.00310   2.00854   2.01616
 Alpha virt. eigenvalues --    2.02384   2.03514   2.04405   2.05278   2.06662
 Alpha virt. eigenvalues --    2.07156   2.07569   2.08441   2.09012   2.09223
 Alpha virt. eigenvalues --    2.11129   2.11296   2.12127   2.12657   2.14982
 Alpha virt. eigenvalues --    2.15940   2.16956   2.17791   2.18160   2.19820
 Alpha virt. eigenvalues --    2.20196   2.21387   2.22759   2.22976   2.23898
 Alpha virt. eigenvalues --    2.24731   2.25115   2.26226   2.27357   2.28027
 Alpha virt. eigenvalues --    2.28711   2.29584   2.30844   2.31624   2.32537
 Alpha virt. eigenvalues --    2.32894   2.34785   2.35376   2.36901   2.37331
 Alpha virt. eigenvalues --    2.38176   2.38360   2.38697   2.39481   2.39745
 Alpha virt. eigenvalues --    2.40093   2.41123   2.41487   2.42100   2.43084
 Alpha virt. eigenvalues --    2.43642   2.43857   2.44535   2.45321   2.46110
 Alpha virt. eigenvalues --    2.46957   2.47754   2.47829   2.48396   2.48913
 Alpha virt. eigenvalues --    2.50468   2.50849   2.52074   2.52809   2.54911
 Alpha virt. eigenvalues --    2.55291   2.55945   2.56987   2.57648   2.58229
 Alpha virt. eigenvalues --    2.58837   2.59823   2.60320   2.60434   2.61274
 Alpha virt. eigenvalues --    2.61826   2.62219   2.63285   2.63605   2.63820
 Alpha virt. eigenvalues --    2.64211   2.65479   2.66456   2.66811   2.67460
 Alpha virt. eigenvalues --    2.67783   2.68030   2.68582   2.69517   2.70478
 Alpha virt. eigenvalues --    2.70780   2.71029   2.71537   2.72618   2.73568
 Alpha virt. eigenvalues --    2.74069   2.74420   2.76133   2.76352   2.77840
 Alpha virt. eigenvalues --    2.78981   2.80296   2.81608   2.82323   2.82560
 Alpha virt. eigenvalues --    2.84922   2.85323   2.86265   2.87432   2.87822
 Alpha virt. eigenvalues --    2.89019   2.89747   2.90372   2.91231   2.93536
 Alpha virt. eigenvalues --    2.94499   2.96138   2.96305   2.97733   2.98641
 Alpha virt. eigenvalues --    3.00877   3.02005   3.02339   3.03388   3.05700
 Alpha virt. eigenvalues --    3.05915   3.06800   3.07708   3.09474   3.09827
 Alpha virt. eigenvalues --    3.10375   3.11350   3.12035   3.13037   3.13324
 Alpha virt. eigenvalues --    3.13869   3.14241   3.15141   3.15328   3.16032
 Alpha virt. eigenvalues --    3.17010   3.18070   3.18754   3.20046   3.20439
 Alpha virt. eigenvalues --    3.21279   3.21931   3.22298   3.23420   3.24392
 Alpha virt. eigenvalues --    3.24534   3.25124   3.26020   3.26100   3.26892
 Alpha virt. eigenvalues --    3.27094   3.28193   3.28364   3.29364   3.29860
 Alpha virt. eigenvalues --    3.30606   3.30870   3.31505   3.31840   3.32632
 Alpha virt. eigenvalues --    3.32990   3.33265   3.34038   3.35148   3.35297
 Alpha virt. eigenvalues --    3.35604   3.36285   3.37599   3.38210   3.38940
 Alpha virt. eigenvalues --    3.39480   3.40449   3.40960   3.41677   3.42393
 Alpha virt. eigenvalues --    3.43689   3.44414   3.44615   3.45005   3.45896
 Alpha virt. eigenvalues --    3.47754   3.48171   3.49047   3.50266   3.51713
 Alpha virt. eigenvalues --    3.52673   3.53582   3.53730   3.54458   3.55183
 Alpha virt. eigenvalues --    3.55463   3.56329   3.57737   3.58223   3.58705
 Alpha virt. eigenvalues --    3.59667   3.59976   3.60366   3.61405   3.63100
 Alpha virt. eigenvalues --    3.63218   3.63727   3.64075   3.64711   3.65005
 Alpha virt. eigenvalues --    3.65664   3.66708   3.67731   3.68144   3.70869
 Alpha virt. eigenvalues --    3.71952   3.73044   3.74477   3.75818   3.76852
 Alpha virt. eigenvalues --    3.77688   3.78657   3.80358   3.81955   3.83061
 Alpha virt. eigenvalues --    3.84860   3.87082   3.88254   3.90138   3.91195
 Alpha virt. eigenvalues --    3.92916   3.94164   3.96588   3.99172   3.99756
 Alpha virt. eigenvalues --    4.01008   4.04123   4.06231   4.07277   4.10752
 Alpha virt. eigenvalues --    4.11203   4.12190   4.15233   4.15903   4.18481
 Alpha virt. eigenvalues --    4.19541   4.20516   4.24381   4.25753   4.26631
 Alpha virt. eigenvalues --    4.27021   4.28075   4.28816   4.29391   4.29653
 Alpha virt. eigenvalues --    4.30715   4.32651   4.35496   4.35672   4.37134
 Alpha virt. eigenvalues --    4.37833   4.38448   4.38765   4.40082   4.40786
 Alpha virt. eigenvalues --    4.41374   4.44290   4.44786   4.47027   4.48512
 Alpha virt. eigenvalues --    4.51841   4.52503   4.54973   4.55230   4.57025
 Alpha virt. eigenvalues --    4.59356   4.61814   4.63385   4.65801   4.69418
 Alpha virt. eigenvalues --    4.70823   4.74132   4.76413   4.80125   4.83346
 Alpha virt. eigenvalues --    4.86144   4.88199   4.93002   4.97867   5.03172
 Alpha virt. eigenvalues --    5.05132   5.07633   5.16761   5.19829   5.21942
 Alpha virt. eigenvalues --    5.24162   5.25766   5.26485   5.28568   5.35154
 Alpha virt. eigenvalues --    5.48253   5.49757   5.53826   5.60598   5.81669
 Alpha virt. eigenvalues --    5.86325   5.87126   5.88598   5.92115   6.03604
 Alpha virt. eigenvalues --    6.15741   6.18383   6.23493   6.36795   6.38442
 Alpha virt. eigenvalues --    6.51478   6.60786   6.61541   6.62660   6.65317
 Alpha virt. eigenvalues --    6.70115   6.76799   6.81264   6.86370   6.89865
 Alpha virt. eigenvalues --    6.92449   6.99924   7.04180   7.05815   7.16070
 Alpha virt. eigenvalues --    7.20323   7.35854   7.42871  12.18132  22.30152
 Alpha virt. eigenvalues --   22.38050  22.41826  22.42576  22.43638  22.51930
 Alpha virt. eigenvalues --   22.55813  22.64259  22.67646  22.78612  22.81738
 Alpha virt. eigenvalues --   22.88795  22.91907  23.44899  44.06489  44.50060
 Alpha virt. eigenvalues --   44.51715
          Condensed to atoms (all electrons):
               1          2          3          4          5          6
     1  C    5.401641   0.072328  -0.023365   0.007839  -0.043631   0.450279
     2  C    0.072328   5.702321   0.093004  -0.022209  -0.008245  -0.032248
     3  C   -0.023365   0.093004   5.742703  -0.177174   0.057541  -0.031026
     4  C    0.007839  -0.022209  -0.177174   6.175520   0.123194   0.004867
     5  C   -0.043631  -0.008245   0.057541   0.123194   4.399722  -0.002496
     6  H    0.450279  -0.032248  -0.031026   0.004867  -0.002496   0.512628
     7  H   -0.046171   0.446330  -0.059568  -0.011743   0.003112   0.006443
     8  H    0.003689  -0.024326  -0.027490   0.385072  -0.008711  -0.000055
     9  H   -0.000456   0.010730  -0.031619   0.383371  -0.012247   0.000114
    10  O    0.159276  -0.018346   0.028270  -0.156155   0.394128  -0.041672
    11  O    0.000166   0.000003   0.013276  -0.154450   0.739576   0.000127
    12  C    0.217242  -0.020625   0.010940  -0.008860   0.001916  -0.046274
    13  C   -0.045542   0.007558  -0.000018  -0.000189   0.000348  -0.008376
    14  C   -0.055165   0.235937  -0.021739  -0.004604   0.002623  -0.011482
    15  O    0.010293  -0.045126   0.162386  -0.029248  -0.002831  -0.000137
    16  Si   0.000737  -0.005453  -0.071876   0.011518  -0.000351   0.000006
    17  C   -0.000052   0.000470   0.001243  -0.001794  -0.000042   0.000001
    18  C    0.000105   0.000403  -0.006454   0.011590  -0.000101  -0.000003
    19  C   -0.000470  -0.000865   0.017411  -0.011859   0.000023  -0.000007
    20  H   -0.000002  -0.000121   0.004457  -0.003375  -0.000020   0.000000
    21  H   -0.000009   0.000358  -0.003059   0.002991   0.000465   0.000000
    22  H   -0.000003   0.000014   0.000110  -0.000379  -0.000021   0.000000
    23  H   -0.000158  -0.000096   0.001420  -0.004799  -0.000188   0.000001
    24  H    0.000165   0.000187  -0.000008   0.000697   0.000031  -0.000001
    25  H    0.000003   0.000191  -0.000788   0.000446  -0.000006   0.000000
    26  H    0.000019  -0.000321   0.000540   0.000121   0.000000   0.000000
    27  H    0.000004  -0.000038   0.000201   0.000179   0.000001   0.000000
    28  H    0.000000   0.000003  -0.000055   0.000038   0.000000   0.000000
    29  H   -0.003579  -0.042128   0.013039  -0.000517  -0.000011  -0.000054
    30  H   -0.008733  -0.026474  -0.025685  -0.000601   0.000239   0.004579
    31  H    0.012873  -0.064366   0.007087   0.002538  -0.000303  -0.000143
    32  H   -0.033021  -0.005355  -0.002755   0.000819  -0.001159   0.006269
    33  H   -0.059723   0.002069  -0.000656   0.000803   0.000257   0.001631
    34  H    0.014220  -0.000896   0.000051   0.000020  -0.000002  -0.000193
    35  H   -0.017546  -0.000119  -0.000206   0.000682   0.001192   0.001299
    36  H    0.000959   0.001347  -0.000196   0.000072  -0.000252   0.001549
    37  C    0.021584  -0.078220   0.174925  -0.036300  -0.003247   0.007267
    38  C   -0.002582   0.012776  -0.021167   0.001225  -0.001037   0.000499
    39  C   -0.000056   0.000091  -0.000299  -0.001304   0.000555   0.000047
    40  H    0.005524  -0.010693  -0.049023  -0.008709  -0.000003  -0.008578
    41  H   -0.004559  -0.001073  -0.046137   0.004880   0.000146  -0.000017
    42  H    0.000115  -0.000312  -0.008899   0.003840   0.000862   0.000070
    43  H   -0.000003   0.000026   0.000020   0.000079  -0.000030   0.000000
    44  H    0.000019   0.000008  -0.003056   0.000174   0.000004   0.000006
               7          8          9         10         11         12
     1  C   -0.046171   0.003689  -0.000456   0.159276   0.000166   0.217242
     2  C    0.446330  -0.024326   0.010730  -0.018346   0.000003  -0.020625
     3  C   -0.059568  -0.027490  -0.031619   0.028270   0.013276   0.010940
     4  C   -0.011743   0.385072   0.383371  -0.156155  -0.154450  -0.008860
     5  C    0.003112  -0.008711  -0.012247   0.394128   0.739576   0.001916
     6  H    0.006443  -0.000055   0.000114  -0.041672   0.000127  -0.046274
     7  H    0.507590   0.001653   0.000061   0.002013  -0.000087  -0.006719
     8  H    0.001653   0.462629  -0.010671   0.002321   0.004122  -0.000012
     9  H    0.000061  -0.010671   0.453159   0.006041   0.010935   0.000087
    10  O    0.002013   0.002321   0.006041   8.002680  -0.102060  -0.038559
    11  O   -0.000087   0.004122   0.010935  -0.102060   7.857696  -0.000215
    12  C   -0.006719  -0.000012   0.000087  -0.038559  -0.000215   5.172160
    13  C   -0.000062   0.000024  -0.000011  -0.006034   0.000017   0.262252
    14  C   -0.032823   0.000309  -0.000100   0.004110   0.000035  -0.001267
    15  O   -0.003102  -0.005336  -0.001512  -0.000358  -0.000192  -0.000234
    16  Si   0.003881   0.007071  -0.002512  -0.000026  -0.000078  -0.000187
    17  C    0.000116   0.000206   0.000048   0.000000   0.000000   0.000000
    18  C   -0.000061  -0.005158  -0.005507  -0.000032  -0.000125   0.000001
    19  C   -0.003964  -0.000078   0.000714  -0.000020   0.000005   0.000039
    20  H    0.000002   0.000222   0.000676   0.000001   0.000007   0.000000
    21  H   -0.000039   0.000050  -0.003232  -0.000002   0.000012   0.000000
    22  H   -0.000003   0.000024   0.000301   0.000000  -0.000001   0.000000
    23  H   -0.000735   0.005212   0.000102   0.000014  -0.000009   0.000003
    24  H   -0.000531  -0.000578  -0.000033  -0.000001   0.000000   0.000023
    25  H    0.000230   0.000054  -0.000029   0.000000   0.000000   0.000001
    26  H    0.000053  -0.000001  -0.000007   0.000000   0.000000  -0.000001
    27  H   -0.000009  -0.000016   0.000002   0.000000   0.000000   0.000000
    28  H   -0.000005   0.000000   0.000000   0.000000   0.000000   0.000000
    29  H   -0.009137  -0.000004   0.000011  -0.000074   0.000000  -0.005032
    30  H    0.007464   0.000017  -0.000004   0.000066   0.000001  -0.001381
    31  H   -0.003910  -0.000020  -0.000044  -0.000156   0.000000   0.000503
    32  H    0.001942   0.000093   0.000007  -0.000016  -0.000117   0.416510
    33  H    0.000556  -0.000033  -0.000001   0.005200   0.000010   0.429276
    34  H   -0.000007  -0.000001   0.000000   0.000189   0.000003  -0.053074
    35  H    0.000080  -0.000018  -0.000005   0.008462   0.000315  -0.036695
    36  H   -0.000071  -0.000001   0.000000  -0.000857   0.000001  -0.044679
    37  C    0.011071   0.006592  -0.008706  -0.005584   0.001056   0.000503
    38  C   -0.000361   0.000853   0.000508  -0.000522  -0.000203  -0.000055
    39  C   -0.000002  -0.000043   0.001497  -0.000032   0.000092   0.000000
    40  H   -0.000782  -0.000089   0.001475   0.003722  -0.000524   0.001556
    41  H   -0.000299  -0.000112  -0.000309   0.000147  -0.000017  -0.000048
    42  H    0.000025   0.000485  -0.003701  -0.000132   0.001492  -0.000003
    43  H   -0.000001  -0.000006   0.000003   0.000000  -0.000003   0.000000
    44  H    0.000006   0.000010  -0.000023  -0.000001   0.000001   0.000000
              13         14         15         16         17         18
     1  C   -0.045542  -0.055165   0.010293   0.000737  -0.000052   0.000105
     2  C    0.007558   0.235937  -0.045126  -0.005453   0.000470   0.000403
     3  C   -0.000018  -0.021739   0.162386  -0.071876   0.001243  -0.006454
     4  C   -0.000189  -0.004604  -0.029248   0.011518  -0.001794   0.011590
     5  C    0.000348   0.002623  -0.002831  -0.000351  -0.000042  -0.000101
     6  H   -0.008376  -0.011482  -0.000137   0.000006   0.000001  -0.000003
     7  H   -0.000062  -0.032823  -0.003102   0.003881   0.000116  -0.000061
     8  H    0.000024   0.000309  -0.005336   0.007071   0.000206  -0.005158
     9  H   -0.000011  -0.000100  -0.001512  -0.002512   0.000048  -0.005507
    10  O   -0.006034   0.004110  -0.000358  -0.000026   0.000000  -0.000032
    11  O    0.000017   0.000035  -0.000192  -0.000078   0.000000  -0.000125
    12  C    0.262252  -0.001267  -0.000234  -0.000187   0.000000   0.000001
    13  C    5.051805  -0.000161   0.000018   0.000003   0.000000   0.000000
    14  C   -0.000161   5.140180  -0.017976  -0.000983   0.000147  -0.000151
    15  O    0.000018  -0.017976   8.040895   0.389300  -0.020080  -0.020198
    16  Si   0.000003  -0.000983   0.389300  12.424688   0.395607   0.346692
    17  C    0.000000   0.000147  -0.020080   0.395607   5.106341  -0.045221
    18  C    0.000000  -0.000151  -0.020198   0.346692  -0.045221   5.155379
    19  C   -0.000001  -0.000342  -0.028123   0.339748  -0.046519  -0.048438
    20  H    0.000000   0.000010  -0.001528  -0.040521   0.001629   0.395781
    21  H    0.000000   0.000004   0.001368  -0.034989   0.002854   0.391824
    22  H    0.000000   0.000003   0.001228  -0.029161   0.001184   0.385962
    23  H    0.000000   0.000208   0.000545  -0.033006   0.002899   0.001483
    24  H    0.000001  -0.000283  -0.000079  -0.040339   0.000932   0.003561
    25  H    0.000000  -0.000005   0.001285  -0.024161   0.000475   0.001665
    26  H    0.000000  -0.000122   0.000074  -0.031702   0.389613   0.003073
    27  H    0.000000  -0.000001   0.000752  -0.033537   0.390152   0.000726
    28  H    0.000000  -0.000021   0.001314  -0.042682   0.393225   0.002474
    29  H    0.000201   0.419187   0.000304  -0.000360   0.000007   0.000000
    30  H   -0.000012   0.418737   0.000620   0.000106  -0.000001   0.000006
    31  H    0.000044   0.424367   0.009740  -0.001011  -0.000824   0.000172
    32  H   -0.035830   0.000035  -0.000008   0.000001   0.000000   0.000000
    33  H   -0.037186  -0.002647  -0.000039  -0.000014   0.000001   0.000000
    34  H    0.422398   0.000010   0.000000   0.000000   0.000000   0.000000
    35  H    0.421058  -0.000084   0.000000   0.000000   0.000000   0.000000
    36  H    0.409754  -0.000086   0.000000   0.000000   0.000000   0.000000
    37  C   -0.000128  -0.000055  -0.067694   0.005405  -0.000451   0.000999
    38  C   -0.000016  -0.001728  -0.003317   0.002568  -0.000023  -0.003216
    39  C    0.000000   0.000361   0.001929  -0.000564  -0.000507  -0.001607
    40  H    0.000087   0.000757   0.004620  -0.000168   0.000002  -0.000004
    41  H    0.000002  -0.002986  -0.000407  -0.000799  -0.000001   0.000081
    42  H   -0.000001  -0.000061   0.000264  -0.000017   0.000005   0.000044
    43  H    0.000000   0.000002   0.000131   0.000026  -0.000013   0.000042
    44  H    0.000000  -0.000002   0.000060  -0.000077   0.000040   0.000008
              19         20         21         22         23         24
     1  C   -0.000470  -0.000002  -0.000009  -0.000003  -0.000158   0.000165
     2  C   -0.000865  -0.000121   0.000358   0.000014  -0.000096   0.000187
     3  C    0.017411   0.004457  -0.003059   0.000110   0.001420  -0.000008
     4  C   -0.011859  -0.003375   0.002991  -0.000379  -0.004799   0.000697
     5  C    0.000023  -0.000020   0.000465  -0.000021  -0.000188   0.000031
     6  H   -0.000007   0.000000   0.000000   0.000000   0.000001  -0.000001
     7  H   -0.003964   0.000002  -0.000039  -0.000003  -0.000735  -0.000531
     8  H   -0.000078   0.000222   0.000050   0.000024   0.005212  -0.000578
     9  H    0.000714   0.000676  -0.003232   0.000301   0.000102  -0.000033
    10  O   -0.000020   0.000001  -0.000002   0.000000   0.000014  -0.000001
    11  O    0.000005   0.000007   0.000012  -0.000001  -0.000009   0.000000
    12  C    0.000039   0.000000   0.000000   0.000000   0.000003   0.000023
    13  C   -0.000001   0.000000   0.000000   0.000000   0.000000   0.000001
    14  C   -0.000342   0.000010   0.000004   0.000003   0.000208  -0.000283
    15  O   -0.028123  -0.001528   0.001368   0.001228   0.000545  -0.000079
    16  Si   0.339748  -0.040521  -0.034989  -0.029161  -0.033006  -0.040339
    17  C   -0.046519   0.001629   0.002854   0.001184   0.002899   0.000932
    18  C   -0.048438   0.395781   0.391824   0.385962   0.001483   0.003561
    19  C    5.179506   0.003161   0.001452   0.001927   0.390826   0.392548
    20  H    0.003161   0.504967  -0.019321  -0.015727  -0.000202  -0.000095
    21  H    0.001452  -0.019321   0.511502  -0.017327   0.000797  -0.000172
    22  H    0.001927  -0.015727  -0.017327   0.506323   0.000151  -0.000185
    23  H    0.390826  -0.000202   0.000797   0.000151   0.509276  -0.019757
    24  H    0.392548  -0.000095  -0.000172  -0.000185  -0.019757   0.514613
    25  H    0.382234  -0.000139   0.000212  -0.000025  -0.015579  -0.015982
    26  H    0.000332  -0.000185  -0.000096  -0.000123  -0.000120   0.000834
    27  H    0.003343   0.000740  -0.000143   0.000272  -0.000088  -0.000186
    28  H    0.002958   0.000261  -0.000161   0.000017  -0.000151   0.000305
    29  H    0.000144   0.000000   0.000000   0.000000  -0.000005   0.000030
    30  H   -0.000015   0.000000   0.000000   0.000000  -0.000001   0.000006
    31  H   -0.000125  -0.000006  -0.000003  -0.000005  -0.000013   0.000245
    32  H    0.000020   0.000000   0.000000   0.000000   0.000021   0.000007
    33  H    0.000004   0.000000   0.000000   0.000000   0.000001  -0.000002
    34  H    0.000000   0.000000   0.000000   0.000000   0.000000   0.000000
    35  H    0.000000   0.000000   0.000000   0.000000   0.000000   0.000000
    36  H    0.000000   0.000000   0.000000   0.000000   0.000000   0.000000
    37  C   -0.000697  -0.000266   0.000219  -0.000058  -0.000008  -0.000014
    38  C   -0.000013   0.000690  -0.000163   0.000099   0.000005  -0.000003
    39  C    0.000096   0.000962  -0.000058   0.000028  -0.000005   0.000000
    40  H    0.000035   0.000007  -0.000006   0.000000  -0.000001   0.000000
    41  H    0.000027  -0.000001   0.000000  -0.000002  -0.000001   0.000002
    42  H   -0.000011  -0.000013   0.000133  -0.000013   0.000000   0.000000
    43  H    0.000002   0.000038  -0.000003   0.000002   0.000000   0.000000
    44  H   -0.000004   0.000004   0.000001  -0.000003   0.000000   0.000000
              25         26         27         28         29         30
     1  C    0.000003   0.000019   0.000004   0.000000  -0.003579  -0.008733
     2  C    0.000191  -0.000321  -0.000038   0.000003  -0.042128  -0.026474
     3  C   -0.000788   0.000540   0.000201  -0.000055   0.013039  -0.025685
     4  C    0.000446   0.000121   0.000179   0.000038  -0.000517  -0.000601
     5  C   -0.000006   0.000000   0.000001   0.000000  -0.000011   0.000239
     6  H    0.000000   0.000000   0.000000   0.000000  -0.000054   0.004579
     7  H    0.000230   0.000053  -0.000009  -0.000005  -0.009137   0.007464
     8  H    0.000054  -0.000001  -0.000016   0.000000  -0.000004   0.000017
     9  H   -0.000029  -0.000007   0.000002   0.000000   0.000011  -0.000004
    10  O    0.000000   0.000000   0.000000   0.000000  -0.000074   0.000066
    11  O    0.000000   0.000000   0.000000   0.000000   0.000000   0.000001
    12  C    0.000001  -0.000001   0.000000   0.000000  -0.005032  -0.001381
    13  C    0.000000   0.000000   0.000000   0.000000   0.000201  -0.000012
    14  C   -0.000005  -0.000122  -0.000001  -0.000021   0.419187   0.418737
    15  O    0.001285   0.000074   0.000752   0.001314   0.000304   0.000620
    16  Si  -0.024161  -0.031702  -0.033537  -0.042682  -0.000360   0.000106
    17  C    0.000475   0.389613   0.390152   0.393225   0.000007  -0.000001
    18  C    0.001665   0.003073   0.000726   0.002474   0.000000   0.000006
    19  C    0.382234   0.000332   0.003343   0.002958   0.000144  -0.000015
    20  H   -0.000139  -0.000185   0.000740   0.000261   0.000000   0.000000
    21  H    0.000212  -0.000096  -0.000143  -0.000161   0.000000   0.000000
    22  H   -0.000025  -0.000123   0.000272   0.000017   0.000000   0.000000
    23  H   -0.015579  -0.000120  -0.000088  -0.000151  -0.000005  -0.000001
    24  H   -0.015982   0.000834  -0.000186   0.000305   0.000030   0.000006
    25  H    0.500774   0.000264  -0.000147   0.000053  -0.000001   0.000000
    26  H    0.000264   0.519268  -0.018177  -0.019733  -0.000006   0.000009
    27  H   -0.000147  -0.018177   0.514869  -0.018329   0.000000  -0.000001
    28  H    0.000053  -0.019733  -0.018329   0.526727   0.000000   0.000000
    29  H   -0.000001  -0.000006   0.000000   0.000000   0.507666  -0.024002
    30  H    0.000000   0.000009  -0.000001   0.000000  -0.024002   0.511107
    31  H    0.000001   0.000710   0.000018   0.000047  -0.019185  -0.024142
    32  H    0.000000   0.000000   0.000000   0.000000   0.000547   0.000096
    33  H    0.000000   0.000000   0.000000   0.000000  -0.002967  -0.000229
    34  H    0.000000   0.000000   0.000000   0.000000   0.000013  -0.000005
    35  H    0.000000   0.000000   0.000000   0.000000  -0.000033   0.000004
    36  H    0.000000   0.000000   0.000000   0.000000   0.000079   0.000026
    37  C    0.000016   0.000043   0.000022   0.000019   0.000106   0.008615
    38  C    0.000000   0.000021   0.000111  -0.000017   0.000048  -0.000043
    39  C   -0.000002  -0.000006   0.000393   0.000015   0.000000   0.000054
    40  H    0.000000  -0.000001   0.000002   0.000000   0.000023  -0.000379
    41  H   -0.000001   0.000001  -0.000008   0.000002   0.000461  -0.006091
    42  H    0.000000   0.000000   0.000002   0.000000   0.000001  -0.000014
    43  H    0.000000   0.000000  -0.000008   0.000000   0.000000  -0.000001
    44  H    0.000000   0.000002   0.000062   0.000000   0.000001   0.000011
              31         32         33         34         35         36
     1  C    0.012873  -0.033021  -0.059723   0.014220  -0.017546   0.000959
     2  C   -0.064366  -0.005355   0.002069  -0.000896  -0.000119   0.001347
     3  C    0.007087  -0.002755  -0.000656   0.000051  -0.000206  -0.000196
     4  C    0.002538   0.000819   0.000803   0.000020   0.000682   0.000072
     5  C   -0.000303  -0.001159   0.000257  -0.000002   0.001192  -0.000252
     6  H   -0.000143   0.006269   0.001631  -0.000193   0.001299   0.001549
     7  H   -0.003910   0.001942   0.000556  -0.000007   0.000080  -0.000071
     8  H   -0.000020   0.000093  -0.000033  -0.000001  -0.000018  -0.000001
     9  H   -0.000044   0.000007  -0.000001   0.000000  -0.000005   0.000000
    10  O   -0.000156  -0.000016   0.005200   0.000189   0.008462  -0.000857
    11  O    0.000000  -0.000117   0.000010   0.000003   0.000315   0.000001
    12  C    0.000503   0.416510   0.429276  -0.053074  -0.036695  -0.044679
    13  C    0.000044  -0.035830  -0.037186   0.422398   0.421058   0.409754
    14  C    0.424367   0.000035  -0.002647   0.000010  -0.000084  -0.000086
    15  O    0.009740  -0.000008  -0.000039   0.000000   0.000000   0.000000
    16  Si  -0.001011   0.000001  -0.000014   0.000000   0.000000   0.000000
    17  C   -0.000824   0.000000   0.000001   0.000000   0.000000   0.000000
    18  C    0.000172   0.000000   0.000000   0.000000   0.000000   0.000000
    19  C   -0.000125   0.000020   0.000004   0.000000   0.000000   0.000000
    20  H   -0.000006   0.000000   0.000000   0.000000   0.000000   0.000000
    21  H   -0.000003   0.000000   0.000000   0.000000   0.000000   0.000000
    22  H   -0.000005   0.000000   0.000000   0.000000   0.000000   0.000000
    23  H   -0.000013   0.000021   0.000001   0.000000   0.000000   0.000000
    24  H    0.000245   0.000007  -0.000002   0.000000   0.000000   0.000000
    25  H    0.000001   0.000000   0.000000   0.000000   0.000000   0.000000
    26  H    0.000710   0.000000   0.000000   0.000000   0.000000   0.000000
    27  H    0.000018   0.000000   0.000000   0.000000   0.000000   0.000000
    28  H    0.000047   0.000000   0.000000   0.000000   0.000000   0.000000
    29  H   -0.019185   0.000547  -0.002967   0.000013  -0.000033   0.000079
    30  H   -0.024142   0.000096  -0.000229  -0.000005   0.000004   0.000026
    31  H    0.489707  -0.000088   0.000349  -0.000001   0.000001  -0.000003
    32  H   -0.000088   0.525946  -0.024007  -0.004009  -0.003221   0.006220
    33  H    0.000349  -0.024007   0.545910  -0.004447   0.006634  -0.003981
    34  H   -0.000001  -0.004009  -0.004447   0.523495  -0.023317  -0.024353
    35  H    0.000001  -0.003221   0.006634  -0.023317   0.509395  -0.026045
    36  H   -0.000003   0.006220  -0.003981  -0.024353  -0.026045   0.538978
    37  C   -0.006345   0.000067   0.000043   0.000004  -0.000004   0.000008
    38  C   -0.000493   0.000000   0.000014   0.000000   0.000001   0.000000
    39  C    0.000107   0.000000   0.000000   0.000000   0.000000   0.000000
    40  H    0.000009  -0.000070  -0.000028   0.000003  -0.000007   0.000004
    41  H    0.000114  -0.000002  -0.000009   0.000000   0.000001   0.000001
    42  H    0.000005   0.000001   0.000000   0.000000   0.000000   0.000000
    43  H   -0.000001   0.000000   0.000000   0.000000   0.000000   0.000000
    44  H    0.000032   0.000000   0.000000   0.000000   0.000000   0.000000
              37         38         39         40         41         42
     1  C    0.021584  -0.002582  -0.000056   0.005524  -0.004559   0.000115
     2  C   -0.078220   0.012776   0.000091  -0.010693  -0.001073  -0.000312
     3  C    0.174925  -0.021167  -0.000299  -0.049023  -0.046137  -0.008899
     4  C   -0.036300   0.001225  -0.001304  -0.008709   0.004880   0.003840
     5  C   -0.003247  -0.001037   0.000555  -0.000003   0.000146   0.000862
     6  H    0.007267   0.000499   0.000047  -0.008578  -0.000017   0.000070
     7  H    0.011071  -0.000361  -0.000002  -0.000782  -0.000299   0.000025
     8  H    0.006592   0.000853  -0.000043  -0.000089  -0.000112   0.000485
     9  H   -0.008706   0.000508   0.001497   0.001475  -0.000309  -0.003701
    10  O   -0.005584  -0.000522  -0.000032   0.003722   0.000147  -0.000132
    11  O    0.001056  -0.000203   0.000092  -0.000524  -0.000017   0.001492
    12  C    0.000503  -0.000055   0.000000   0.001556  -0.000048  -0.000003
    13  C   -0.000128  -0.000016   0.000000   0.000087   0.000002  -0.000001
    14  C   -0.000055  -0.001728   0.000361   0.000757  -0.002986  -0.000061
    15  O   -0.067694  -0.003317   0.001929   0.004620  -0.000407   0.000264
    16  Si   0.005405   0.002568  -0.000564  -0.000168  -0.000799  -0.000017
    17  C   -0.000451  -0.000023  -0.000507   0.000002  -0.000001   0.000005
    18  C    0.000999  -0.003216  -0.001607  -0.000004   0.000081   0.000044
    19  C   -0.000697  -0.000013   0.000096   0.000035   0.000027  -0.000011
    20  H   -0.000266   0.000690   0.000962   0.000007  -0.000001  -0.000013
    21  H    0.000219  -0.000163  -0.000058  -0.000006   0.000000   0.000133
    22  H   -0.000058   0.000099   0.000028   0.000000  -0.000002  -0.000013
    23  H   -0.000008   0.000005  -0.000005  -0.000001  -0.000001   0.000000
    24  H   -0.000014  -0.000003   0.000000   0.000000   0.000002   0.000000
    25  H    0.000016   0.000000  -0.000002   0.000000  -0.000001   0.000000
    26  H    0.000043   0.000021  -0.000006  -0.000001   0.000001   0.000000
    27  H    0.000022   0.000111   0.000393   0.000002  -0.000008   0.000002
    28  H    0.000019  -0.000017   0.000015   0.000000   0.000002   0.000000
    29  H    0.000106   0.000048   0.000000   0.000023   0.000461   0.000001
    30  H    0.008615  -0.000043   0.000054  -0.000379  -0.006091  -0.000014
    31  H   -0.006345  -0.000493   0.000107   0.000009   0.000114   0.000005
    32  H    0.000067   0.000000   0.000000  -0.000070  -0.000002   0.000001
    33  H    0.000043   0.000014   0.000000  -0.000028  -0.000009   0.000000
    34  H    0.000004   0.000000   0.000000   0.000003   0.000000   0.000000
    35  H   -0.000004   0.000001   0.000000  -0.000007   0.000001   0.000000
    36  H    0.000008   0.000000   0.000000   0.000004   0.000001   0.000000
    37  C    5.337409   0.231827  -0.050899   0.441886   0.438320  -0.043202
    38  C    0.231827   5.141116   0.544022  -0.043705  -0.035823   0.416180
    39  C   -0.050899   0.544022   5.014730  -0.002230   0.000520  -0.026048
    40  H    0.441886  -0.043705  -0.002230   0.478409  -0.010573  -0.001588
    41  H    0.438320  -0.035823   0.000520  -0.010573   0.474178   0.002524
    42  H   -0.043202   0.416180  -0.026048  -0.001588   0.002524   0.491081
    43  H    0.006604  -0.052895   0.425554  -0.000193   0.000209  -0.006748
    44  H    0.006277  -0.063397   0.429697   0.000271   0.000139   0.004468
              43         44
     1  C   -0.000003   0.000019
     2  C    0.000026   0.000008
     3  C    0.000020  -0.003056
     4  C    0.000079   0.000174
     5  C   -0.000030   0.000004
     6  H    0.000000   0.000006
     7  H   -0.000001   0.000006
     8  H   -0.000006   0.000010
     9  H    0.000003  -0.000023
    10  O    0.000000  -0.000001
    11  O   -0.000003   0.000001
    12  C    0.000000   0.000000
    13  C    0.000000   0.000000
    14  C    0.000002  -0.000002
    15  O    0.000131   0.000060
    16  Si   0.000026  -0.000077
    17  C   -0.000013   0.000040
    18  C    0.000042   0.000008
    19  C    0.000002  -0.000004
    20  H    0.000038   0.000004
    21  H   -0.000003   0.000001
    22  H    0.000002  -0.000003
    23  H    0.000000   0.000000
    24  H    0.000000   0.000000
    25  H    0.000000   0.000000
    26  H    0.000000   0.000002
    27  H   -0.000008   0.000062
    28  H    0.000000   0.000000
    29  H    0.000000   0.000001
    30  H   -0.000001   0.000011
    31  H   -0.000001   0.000032
    32  H    0.000000   0.000000
    33  H    0.000000   0.000000
    34  H    0.000000   0.000000
    35  H    0.000000   0.000000
    36  H    0.000000   0.000000
    37  C    0.006604   0.006277
    38  C   -0.052895  -0.063397
    39  C    0.425554   0.429697
    40  H   -0.000193   0.000271
    41  H    0.000209   0.000139
    42  H   -0.006748   0.004468
    43  H    0.503224  -0.024380
    44  H   -0.024380   0.506610
 Mulliken charges:
               1
     1  C   -0.034258
     2  C   -0.178498
     3  C    0.283694
     4  C   -0.488303
     5  C    0.358999
     6  H    0.185081
     7  H    0.187565
     8  H    0.202052
     9  H    0.210888
    10  O   -0.246000
    11  O   -0.370869
    12  C   -0.249091
    13  C   -0.442004
    14  C   -0.492152
    15  O   -0.379605
    16  Si   0.467215
    17  C   -0.571671
    18  C   -0.565797
    19  C   -0.575004
    20  H    0.167907
    21  H    0.164544
    22  H    0.165391
    23  H    0.161959
    24  H    0.164063
    25  H    0.168962
    26  H    0.155626
    27  H    0.158837
    28  H    0.153695
    29  H    0.165225
    30  H    0.166051
    31  H    0.172520
    32  H    0.151057
    33  H    0.143209
    34  H    0.149898
    35  H    0.158175
    36  H    0.141525
    37  C   -0.399008
    38  C   -0.121784
    39  C   -0.337091
    40  H    0.198962
    41  H    0.187520
    42  H    0.169167
    43  H    0.148321
    44  H    0.143028
 Sum of Mulliken charges =   0.00000
 Mulliken charges with hydrogens summed into heavy atoms:
               1
     1  C    0.150823
     2  C    0.009067
     3  C    0.283694
     4  C   -0.075364
     5  C    0.358999
    10  O   -0.246000
    11  O   -0.370869
    12  C    0.045175
    13  C    0.007594
    14  C    0.011645
    15  O   -0.379605
    16  Si   0.467215
    17  C   -0.103514
    18  C   -0.067955
    19  C   -0.080020
    37  C   -0.012526
    38  C    0.047383
    39  C   -0.045742
 Electronic spatial extent (au):  <R**2>=           5583.2941
 Charge=              0.0000 electrons
 Dipole moment (field-independent basis, Debye):
    X=              1.8782    Y=             -3.6955    Z=             -3.2474  Tot=              5.2659
 Quadrupole moment (field-independent basis, Debye-Ang):
   XX=           -121.1178   YY=           -122.4279   ZZ=           -127.0467
   XY=              8.8151   XZ=             12.6870   YZ=             -7.4017
 Traceless Quadrupole moment (field-independent basis, Debye-Ang):
   XX=              2.4130   YY=              1.1029   ZZ=             -3.5159
   XY=              8.8151   XZ=             12.6870   YZ=             -7.4017
 Octapole moment (field-independent basis, Debye-Ang**2):
  XXX=              7.0036  YYY=             -9.9275  ZZZ=            -22.6185  XYY=             11.2982
  XXY=            -25.2167  XXZ=            -19.8649  XZZ=             15.2381  YZZ=            -21.8969
  YYZ=            -10.2965  XYZ=             10.1242
 Hexadecapole moment (field-independent basis, Debye-Ang**3):
 XXXX=          -4549.3448 YYYY=          -1850.8646 ZZZZ=          -1334.7450 XXXY=             45.0730
 XXXZ=             73.6332 YYYX=             49.2358 YYYZ=             28.4718 ZZZX=             28.8496
 ZZZY=            -41.7669 XXYY=          -1040.0312 XXZZ=          -1012.8019 YYZZ=           -570.1251
 XXYZ=            -64.0046 YYXZ=             22.5149 ZZXY=             41.9600
 N-N= 1.621524451655D+03 E-N=-5.736165748086D+03  KE= 1.059314411783D+03
 1\1\GINC-CPU-E-31\SP\RM062X\def2TZVP\C14H26O3Si1\KE291\26-Jun-2019\0\\
 # m062x/def2tzvp int=ultrafine scrf=(solvent=chloroform)\\IP1_1ginp009
 \\0,1\C,0,-2.444667,-0.302925,-0.444286\C,0,-1.00555,-0.791929,-0.6849
 63\C,0,0.043832,0.295685,-0.31333\C,0,-0.19596,0.641169,1.164423\C,0,-
 1.619736,1.046728,1.488545\H,0,-2.736919,0.359511,-1.269308\H,0,-0.810
 568,-1.626223,0.002847\H,0,0.012487,-0.245066,1.776573\H,0,0.459573,1.
 436539,1.520254\O,0,-2.618541,0.512716,0.758851\O,0,-1.898323,1.788988
 ,2.407159\C,0,-3.467266,-1.436129,-0.328118\C,0,-4.915295,-0.951926,-0
 .208485\C,0,-0.849445,-1.319212,-2.120073\O,0,1.341938,-0.238066,-0.52
 8578\Si,0,2.578203,-0.919928,0.381976\C,0,3.855109,-1.401519,-0.912187
 \C,0,3.323104,0.322325,1.590844\C,0,2.004141,-2.460002,1.314268\H,0,3.
 575003,1.257899,1.081172\H,0,2.650369,0.560621,2.420771\H,0,4.245866,-
 0.082773,2.022559\H,0,1.277259,-2.237268,2.102503\H,0,1.551935,-3.1916
 51,0.636195\H,0,2.8636,-2.942206,1.79498\H,0,3.443614,-2.126139,-1.622
 533\H,0,4.190061,-0.52752,-1.480088\H,0,4.735704,-1.854669,-0.443279\H
 ,0,-1.407077,-2.247943,-2.263929\H,0,-1.2094,-0.598665,-2.861791\H,0,0
 .203008,-1.523015,-2.326381\H,0,-3.199235,-2.05001,0.54095\H,0,-3.3683
 36,-2.077244,-1.210364\H,0,-5.599941,-1.801949,-0.132309\H,0,-5.050249
 ,-0.325314,0.676456\H,0,-5.208744,-0.364744,-1.085873\C,0,-0.074379,1.
 552436,-1.221638\C,0,0.85863,2.680669,-0.872337\C,0,1.884944,3.076308,
 -1.626933\H,0,-1.107595,1.921907,-1.180045\H,0,0.113662,1.234649,-2.25
 0981\H,0,0.653142,3.217498,0.053501\H,0,2.518052,3.909894,-1.337007\H,
 0,2.124516,2.583683,-2.566371\\Version=ES64L-G09RevD.01\State=1-A\HF=-
 1064.3390488\RMSD=1.139e-09\Dipole=0.738925,-1.4539051,-1.2776096\Quad
 rupole=1.794004,0.8200054,-2.6140094,6.5537949,9.4324842,-5.5029527\PG
 =C01 [X(C14H26O3Si1)]\\@


 THE NUMBERS ARE MEANINGLESS, BUT THE TRENDS ARE IMPORTANT.
     -- LARRY BURGGRAF
 Job cpu time:       0 days  2 hours 22 minutes 32.9 seconds.
 File lengths (MBytes):  RWF=    416 Int=      0 D2E=      0 Chk=     21 Scr=      1
 Normal termination of Gaussian 09 at Wed Jun 26 13:54:48 2019.
