 Entering Gaussian System, Link 0=/usr/local/Cluster-Apps/gaussian/g09/g09
 Initial command:
 /usr/local/Cluster-Apps/gaussian/g09/l1.exe "/home/ke291/rds/hpc-work/06Feb0927IP1/Gau-386329.inp" -scrdir="/home/ke291/rds/hpc-work/06Feb0927IP1/"
 Entering Link 1 = /usr/local/Cluster-Apps/gaussian/g09/l1.exe PID=    386333.
  
 Copyright (c) 1988,1990,1992,1993,1995,1998,2003,2009,2013,
            Gaussian, Inc.  All Rights Reserved.
  
 This is part of the Gaussian(R) 09 program.  It is based on
 the Gaussian(R) 03 system (copyright 2003, Gaussian, Inc.),
 the Gaussian(R) 98 system (copyright 1998, Gaussian, Inc.),
 the Gaussian(R) 94 system (copyright 1995, Gaussian, Inc.),
 the Gaussian 92(TM) system (copyright 1992, Gaussian, Inc.),
 the Gaussian 90(TM) system (copyright 1990, Gaussian, Inc.),
 the Gaussian 88(TM) system (copyright 1988, Gaussian, Inc.),
 the Gaussian 86(TM) system (copyright 1986, Carnegie Mellon
 University), and the Gaussian 82(TM) system (copyright 1983,
 Carnegie Mellon University). Gaussian is a federally registered
 trademark of Gaussian, Inc.
  
 This software contains proprietary and confidential information,
 including trade secrets, belonging to Gaussian, Inc.
  
 This software is provided under written license and may be
 used, copied, transmitted, or stored only in accord with that
 written license.
  
 The following legend is applicable only to US Government
 contracts under FAR:
  
                    RESTRICTED RIGHTS LEGEND
  
 Use, reproduction and disclosure by the US Government is
 subject to restrictions as set forth in subparagraphs (a)
 and (c) of the Commercial Computer Software - Restricted
 Rights clause in FAR 52.227-19.
  
 Gaussian, Inc.
 340 Quinnipiac St., Bldg. 40, Wallingford CT 06492
  
  
 ---------------------------------------------------------------
 Warning -- This program may not be used in any manner that
 competes with the business of Gaussian, Inc. or will provide
 assistance to any competitor of Gaussian, Inc.  The licensee
 of this program is prohibited from giving any competitor of
 Gaussian, Inc. access to this program.  By using this program,
 the user acknowledges that Gaussian, Inc. is engaged in the
 business of creating and licensing software in the field of
 computational chemistry and represents and warrants to the
 licensee that it is not a competitor of Gaussian, Inc. and that
 it will not use this program in any manner prohibited above.
 ---------------------------------------------------------------
  

 Cite this work as:
 Gaussian 09, Revision D.01,
 M. J. Frisch, G. W. Trucks, H. B. Schlegel, G. E. Scuseria, 
 M. A. Robb, J. R. Cheeseman, G. Scalmani, V. Barone, B. Mennucci, 
 G. A. Petersson, H. Nakatsuji, M. Caricato, X. Li, H. P. Hratchian, 
 A. F. Izmaylov, J. Bloino, G. Zheng, J. L. Sonnenberg, M. Hada, 
 M. Ehara, K. Toyota, R. Fukuda, J. Hasegawa, M. Ishida, T. Nakajima, 
 Y. Honda, O. Kitao, H. Nakai, T. Vreven, J. A. Montgomery, Jr., 
 J. E. Peralta, F. Ogliaro, M. Bearpark, J. J. Heyd, E. Brothers, 
 K. N. Kudin, V. N. Staroverov, T. Keith, R. Kobayashi, J. Normand, 
 K. Raghavachari, A. Rendell, J. C. Burant, S. S. Iyengar, J. Tomasi, 
 M. Cossi, N. Rega, J. M. Millam, M. Klene, J. E. Knox, J. B. Cross, 
 V. Bakken, C. Adamo, J. Jaramillo, R. Gomperts, R. E. Stratmann, 
 O. Yazyev, A. J. Austin, R. Cammi, C. Pomelli, J. W. Ochterski, 
 R. L. Martin, K. Morokuma, V. G. Zakrzewski, G. A. Voth, 
 P. Salvador, J. J. Dannenberg, S. Dapprich, A. D. Daniels, 
 O. Farkas, J. B. Foresman, J. V. Ortiz, J. Cioslowski, 
 and D. J. Fox, Gaussian, Inc., Wallingford CT, 2013.
 
 ******************************************
 Gaussian 09:  ES64L-G09RevD.01 24-Apr-2013
                 6-Feb-2019 
 ******************************************
 %nprocshared=2
 Will use up to    2 processors via shared memory.
 %mem=6000MB
 %chk=/home/ke291/rds/hpc-work/06Feb0927IP1/P_ng_4ginp009.chk
 ----------------------------------------------------------------------
 # mPW1PW91/6-311g(d) geom=checkpoint nmr=giao scrf=(solvent=chloroform
 )
 ----------------------------------------------------------------------
 1/29=2,38=1/1;
 2/12=2,40=1/2;
 3/5=4,6=6,7=1,11=2,14=-4,16=1,25=1,30=1,70=2201,72=7,74=-7/1,2,8,3;
 4//1;
 5/5=2,38=5,53=7/2;
 8/6=1,10=90,11=11/1;
 10/13=100,45=16/2;
 6/7=2,8=2,9=2,10=2,28=1/1;
 99/9=1/99;
 -------------
 P_ng_4ginp009
 -------------
 Structure from the checkpoint file:  "/home/ke291/rds/hpc-work/06Feb0927IP1/P_ng_4ginp009.chk"
 Charge =  0 Multiplicity = 1
 Redundant internal coordinates found in file.
 C,0,0.5940489496,1.9218337586,-0.0625578136
 C,0,-0.612208695,1.0026488386,0.2381458475
 C,0,-1.6086925991,1.6394446336,1.2380703881
 C,0,-2.0371184265,2.9920336432,0.6511346973
 C,0,-0.9108634083,3.8820759135,0.1721783717
 H,0,1.0093278807,1.5942735916,-1.0233974525
 H,0,-1.1602864348,0.9238546723,-0.7096838161
 H,0,-2.6801608179,2.8128935141,-0.2197411337
 H,0,-2.629478497,3.5671220084,1.3642888142
 O,0,0.2016296413,3.3057394265,-0.3264773815
 O,0,-1.0091315377,5.0920884482,0.1340377835
 C,0,1.7422208008,1.9566156169,0.9540859999
 C,0,2.9486468015,2.7593688875,0.4560297666
 C,0,-0.1491250352,-0.4080872528,0.6270060978
 O,0,-0.9166899502,1.8436467757,2.4699814708
 Si,0,-1.3478201045,2.227427206,4.0533032718
 C,0,-1.9994832346,0.7095540457,4.9668881223
 C,0,0.2703106346,2.7856397524,4.8331834085
 C,0,-2.6177448745,3.6214636371,4.1488521959
 H,0,0.1293627707,3.0199137034,5.8943116513
 H,0,1.0354923658,2.0056088484,4.7621395222
 H,0,0.6585990638,3.6831309436,4.3406800953
 H,0,-2.7826370818,3.8878779317,5.1997136934
 H,0,-2.269416254,4.5218133235,3.6320504397
 H,0,-3.5903960335,3.3428900073,3.7298024196
 H,0,-2.9654985145,0.3682041267,4.5822469319
 H,0,-1.2948258123,-0.1261935534,4.8985755448
 H,0,-2.1317570034,0.9445013814,6.0296138003
 H,0,0.6395868305,-0.7586617176,-0.046587669
 H,0,0.2377102004,-0.4318865381,1.64833946
 H,0,-0.9716086476,-1.125082876,0.5605314553
 H,0,2.0514848895,0.9253573359,1.1546729202
 H,0,1.3711399692,2.3633128573,1.8970486221
 H,0,3.7510692409,2.7512780108,1.2002124409
 H,0,3.3519380837,2.3387473726,-0.4727023844
 H,0,2.6768312381,3.800002823,0.2614724463
 C,0,-2.8604389023,0.7482744073,1.4816950145
 C,0,-3.6129535433,0.31573653,0.2516747588
 C,0,-4.8413571797,0.725566004,-0.0713264426
 H,0,-3.5402880584,1.3041018813,2.1379735516
 H,0,-2.5282703669,-0.134202426,2.0401978434
 H,0,-3.1105372552,-0.3948666201,-0.4040069162
 H,0,-5.3430809663,0.3717407961,-0.9670496224
 H,0,-5.3925131265,1.4252403301,0.5528427844
 Recover connectivity data from disk.
                          Input orientation:                          
 ---------------------------------------------------------------------
 Center     Atomic      Atomic             Coordinates (Angstroms)
 Number     Number       Type             X           Y           Z
 ---------------------------------------------------------------------
      1          6           0        0.594049    1.921834   -0.062558
      2          6           0       -0.612209    1.002649    0.238146
      3          6           0       -1.608693    1.639445    1.238070
      4          6           0       -2.037118    2.992034    0.651135
      5          6           0       -0.910863    3.882076    0.172178
      6          1           0        1.009328    1.594274   -1.023397
      7          1           0       -1.160286    0.923855   -0.709684
      8          1           0       -2.680161    2.812894   -0.219741
      9          1           0       -2.629478    3.567122    1.364289
     10          8           0        0.201630    3.305739   -0.326477
     11          8           0       -1.009132    5.092088    0.134038
     12          6           0        1.742221    1.956616    0.954086
     13          6           0        2.948647    2.759369    0.456030
     14          6           0       -0.149125   -0.408087    0.627006
     15          8           0       -0.916690    1.843647    2.469981
     16         14           0       -1.347820    2.227427    4.053303
     17          6           0       -1.999483    0.709554    4.966888
     18          6           0        0.270311    2.785640    4.833183
     19          6           0       -2.617745    3.621464    4.148852
     20          1           0        0.129363    3.019914    5.894312
     21          1           0        1.035492    2.005609    4.762140
     22          1           0        0.658599    3.683131    4.340680
     23          1           0       -2.782637    3.887878    5.199714
     24          1           0       -2.269416    4.521813    3.632050
     25          1           0       -3.590396    3.342890    3.729802
     26          1           0       -2.965499    0.368204    4.582247
     27          1           0       -1.294826   -0.126194    4.898576
     28          1           0       -2.131757    0.944501    6.029614
     29          1           0        0.639587   -0.758662   -0.046588
     30          1           0        0.237710   -0.431887    1.648339
     31          1           0       -0.971609   -1.125083    0.560531
     32          1           0        2.051485    0.925357    1.154673
     33          1           0        1.371140    2.363313    1.897049
     34          1           0        3.751069    2.751278    1.200212
     35          1           0        3.351938    2.338747   -0.472702
     36          1           0        2.676831    3.800003    0.261472
     37          6           0       -2.860439    0.748274    1.481695
     38          6           0       -3.612954    0.315737    0.251675
     39          6           0       -4.841357    0.725566   -0.071326
     40          1           0       -3.540288    1.304102    2.137974
     41          1           0       -2.528270   -0.134202    2.040198
     42          1           0       -3.110537   -0.394867   -0.404007
     43          1           0       -5.343081    0.371741   -0.967050
     44          1           0       -5.392513    1.425240    0.552843
 ---------------------------------------------------------------------
                    Distance matrix (angstroms):
                    1          2          3          4          5
     1  C    0.000000
     2  C    1.546086   0.000000
     3  C    2.573606   1.548657   0.000000
     4  C    2.928776   2.481649   1.535428   0.000000
     5  C    2.482421   2.895625   2.579241   1.513283   0.000000
     6  H    1.096798   2.137965   3.459813   3.746815   3.217231
     7  H    2.119535   1.097715   2.122942   2.626409   3.096928
     8  H    3.396932   2.786229   2.156442   1.097278   2.104083
     9  H    3.890243   3.451680   2.184920   1.090966   2.115174
    10  O    1.462478   2.507062   2.915753   2.462951   1.348504
    11  O    3.557998   4.109976   3.674114   2.394656   1.214595
    12  C    1.533973   2.639311   3.377849   3.930302   3.370109
    13  C    2.552358   3.976585   4.757642   4.995003   4.029499
    14  C    2.540932   1.534873   2.587687   3.889206   4.380938
    15  O    2.949949   2.404387   1.427645   2.425357   3.071665
    16  Si   4.561201   4.073896   2.887787   3.554505   4.241689
    17  C    5.787172   4.936744   3.862835   4.882300   5.851430
    18  C    4.981892   5.007222   4.215359   4.780832   4.931766
    19  C    5.562404   5.116052   3.663228   3.601019   4.335354
    20  H    6.075031   6.050744   5.158208   5.673211   5.879473
    21  H    4.845575   4.918065   4.420956   5.226311   5.327023
    22  H    4.742872   5.062680   4.352408   4.621391   4.458609
    23  H    6.554299   6.136160   4.704064   4.695520   5.364670
    24  H    5.348781   5.162310   3.804700   3.358578   3.771690
    25  H    5.823313   5.151504   3.610762   3.466117   4.486347
    26  H    6.054614   4.981135   3.826290   4.816639   6.001460
    27  H    5.689913   4.843538   4.076186   5.321193   6.209064
    28  H    6.745350   5.987780   4.869849   5.755813   6.665544
    29  H    2.680930   2.179514   3.529309   4.660395   4.897775
    30  H    2.931577   2.183781   2.804984   4.229952   4.701972
    31  H    3.481842   2.181821   2.916770   4.253724   5.022564
    32  H    2.144466   2.818024   3.730117   4.608837   4.299185
    33  H    2.153795   2.921821   3.136501   3.682909   3.238728
    34  H    3.499906   4.798069   5.473998   5.819155   4.906034
    35  H    2.819218   4.243221   5.293734   5.543620   4.579215
    36  H    2.823207   4.317814   4.897700   4.798539   3.589744
    37  C    3.961748   2.581794   1.555765   2.530246   3.916170
    38  C    4.514107   3.078393   2.596583   3.131356   4.475085
    39  C    5.565498   4.249499   3.605526   3.677306   5.046943
    40  H    4.724053   3.503408   2.157161   2.705425   4.174227
    41  H    4.289259   2.865504   2.152871   3.456021   4.715506
    42  H    4.382653   2.933778   3.015025   3.706298   4.843841
    43  H    6.202452   4.922570   4.518328   4.518168   5.767568
    44  H    6.038563   4.809254   3.851327   3.704481   5.125049
                    6          7          8          9         10
     6  H    0.000000
     7  H    2.292401   0.000000
     8  H    3.967773   2.473566   0.000000
     9  H    4.778503   3.666981   1.755158   0.000000
    10  O    2.016727   2.770386   2.925578   3.307897   0.000000
    11  O    4.201017   4.255454   2.848197   2.542551   2.206595
    12  C    2.139828   3.501325   4.654948   4.676938   2.415243
    13  C    2.703167   4.648799   5.669480   5.709018   2.908082
    14  C    2.841706   2.140854   4.183042   4.743209   3.850282
    15  O    3.996927   3.318980   3.359148   2.669563   3.347915
    16  Si   5.632932   4.941712   4.514068   3.266226   4.769280
    17  C    6.761597   5.742268   5.638128   4.641262   6.293234
    18  C    6.022046   6.019654   5.851331   4.588324   5.186263
    19  C    6.634555   5.745142   4.443230   2.785118   5.298786
    20  H    7.117688   7.047653   6.731859   5.332143   6.227771
    21  H    5.800200   5.994371   6.267130   5.236003   5.317865
    22  H    5.767119   6.035572   5.718573   4.436645   4.704636
    23  H    7.639812   6.807234   5.525992   3.851860   6.307418
    24  H    6.402644   5.746837   4.233842   2.486729   4.822328
    25  H    6.841639   5.609474   4.087581   2.563064   5.552859
    26  H    6.980383   5.618903   5.396018   4.549861   6.538760
    27  H    6.583228   5.707300   6.062553   5.283281   6.427964
    28  H    7.748134   6.808988   6.545691   5.375046   7.170776
    29  H    2.574329   2.551490   4.879212   5.602657   4.097499
    30  H    3.440770   3.058219   4.746819   4.928846   4.227417
    31  H    3.718580   2.418097   4.362985   5.040967   4.668561
    32  H    2.505500   3.713664   5.276389   5.379059   3.358867
    33  H    3.041601   3.908352   4.593034   4.211643   2.683280
    34  H    3.714868   5.577508   6.586409   6.434587   3.903426
    35  H    2.518994   4.734792   6.055991   6.376581   3.298621
    36  H    3.049049   4.892734   5.468392   5.424699   2.591641
    37  C    4.686822   2.779116   2.681424   2.830729   4.380226
    38  C    4.962454   2.703626   2.707052   3.574443   4.881129
    39  C    5.990961   3.741270   3.008277   3.876576   5.670460
    40  H    5.547745   3.730703   2.928325   2.559184   4.907343
    41  H    4.988772   3.248494   3.716957   3.763894   4.988658
    42  H    4.616667   2.374014   3.241744   4.365277   4.966986
    43  H    6.469224   4.226918   3.689016   4.796795   6.305751
    44  H    6.595201   4.444896   3.143139   3.588936   5.966902
                   11         12         13         14         15
    11  O    0.000000
    12  C    4.251307   0.000000
    13  C    4.605352   1.532298   0.000000
    14  C    5.588789   3.045651   4.433757   0.000000
    15  O    4.002193   3.062761   4.453692   3.009322   0.000000
    16  Si   4.866378   4.384842   5.628762   4.485791   1.685250
    17  C    6.598776   5.626552   7.002398   4.848456   2.948415
    18  C    5.388752   4.230981   5.131632   5.297900   2.807320
    19  C    4.568272   5.655754   6.735344   5.893621   2.978729
    20  H    6.226623   5.304502   6.131163   6.290728   3.768802
    21  H    5.926733   3.873388   4.771886   4.932401   3.015168
    22  H    4.739444   3.952735   4.603060   5.584072   3.060188
    23  H    5.500592   6.498420   7.524871   6.804437   3.887426
    24  H    3.761599   5.463055   6.357790   6.150597   3.217584
    25  H    4.759427   6.169535   7.336018   5.961503   3.314149
    26  H    6.777095   6.152172   7.597398   4.917166   3.291840
    27  H    7.071981   5.396364   6.787470   4.431523   3.149814
    28  H    7.295244   6.464755   7.756873   5.911725   3.867277
    29  H    6.081297   3.096753   4.238033   1.094850   3.940448
    30  H    5.861913   2.906971   4.353721   1.092396   2.680632
    31  H    6.231896   4.125121   5.519809   1.093152   3.530208
    32  H    5.269793   1.095159   2.157916   2.626631   3.373923
    33  H    4.027421   1.091917   2.172999   3.406592   2.415051
    34  H    5.410696   2.174290   1.094420   5.051898   4.921797
    35  H    5.193067   2.184706   1.096408   4.583874   5.208234
    36  H    3.907947   2.179745   1.093003   5.082093   4.649541
    37  C    4.910422   4.787790   6.232332   3.069021   2.440228
    38  C    5.441256   5.644799   7.004834   3.558497   3.811198
    39  C    5.813316   6.775725   8.068372   4.877487   4.807428
    40  H    4.977083   5.452730   6.859520   4.088349   2.699001
    41  H    5.766745   4.877320   6.393666   2.780729   2.587237
    42  H    5.900176   5.560858   6.884953   3.135781   4.252495
    43  H    6.502091   7.510266   8.745209   5.488745   5.794189
    44  H    5.730201   7.165737   8.447735   5.555152   4.887073
                   16         17         18         19         20
    16  Si   0.000000
    17  C    1.887655   0.000000
    18  C    1.881000   3.078956   0.000000
    19  C    1.888167   3.087175   3.083468   0.000000
    20  H    2.489863   3.275647   1.095785   3.309848   0.000000
    21  H    2.496363   3.306472   1.094988   4.041442   1.769661
    22  H    2.495471   4.037288   1.094905   3.282534   1.770231
    23  H    2.475894   3.281658   3.266460   1.096575   3.116981
    24  H    2.508187   4.048207   3.302610   1.095010   3.623213
    25  H    2.525482   3.315998   4.053768   1.095106   4.315787
    26  H    2.520590   1.094374   4.046903   3.300373   4.281500
    27  H    2.501364   1.095300   3.306464   4.044395   3.594133
    28  H    2.483195   1.096395   3.254407   3.307503   3.072183
    29  H    5.447533   5.852802   6.042400   6.884579   7.059196
    30  H    3.920422   4.161813   4.527336   5.553002   5.473111
    31  H    4.855957   4.882458   5.923822   6.173776   6.844147
    32  H    4.653248   5.566857   4.490509   6.167318   5.526834
    33  H    3.472844   4.849735   3.164028   4.750238   4.236891
    34  H    5.866278   7.171146   5.031435   7.072022   5.934938
    35  H    6.525707   7.802636   6.152119   7.657757   7.168532
    36  H    5.748808   7.318451   5.265056   6.570855   6.231132
    37  C    3.330027   3.590169   5.018458   3.927829   5.794001
    38  C    4.820557   4.999162   6.493873   5.206368   7.290875
    39  C    5.610077   5.784471   7.377484   5.580375   8.096970
    40  H    3.054167   3.275717   4.896915   3.203886   5.524529
    41  H    3.320143   3.091449   4.915110   4.308069   5.644967
    42  H    5.463626   5.594703   6.998137   6.091164   7.862982
    43  H    6.679044   6.819485   8.424950   6.645345   9.167265
    44  H    5.408906   5.613257   7.227695   5.045198   7.846361
                   21         22         23         24         25
    21  H    0.000000
    22  H    1.770242   0.000000
    23  H    4.279313   3.552741   0.000000
    24  H    4.304742   3.127110   1.767155   0.000000
    25  H    4.924722   4.306146   1.763555   1.773247   0.000000
    26  H    4.326821   4.917436   3.578101   4.317392   3.156884
    27  H    3.161262   4.317183   4.291507   4.915067   4.320904
    28  H    3.572661   4.258952   3.126635   4.308645   3.628916
    29  H    5.560736   6.243236   7.799078   7.062442   6.998329
    30  H    4.034054   4.935505   6.355716   5.895756   5.765052
    31  H    5.610989   6.329773   7.066230   6.557894   6.071664
    32  H    3.900385   4.438027   6.964741   6.143458   6.656319
    33  H    2.906778   2.867223   5.521391   4.574167   5.379163
    34  H    4.540672   4.504915   7.744494   6.730147   7.787550
    35  H    5.734150   5.677155   8.497595   7.294820   8.177124
    36  H    5.115647   4.552676   7.362047   6.028861   7.177493
    37  C    5.245997   5.401001   4.866911   4.383256   3.509823
    38  C    6.693879   6.804812   6.158954   5.560856   4.611024
    39  C    7.716104   7.646078   6.482469   5.894181   4.781618
    40  H    5.321290   5.304936   4.077277   3.768428   2.587100
    41  H    4.968719   5.479087   5.120974   4.927422   4.009120
    42  H    7.045631   7.304006   7.060531   6.416462   5.593699
    43  H    8.728077   8.669340   7.546394   6.915362   5.827525
    44  H    7.705470   7.487439   5.871069   5.368800   4.125297
                   26         27         28         29         30
    26  H    0.000000
    27  H    1.770774   0.000000
    28  H    1.766951   1.768075   0.000000
    29  H    5.974326   5.347580   6.892121   0.000000
    30  H    4.416843   3.606404   5.167628   1.772305   0.000000
    31  H    4.730719   4.463281   5.961542   1.760343   1.768134
    32  H    6.101541   5.130337   6.423778   2.504477   2.318533
    33  H    5.476968   4.723789   5.600126   3.749616   3.026493
    34  H    7.888566   6.886130   7.822736   4.853402   4.762042
    35  H    8.327398   7.517910   8.619452   4.139126   4.676927
    36  H    7.891908   7.258912   8.034169   5.002668   5.077558
    37  C    3.125526   3.858874   4.610103   4.105689   3.319500
    38  C    4.379019   5.211785   5.997822   4.396293   4.163799
    39  C    5.030139   6.164682   6.679172   5.678406   5.485788
    40  H    2.679694   3.835201   4.154291   5.147684   4.186486
    41  H    2.627850   3.113161   4.151658   3.844469   2.809416
    42  H    5.046389   5.611272   6.644049   3.784643   3.927373
    43  H    6.037185   7.144359   7.719712   6.157709   6.215409
    44  H    4.821185   6.171173   6.392078   6.443212   6.028967
                   31         32         33         34         35
    31  H    0.000000
    32  H    3.700865   0.000000
    33  H    4.409496   1.755479   0.000000
    34  H    6.143212   2.494924   2.510012   0.000000
    35  H    5.635490   2.517380   3.088670   1.768652   0.000000
    36  H    6.136532   3.074484   2.538507   1.770605   1.769195
    37  C    2.815260   4.925982   4.548310   6.913993   6.703947
    38  C    3.024575   5.768267   5.633916   7.814117   7.288828
    39  C    4.335793   7.003875   6.719512   8.919087   8.360236
    40  H    3.871353   5.690189   5.030119   7.492503   7.442372
    41  H    2.365259   4.783407   4.632869   6.961442   6.856165
    42  H    2.457349   5.551481   5.743504   7.717084   7.017190
    43  H    4.866596   7.712834   7.566385   9.646906   8.928429
    44  H    5.103783   7.484998   6.959445   9.261888   8.851648
                   36         37         38         39         40
    36  H    0.000000
    37  C    6.439204   0.000000
    38  C    7.190382   1.505429   0.000000
    39  C    8.129334   2.517226   1.334641   0.000000
    40  H    6.957252   1.096285   2.130791   2.628401   0.000000
    41  H    6.762760   1.095914   2.139579   3.247785   1.761380
    42  H    7.178679   2.219277   1.089632   2.088488   3.087530
    43  H    8.808021   3.507369   2.117018   1.085928   3.709519
    44  H    8.416574   2.780728   2.118616   1.087614   2.440912
                   41         42         43         44
    41  H    0.000000
    42  H    2.526087   0.000000
    43  H    4.150021   2.426717   0.000000
    44  H    3.584407   3.071769   1.849967   0.000000
 Stoichiometry    C14H26O3Si
 Framework group  C1[X(C14H26O3Si)]
 Deg. of freedom   126
 Full point group                 C1      NOp   1
 Largest Abelian subgroup         C1      NOp   1
 Largest concise Abelian subgroup C1      NOp   1
                         Standard orientation:                         
 ---------------------------------------------------------------------
 Center     Atomic      Atomic             Coordinates (Angstroms)
 Number     Number       Type             X           Y           Z
 ---------------------------------------------------------------------
      1          6           0        2.270076    0.471706   -0.508489
      2          6           0        0.980352    1.190918   -0.966450
      3          6           0       -0.257287    0.778432   -0.131918
      4          6           0        0.075822    1.057926    1.340652
      5          6           0        1.410635    0.529885    1.819683
      6          1           0        3.112625    1.083101   -0.853846
      7          1           0        1.144193    2.252480   -0.740129
      8          1           0        0.098872    2.143465    1.499056
      9          1           0       -0.692229    0.661003    2.006051
     10          8           0        2.435052    0.471967    0.944653
     11          8           0        1.618418    0.244999    2.981969
     12          6           0        2.504586   -0.963559   -0.996436
     13          6           0        3.892956   -1.494830   -0.624795
     14          6           0        0.784662    1.062955   -2.483410
     15          8           0       -0.463830   -0.621024   -0.324359
     16         14           0       -1.695288   -1.721833    0.010006
     17          6           0       -3.078971   -1.602314   -1.268421
     18          6           0       -0.848342   -3.395284   -0.132848
     19          6           0       -2.411868   -1.514159    1.744526
     20          1           0       -1.567384   -4.208398    0.017384
     21          1           0       -0.395388   -3.528284   -1.120846
     22          1           0       -0.057759   -3.504459    0.616737
     23          1           0       -3.135632   -2.315816    1.934232
     24          1           0       -1.635506   -1.583190    2.513644
     25          1           0       -2.939906   -0.564066    1.877774
     26          1           0       -3.636898   -0.663360   -1.199605
     27          1           0       -2.685052   -1.686751   -2.286940
     28          1           0       -3.792352   -2.421695   -1.120822
     29          1           0        1.723297    1.251561   -3.014531
     30          1           0        0.431928    0.065605   -2.755808
     31          1           0        0.055704    1.790711   -2.849431
     32          1           0        2.391849   -0.976155   -2.085704
     33          1           0        1.723262   -1.609871   -0.591346
     34          1           0        4.028899   -2.514042   -0.999602
     35          1           0        4.686614   -0.873194   -1.055824
     36          1           0        4.032049   -1.510593    0.459207
     37          6           0       -1.539541    1.558527   -0.541407
     38          6           0       -1.428271    3.059838   -0.539627
     39          6           0       -2.061777    3.868062    0.312845
     40          1           0       -2.341867    1.260121    0.143479
     41          1           0       -1.827037    1.211191   -1.540272
     42          1           0       -0.792557    3.503727   -1.305217
     43          1           0       -1.954268    4.947442    0.261649
     44          1           0       -2.716735    3.478984    1.089087
 ---------------------------------------------------------------------
 Rotational constants (GHZ):      0.3876536      0.3381340      0.2678524
 Standard basis: 6-311G(d) (5D, 7F)
 There are   428 symmetry adapted cartesian basis functions of A   symmetry.
 There are   410 symmetry adapted basis functions of A   symmetry.
   410 basis functions,   720 primitive gaussians,   428 cartesian basis functions
    74 alpha electrons       74 beta electrons
       nuclear repulsion energy      1646.9421033086 Hartrees.
 NAtoms=   44 NActive=   44 NUniq=   44 SFac= 1.00D+00 NAtFMM=   60 NAOKFM=F Big=F
 Integral buffers will be    131072 words long.
 Raffenetti 2 integral format.
 Two-electron integral symmetry is turned on.
 ------------------------------------------------------------------------------
 Polarizable Continuum Model (PCM)
 =================================
 Model                : PCM (using non-symmetric T matrix).
 Atomic radii         : UFF (Universal Force Field).
 Polarization charges : Total charges.
 Charge compensation  : None.
 Solution method      : On-the-fly selection.
 Cavity type          : Scaled VdW (van der Waals Surface) (Alpha=1.100).
 Cavity algorithm     : GePol (No added spheres)
                        Default sphere list used, NSphG=   44.
                        Lebedev-Laikov grids with approx.  5.0 points / Ang**2.
                        Smoothing algorithm: Karplus/York (Gamma=1.0000).
                        Polarization charges: spherical gaussians, with
                                              point-specific exponents (IZeta= 3).
                        Self-potential: point-specific (ISelfS= 7).
                        Self-field    : sphere-specific E.n sum rule (ISelfD= 2).
 Solvent              : Chloroform, Eps=   4.711300 Eps(inf)=   2.090627
 ------------------------------------------------------------------------------
 One-electron integrals computed using PRISM.
 NBasis=   410 RedAO= T EigKep=  1.13D-03  NBF=   410
 NBsUse=   410 1.00D-06 EigRej= -1.00D+00 NBFU=   410
 ExpMin= 6.54D-02 ExpMax= 6.94D+04 ExpMxC= 2.33D+03 IAcc=2 IRadAn=         4 AccDes= 0.00D+00
 Harris functional with IExCor=  908 and IRadAn=       4 diagonalized for initial guess.
 HarFok:  IExCor=  908 AccDes= 0.00D+00 IRadAn=         4 IDoV= 1 UseB2=F ITyADJ=14
 ICtDFT=  3500011 ScaDFX=  1.000000  1.000000  1.000000  1.000000
 FoFCou: FMM=F IPFlag=           0 FMFlag=      100000 FMFlg1=           0
         NFxFlg=           0 DoJE=T BraDBF=F KetDBF=T FulRan=T
         wScrn=  0.000000 ICntrl=     500 IOpCl=  0 I1Cent=   200000004 NGrid=           0
         NMat0=    1 NMatS0=      1 NMatT0=    0 NMatD0=    1 NMtDS0=    0 NMtDT0=    0
 Petite list used in FoFCou.
 Requested convergence on RMS density matrix=1.00D-08 within 128 cycles.
 Requested convergence on MAX density matrix=1.00D-06.
 Requested convergence on             energy=1.00D-06.
 No special actions if energy rises.
 Inv3:  Mode=1 IEnd=    24865923.
 Iteration    1 A*A^-1 deviation from unit magnitude is 5.55D-15 for   2863.
 Iteration    1 A*A^-1 deviation from orthogonality  is 3.34D-15 for   2673    138.
 Iteration    1 A^-1*A deviation from unit magnitude is 5.66D-15 for   2863.
 Iteration    1 A^-1*A deviation from orthogonality  is 9.15D-13 for   2878   2572.
 Error on total polarization charges =  0.01117
 SCF Done:  E(RmPW1PW91) =  -1064.38320892     A.U. after   12 cycles
            NFock= 12  Conv=0.79D-08     -V/T= 2.0036
 DoSCS=F DFT=T ScalE2(SS,OS)=  1.000000  1.000000
 Range of M.O.s used for correlation:     1   410
 NBasis=   410 NAE=    74 NBE=    74 NFC=     0 NFV=     0
 NROrb=    410 NOA=    74 NOB=    74 NVA=   336 NVB=   336
 NEqPCM:  Using equilibrium solvation (IEInf=0, Eps=   4.7113, EpsInf=   2.0906)
          Differentiating once with respect to magnetic field using GIAOs.
          Electric field/nuclear overlap derivatives assumed to be zero.
 FoFJK:  IHMeth= 1 ICntrl=    6127 DoSepK=F KAlg= 0 I1Cent=   0 FoldK=F
 IRaf=         1 NMat=   1 IRICut=       1 DoRegI=T DoRafI=F ISym2E= 0.
          There are     3 degrees of freedom in the 1st order CPHF.  IDoFFX=0 NUNeed=     3.
      3 vectors produced by pass  0 Test12= 8.29D-13 3.33D-08 XBig12= 2.86D+01 9.54D-01.
 AX will form     3 AO Fock derivatives at one time.
      3 vectors produced by pass  1 Test12= 8.29D-13 3.33D-08 XBig12= 7.34D-02 1.22D-01.
      3 vectors produced by pass  2 Test12= 8.29D-13 3.33D-08 XBig12= 9.29D-04 1.34D-02.
      3 vectors produced by pass  3 Test12= 8.29D-13 3.33D-08 XBig12= 3.77D-06 2.74D-04.
      3 vectors produced by pass  4 Test12= 8.29D-13 3.33D-08 XBig12= 1.24D-08 1.81D-05.
      3 vectors produced by pass  5 Test12= 8.29D-13 3.33D-08 XBig12= 4.69D-11 9.15D-07.
      2 vectors produced by pass  6 Test12= 8.29D-13 3.33D-08 XBig12= 1.33D-13 5.83D-08.
 InvSVY:  IOpt=1 It=  1 EMax= 1.78D-15
 Solved reduced A of dimension    20 with     3 vectors.
 Calculating GIAO nuclear magnetic shielding tensors.
 SCF GIAO Magnetic shielding tensor (ppm):
      1  C    Isotropic =    98.0508   Anisotropy =    51.4969
   XX=    78.6241   YX=    -9.2358   ZX=     9.4151
   XY=    -8.5684   YY=    83.3795   ZY=    -3.5237
   XZ=    -2.9394   YZ=     7.2955   ZZ=   132.1487
   Eigenvalues:    71.5596    90.2106   132.3821
      2  C    Isotropic =   147.8358   Anisotropy =     7.7436
   XX=   149.2199   YX=     2.2149   ZX=    -3.3760
   XY=     2.5413   YY=   147.2208   ZY=     8.5269
   XZ=    -5.9805   YZ=    -1.0950   ZZ=   147.0666
   Eigenvalues:   140.4792   150.0300   152.9982
      3  C    Isotropic =   105.8143   Anisotropy =    54.5252
   XX=    91.4142   YX=     5.4290   ZX=    -3.1309
   XY=     7.7894   YY=   141.0764   ZY=     3.9744
   XZ=    -6.3915   YZ=     4.4503   ZZ=    84.9523
   Eigenvalues:    81.6313    93.6472   142.1644
      4  C    Isotropic =   144.5442   Anisotropy =    24.4295
   XX=   150.0691   YX=     1.5556   ZX=    10.0436
   XY=     1.8178   YY=   131.0457   ZY=    -8.7068
   XZ=     8.8084   YZ=     3.1697   ZZ=   152.5178
   Eigenvalues:   130.1897   142.6124   160.8306
      5  C    Isotropic =    11.8241   Anisotropy =    99.2589
   XX=   -58.3410   YX=    29.1976   ZX=    40.3409
   XY=    24.9707   YY=    69.9746   ZY=     3.8943
   XZ=    50.9185   YZ=    -1.7524   ZZ=    23.8389
   Eigenvalues:   -82.5577    40.0334    77.9967
      6  H    Isotropic =    27.6946   Anisotropy =     4.6704
   XX=    29.8101   YX=     0.9630   ZX=    -0.3211
   XY=     2.0578   YY=    26.9688   ZY=    -0.8791
   XZ=    -1.0834   YZ=    -1.9873   ZZ=    26.3050
   Eigenvalues:    25.1258    27.1499    30.8083
      7  H    Isotropic =    29.9993   Anisotropy =     6.5606
   XX=    29.1641   YX=     0.4388   ZX=    -0.8962
   XY=     1.4143   YY=    34.2003   ZY=     0.4406
   XZ=    -0.0325   YZ=     0.2165   ZZ=    26.6334
   Eigenvalues:    26.5191    29.1057    34.3730
      8  H    Isotropic =    29.5278   Anisotropy =     5.6704
   XX=    27.3301   YX=    -1.9464   ZX=     1.8455
   XY=    -1.6878   YY=    31.9637   ZY=     2.2909
   XZ=     1.4576   YZ=     2.0725   ZZ=    29.2896
   Eigenvalues:    25.2964    29.9789    33.3081
      9  H    Isotropic =    29.7966   Anisotropy =     4.7336
   XX=    30.0620   YX=     2.5279   ZX=    -1.7056
   XY=     2.5679   YY=    27.7827   ZY=    -0.5412
   XZ=    -0.2643   YZ=    -1.2623   ZZ=    31.5450
   Eigenvalues:    26.1217    30.3158    32.9523
     10  O    Isotropic =   100.5999   Anisotropy =   192.1711
   XX=   167.0503   YX=    22.1491   ZX=   -71.9652
   XY=    35.6702   YY=   212.4180   ZY=    71.7426
   XZ=   -80.5666   YZ=    47.9981   ZZ=   -77.6685
   Eigenvalues:  -112.7089   185.7947   228.7140
     11  O    Isotropic =  -113.2628   Anisotropy =   577.3833
   XX=  -204.0619   YX=   106.9577   ZX=   120.7346
   XY=   116.6603   YY=   213.1946   ZY=   136.6588
   XZ=    82.9735   YZ=    93.1130   ZZ=  -348.9210
   Eigenvalues:  -406.3584  -205.0894   271.6594
     12  C    Isotropic =   159.5773   Anisotropy =    13.3927
   XX=   157.8868   YX=    -4.3845   ZX=    -1.6276
   XY=     0.0841   YY=   165.6328   ZY=     9.3844
   XZ=     0.2042   YZ=     1.6919   ZZ=   155.2125
   Eigenvalues:   152.8105   157.4158   168.5058
     13  C    Isotropic =   174.8966   Anisotropy =    23.8087
   XX=   188.7966   YX=    -6.3356   ZX=     1.0334
   XY=    -3.9238   YY=   175.2014   ZY=    -0.5233
   XZ=     3.0344   YZ=    -4.6847   ZZ=   160.6918
   Eigenvalues:   160.1913   173.7295   190.7691
     14  C    Isotropic =   176.7252   Anisotropy =    12.9592
   XX=   173.8235   YX=    -2.0057   ZX=     1.2257
   XY=    -1.8245   YY=   171.2812   ZY=    -1.0590
   XZ=     1.4697   YZ=    -1.2351   ZZ=   185.0708
   Eigenvalues:   170.2439   174.5669   185.3646
     15  O    Isotropic =   245.9445   Anisotropy =    40.9349
   XX=   252.1478   YX=   -28.4369   ZX=    -0.8940
   XY=   -25.5523   YY=   238.6665   ZY=    -2.1910
   XZ=    -2.5951   YZ=    -3.2982   ZZ=   247.0191
   Eigenvalues:   217.2319   247.3671   273.2344
     16  Si   Isotropic =   332.3095   Anisotropy =    43.0009
   XX=   338.4821   YX=     8.5226   ZX=    -7.5330
   XY=    25.9703   YY=   343.2242   ZY=   -12.8310
   XZ=    -5.4654   YZ=    -5.3992   ZZ=   315.2222
   Eigenvalues:   312.4071   323.5447   360.9768
     17  C    Isotropic =   184.8576   Anisotropy =    12.6321
   XX=   187.4202   YX=     2.7110   ZX=     7.4894
   XY=     3.6667   YY=   182.1279   ZY=    -2.5021
   XZ=     6.3761   YZ=    -3.6608   ZZ=   185.0247
   Eigenvalues:   176.0037   185.2901   193.2790
     18  C    Isotropic =   186.8390   Anisotropy =    11.1486
   XX=   189.9460   YX=    -1.7988   ZX=    -1.7838
   XY=    -2.7450   YY=   192.9977   ZY=     0.0860
   XZ=    -2.1508   YZ=     0.1026   ZZ=   177.5733
   Eigenvalues:   177.2638   188.9818   194.2714
     19  C    Isotropic =   185.6975   Anisotropy =     8.8232
   XX=   183.8310   YX=     4.0678   ZX=    -4.0648
   XY=     4.0779   YY=   183.0893   ZY=     0.8605
   XZ=    -2.5062   YZ=     3.1960   ZZ=   190.1723
   Eigenvalues:   178.2065   187.3064   191.5797
     20  H    Isotropic =    32.3545   Anisotropy =    10.6241
   XX=    31.7323   YX=     4.2488   ZX=    -0.7180
   XY=     3.9312   YY=    37.1343   ZY=    -0.7747
   XZ=    -0.7330   YZ=    -0.8822   ZZ=    28.1969
   Eigenvalues:    28.0537    29.5726    39.4372
     21  H    Isotropic =    31.9189   Anisotropy =     7.6240
   XX=    30.5851   YX=    -0.6450   ZX=    -3.7497
   XY=    -0.9229   YY=    31.5092   ZY=     2.6386
   XZ=    -3.3064   YZ=     1.9954   ZZ=    33.6622
   Eigenvalues:    28.1333    30.6218    37.0015
     22  H    Isotropic =    31.9425   Anisotropy =     7.4505
   XX=    33.5667   YX=    -1.1891   ZX=     3.9583
   XY=    -1.7065   YY=    31.5101   ZY=    -1.6816
   XZ=     3.4641   YZ=    -1.3418   ZZ=    30.7508
   Eigenvalues:    28.1272    30.7909    36.9095
     23  H    Isotropic =    32.1561   Anisotropy =    10.5707
   XX=    33.1355   YX=     4.6814   ZX=    -3.1345
   XY=     4.8819   YY=    32.8438   ZY=    -2.2376
   XZ=    -2.7866   YZ=    -1.7767   ZZ=    30.4891
   Eigenvalues:    27.9134    29.3517    39.2032
     24  H    Isotropic =    31.7882   Anisotropy =     7.4474
   XX=    31.7270   YX=     0.5744   ZX=     2.5080
   XY=     1.1075   YY=    28.6829   ZY=    -1.1031
   XZ=     3.4499   YZ=    -0.9154   ZZ=    34.9546
   Eigenvalues:    27.9099    30.7015    36.7531
     25  H    Isotropic =    31.8219   Anisotropy =     6.9451
   XX=    31.2603   YX=    -2.7768   ZX=    -2.6083
   XY=    -2.2259   YY=    34.1660   ZY=     0.5833
   XZ=    -2.6265   YZ=     1.5869   ZZ=    30.0393
   Eigenvalues:    27.8634    31.1503    36.4519
     26  H    Isotropic =    31.9206   Anisotropy =     6.6756
   XX=    33.0194   YX=    -2.8484   ZX=     1.5211
   XY=    -2.1786   YY=    34.3361   ZY=     0.4582
   XZ=     1.6904   YZ=    -0.1272   ZZ=    28.4062
   Eigenvalues:    27.7549    31.6358    36.3710
     27  H    Isotropic =    31.8997   Anisotropy =     7.7776
   XX=    30.0374   YX=     0.7305   ZX=     0.0226
   XY=     0.8347   YY=    28.7336   ZY=     1.0300
   XZ=    -1.0527   YZ=     1.0677   ZZ=    36.9282
   Eigenvalues:    28.2104    30.4040    37.0848
     28  H    Isotropic =    32.2493   Anisotropy =    10.4038
   XX=    34.6943   YX=     5.0733   ZX=     1.0373
   XY=     5.2062   YY=    33.1865   ZY=     0.0438
   XZ=     0.8716   YZ=    -0.0603   ZZ=    28.8670
   Eigenvalues:    28.1516    29.4111    39.1851
     29  H    Isotropic =    31.3614   Anisotropy =    10.4148
   XX=    32.6137   YX=     0.7325   ZX=    -4.3704
   XY=     0.7379   YY=    27.4346   ZY=    -2.5789
   XZ=    -4.2931   YZ=    -2.7728   ZZ=    34.0358
   Eigenvalues:    26.3474    29.4322    38.3045
     30  H    Isotropic =    30.8668   Anisotropy =     5.5508
   XX=    28.4163   YX=     1.9031   ZX=     0.1594
   XY=     2.0339   YY=    32.1166   ZY=     1.8985
   XZ=     0.6261   YZ=     2.0956   ZZ=    32.0674
   Eigenvalues:    27.5161    30.5169    34.5673
     31  H    Isotropic =    30.9087   Anisotropy =     9.0130
   XX=    29.9978   YX=    -3.8065   ZX=     0.9526
   XY=    -3.6378   YY=    30.1517   ZY=    -3.8283
   XZ=     1.4174   YZ=    -3.7761   ZZ=    32.5767
   Eigenvalues:    25.7296    30.0792    36.9174
     32  H    Isotropic =    30.5426   Anisotropy =     4.9053
   XX=    30.3951   YX=    -3.9675   ZX=     1.1472
   XY=    -4.1036   YY=    28.0110   ZY=     1.3483
   XZ=     1.3883   YZ=     0.9377   ZZ=    33.2217
   Eigenvalues:    24.6669    33.1481    33.8128
     33  H    Isotropic =    29.9035   Anisotropy =    10.4948
   XX=    36.3341   YX=     1.1413   ZX=    -2.2104
   XY=     1.0208   YY=    30.6863   ZY=    -0.7677
   XZ=    -2.1551   YZ=    -0.6937   ZZ=    22.6900
   Eigenvalues:    22.3121    30.4984    36.9000
     34  H    Isotropic =    31.0438   Anisotropy =    10.6044
   XX=    31.0861   YX=    -4.1560   ZX=    -0.5999
   XY=    -3.7139   YY=    35.3276   ZY=     2.6922
   XZ=    -0.3095   YZ=     1.9448   ZZ=    26.7178
   Eigenvalues:    26.0548    28.9632    38.1134
     35  H    Isotropic =    31.3382   Anisotropy =    10.2469
   XX=    37.0790   YX=     1.8269   ZX=    -2.8735
   XY=     0.9322   YY=    28.7771   ZY=    -1.5283
   XZ=    -2.6530   YZ=    -1.0724   ZZ=    28.1584
   Eigenvalues:    26.9008    28.9443    38.1694
     36  H    Isotropic =    30.5837   Anisotropy =     7.5971
   XX=    30.8926   YX=    -2.8566   ZX=     2.8164
   XY=    -3.5923   YY=    27.3264   ZY=    -0.7990
   XZ=     1.8905   YZ=    -0.8430   ZZ=    33.5321
   Eigenvalues:    25.3924    30.7103    35.6485
     37  C    Isotropic =   139.9107   Anisotropy =    32.4116
   XX=   142.6919   YX=    -7.5081   ZX=     4.8180
   XY=    -3.5053   YY=   158.7787   ZY=    -6.2752
   XZ=     9.7296   YZ=    -2.9851   ZZ=   118.2615
   Eigenvalues:   116.0412   142.1725   161.5184
     38  C    Isotropic =    46.6695   Anisotropy =   173.1795
   XX=    93.7377   YX=   -45.6649   ZX=    83.9715
   XY=   -49.7529   YY=   -15.3293   ZY=    45.6704
   XZ=    80.8177   YZ=    42.4710   ZZ=    61.5999
   Eigenvalues:   -75.4875    53.3735   162.1225
     39  C    Isotropic =    63.0788   Anisotropy =   142.5882
   XX=   105.7802   YX=   -46.2056   ZX=    61.2788
   XY=   -47.2341   YY=    -1.2569   ZY=    44.9832
   XZ=    61.9869   YZ=    44.7359   ZZ=    84.7131
   Eigenvalues:   -51.0229    82.1217   158.1376
     40  H    Isotropic =    30.0131   Anisotropy =     3.5295
   XX=    31.8767   YX=    -0.2076   ZX=    -2.2376
   XY=     0.0606   YY=    32.1253   ZY=    -1.3920
   XZ=    -1.0937   YZ=     0.1128   ZZ=    26.0373
   Eigenvalues:    25.5340    32.1392    32.3661
     41  H    Isotropic =    29.3639   Anisotropy =     2.5338
   XX=    29.3716   YX=     1.0044   ZX=     2.4748
   XY=    -0.2468   YY=    29.4811   ZY=    -0.0752
   XZ=     0.8602   YZ=     0.3009   ZZ=    29.2391
   Eigenvalues:    27.6185    29.4201    31.0531
     42  H    Isotropic =    26.0239   Anisotropy =     7.5214
   XX=    24.2347   YX=    -2.8281   ZX=    -0.2940
   XY=    -3.6841   YY=    29.3873   ZY=     0.9825
   XZ=    -0.4348   YZ=     0.2271   ZZ=    24.4496
   Eigenvalues:    22.6565    24.3769    31.0381
     43  H    Isotropic =    26.7393   Anisotropy =     6.5599
   XX=    25.8109   YX=    -3.2362   ZX=    -0.4381
   XY=    -1.9942   YY=    28.6371   ZY=     1.4707
   XZ=    -0.4091   YZ=     3.1286   ZZ=    25.7697
   Eigenvalues:    23.7373    25.3680    31.1125
     44  H    Isotropic =    26.7494   Anisotropy =     7.3422
   XX=    27.0274   YX=    -2.5730   ZX=    -0.9248
   XY=    -4.2550   YY=    27.0457   ZY=     3.6948
   XZ=    -1.0181   YZ=     1.4772   ZZ=    26.1750
   Eigenvalues:    23.0512    25.5527    31.6442
 End of Minotr F.D. properties file   721 does not exist.
 End of Minotr F.D. properties file   722 does not exist.
 End of Minotr F.D. properties file   788 does not exist.

 **********************************************************************

            Population analysis using the SCF density.

 **********************************************************************

 Orbital symmetries:
       Occupied  (A) (A) (A) (A) (A) (A) (A) (A) (A) (A) (A) (A)
                 (A) (A) (A) (A) (A) (A) (A) (A) (A) (A) (A) (A)
                 (A) (A) (A) (A) (A) (A) (A) (A) (A) (A) (A) (A)
                 (A) (A) (A) (A) (A) (A) (A) (A) (A) (A) (A) (A)
                 (A) (A) (A) (A) (A) (A) (A) (A) (A) (A) (A) (A)
                 (A) (A) (A) (A) (A) (A) (A) (A) (A) (A) (A) (A)
                 (A) (A)
       Virtual   (A) (A) (A) (A) (A) (A) (A) (A) (A) (A) (A) (A)
                 (A) (A) (A) (A) (A) (A) (A) (A) (A) (A) (A) (A)
                 (A) (A) (A) (A) (A) (A) (A) (A) (A) (A) (A) (A)
                 (A) (A) (A) (A) (A) (A) (A) (A) (A) (A) (A) (A)
                 (A) (A) (A) (A) (A) (A) (A) (A) (A) (A) (A) (A)
                 (A) (A) (A) (A) (A) (A) (A) (A) (A) (A) (A) (A)
                 (A) (A) (A) (A) (A) (A) (A) (A) (A) (A) (A) (A)
                 (A) (A) (A) (A) (A) (A) (A) (A) (A) (A) (A) (A)
                 (A) (A) (A) (A) (A) (A) (A) (A) (A) (A) (A) (A)
                 (A) (A) (A) (A) (A) (A) (A) (A) (A) (A) (A) (A)
                 (A) (A) (A) (A) (A) (A) (A) (A) (A) (A) (A) (A)
                 (A) (A) (A) (A) (A) (A) (A) (A) (A) (A) (A) (A)
                 (A) (A) (A) (A) (A) (A) (A) (A) (A) (A) (A) (A)
                 (A) (A) (A) (A) (A) (A) (A) (A) (A) (A) (A) (A)
                 (A) (A) (A) (A) (A) (A) (A) (A) (A) (A) (A) (A)
                 (A) (A) (A) (A) (A) (A) (A) (A) (A) (A) (A) (A)
                 (A) (A) (A) (A) (A) (A) (A) (A) (A) (A) (A) (A)
                 (A) (A) (A) (A) (A) (A) (A) (A) (A) (A) (A) (A)
                 (A) (A) (A) (A) (A) (A) (A) (A) (A) (A) (A) (A)
                 (A) (A) (A) (A) (A) (A) (A) (A) (A) (A) (A) (A)
                 (A) (A) (A) (A) (A) (A) (A) (A) (A) (A) (A) (A)
                 (A) (A) (A) (A) (A) (A) (A) (A) (A) (A) (A) (A)
                 (A) (A) (A) (A) (A) (A) (A) (A) (A) (A) (A) (A)
                 (A) (A) (A) (A) (A) (A) (A) (A) (A) (A) (A) (A)
                 (A) (A) (A) (A) (A) (A) (A) (A) (A) (A) (A) (A)
                 (A) (A) (A) (A) (A) (A) (A) (A) (A) (A) (A) (A)
                 (A) (A) (A) (A) (A) (A) (A) (A) (A) (A) (A) (A)
                 (A) (A) (A) (A) (A) (A) (A) (A) (A) (A) (A) (A)
 The electronic state is 1-A.
 Alpha  occ. eigenvalues --  -66.27405 -19.25303 -19.20651 -19.19164 -10.36478
 Alpha  occ. eigenvalues --  -10.31667 -10.30151 -10.25316 -10.24796 -10.24623
 Alpha  occ. eigenvalues --  -10.24522 -10.23439 -10.22878 -10.22752 -10.21617
 Alpha  occ. eigenvalues --  -10.20983 -10.20801 -10.20598  -5.33135  -3.67023
 Alpha  occ. eigenvalues --   -3.66729  -3.66713  -1.12668  -1.04391  -1.03842
 Alpha  occ. eigenvalues --   -0.85821  -0.82987  -0.80413  -0.77518  -0.73825
 Alpha  occ. eigenvalues --   -0.73076  -0.71737  -0.70314  -0.70083  -0.66480
 Alpha  occ. eigenvalues --   -0.63485  -0.62277  -0.58276  -0.55993  -0.53644
 Alpha  occ. eigenvalues --   -0.51395  -0.49623  -0.49072  -0.48302  -0.47646
 Alpha  occ. eigenvalues --   -0.46167  -0.45358  -0.44699  -0.44210  -0.43091
 Alpha  occ. eigenvalues --   -0.42533  -0.42360  -0.42257  -0.41593  -0.41169
 Alpha  occ. eigenvalues --   -0.41048  -0.40285  -0.39949  -0.39631  -0.38810
 Alpha  occ. eigenvalues --   -0.38673  -0.37989  -0.37446  -0.36286  -0.35596
 Alpha  occ. eigenvalues --   -0.35104  -0.34046  -0.33246  -0.32124  -0.30365
 Alpha  occ. eigenvalues --   -0.29992  -0.29058  -0.28808  -0.27020
 Alpha virt. eigenvalues --    0.00155   0.01364   0.03985   0.04996   0.06332
 Alpha virt. eigenvalues --    0.06653   0.07183   0.08024   0.08769   0.09139
 Alpha virt. eigenvalues --    0.09555   0.09715   0.10600   0.11332   0.11814
 Alpha virt. eigenvalues --    0.12184   0.12613   0.13448   0.13569   0.13845
 Alpha virt. eigenvalues --    0.14294   0.14425   0.14698   0.15011   0.15399
 Alpha virt. eigenvalues --    0.16010   0.16493   0.16897   0.17547   0.18036
 Alpha virt. eigenvalues --    0.18337   0.19174   0.19691   0.20170   0.21508
 Alpha virt. eigenvalues --    0.22336   0.22379   0.23599   0.24315   0.24995
 Alpha virt. eigenvalues --    0.25641   0.25971   0.26575   0.26662   0.28792
 Alpha virt. eigenvalues --    0.29178   0.30454   0.31395   0.32018   0.32336
 Alpha virt. eigenvalues --    0.33491   0.33640   0.35199   0.35717   0.36922
 Alpha virt. eigenvalues --    0.37359   0.37955   0.38443   0.39428   0.40265
 Alpha virt. eigenvalues --    0.41131   0.42585   0.42857   0.44306   0.45213
 Alpha virt. eigenvalues --    0.45885   0.46541   0.46872   0.47687   0.49455
 Alpha virt. eigenvalues --    0.50115   0.50879   0.51466   0.51855   0.52538
 Alpha virt. eigenvalues --    0.53360   0.54100   0.54744   0.54991   0.55549
 Alpha virt. eigenvalues --    0.56733   0.57227   0.57863   0.58701   0.59355
 Alpha virt. eigenvalues --    0.59563   0.59624   0.59843   0.60941   0.61341
 Alpha virt. eigenvalues --    0.61592   0.62149   0.62283   0.62822   0.63098
 Alpha virt. eigenvalues --    0.63479   0.64175   0.64904   0.65161   0.66041
 Alpha virt. eigenvalues --    0.66701   0.66743   0.67407   0.67603   0.68438
 Alpha virt. eigenvalues --    0.68719   0.69243   0.69792   0.71106   0.71894
 Alpha virt. eigenvalues --    0.72490   0.73104   0.73821   0.74740   0.75032
 Alpha virt. eigenvalues --    0.75310   0.77128   0.79422   0.81209   0.81970
 Alpha virt. eigenvalues --    0.84676   0.84747   0.85472   0.87028   0.88478
 Alpha virt. eigenvalues --    0.89297   0.89716   0.91883   0.92983   0.93581
 Alpha virt. eigenvalues --    0.95235   0.96197   0.97461   0.98222   1.00877
 Alpha virt. eigenvalues --    1.03130   1.04103   1.05770   1.06581   1.07914
 Alpha virt. eigenvalues --    1.08771   1.12290   1.17242   1.18350   1.20800
 Alpha virt. eigenvalues --    1.21971   1.23240   1.26629   1.27489   1.27965
 Alpha virt. eigenvalues --    1.28856   1.30209   1.31034   1.32072   1.33718
 Alpha virt. eigenvalues --    1.35355   1.38425   1.38718   1.40782   1.42114
 Alpha virt. eigenvalues --    1.43083   1.44032   1.45150   1.46869   1.49289
 Alpha virt. eigenvalues --    1.50024   1.50957   1.52617   1.53357   1.54215
 Alpha virt. eigenvalues --    1.54758   1.55213   1.56548   1.57989   1.58724
 Alpha virt. eigenvalues --    1.59420   1.59573   1.60258   1.60608   1.61311
 Alpha virt. eigenvalues --    1.61584   1.62168   1.62688   1.63423   1.64816
 Alpha virt. eigenvalues --    1.65217   1.66216   1.67283   1.68179   1.68546
 Alpha virt. eigenvalues --    1.69537   1.71197   1.73051   1.73529   1.74275
 Alpha virt. eigenvalues --    1.75628   1.76507   1.77589   1.80859   1.80993
 Alpha virt. eigenvalues --    1.81818   1.82384   1.84534   1.85977   1.86357
 Alpha virt. eigenvalues --    1.89011   1.90515   1.92816   1.94643   1.95903
 Alpha virt. eigenvalues --    1.98173   2.01789   2.06464   2.08902   2.14371
 Alpha virt. eigenvalues --    2.17626   2.18779   2.20142   2.22729   2.24222
 Alpha virt. eigenvalues --    2.27761   2.31778   2.34387   2.35206   2.41142
 Alpha virt. eigenvalues --    2.41556   2.42436   2.42479   2.43232   2.43641
 Alpha virt. eigenvalues --    2.44208   2.44655   2.45927   2.47159   2.48038
 Alpha virt. eigenvalues --    2.48168   2.48441   2.49672   2.51631   2.53007
 Alpha virt. eigenvalues --    2.54729   2.55139   2.56490   2.58151   2.59303
 Alpha virt. eigenvalues --    2.60705   2.64417   2.67188   2.70909   2.80598
 Alpha virt. eigenvalues --    2.83474   2.86578   2.87813   2.89283   2.89951
 Alpha virt. eigenvalues --    2.91414   2.92412   2.94406   2.95089   2.97891
 Alpha virt. eigenvalues --    2.99288   3.00831   3.03094   3.06098   3.06718
 Alpha virt. eigenvalues --    3.09976   3.11919   3.13085   3.14001   3.15820
 Alpha virt. eigenvalues --    3.16264   3.17895   3.19196   3.20851   3.21674
 Alpha virt. eigenvalues --    3.22408   3.22522   3.24002   3.24995   3.25188
 Alpha virt. eigenvalues --    3.25929   3.26639   3.28829   3.29623   3.33636
 Alpha virt. eigenvalues --    3.34263   3.35141   3.36903   3.37726   3.41815
 Alpha virt. eigenvalues --    3.43137   3.51495   3.57034   3.59318   3.61329
 Alpha virt. eigenvalues --    3.78746   3.89227   3.89871   3.97699   4.02246
 Alpha virt. eigenvalues --    4.12758   4.14373   4.16944   4.22155   4.23165
 Alpha virt. eigenvalues --    4.95218   5.02092   5.02692   5.11813   5.18708
 Alpha virt. eigenvalues --    5.24916   5.53436   5.55878   5.76486   5.84925
 Alpha virt. eigenvalues --   11.53149  11.54948  11.56607  23.40734  23.49328
 Alpha virt. eigenvalues --   23.54083  23.54353  23.57297  23.60872  23.72307
 Alpha virt. eigenvalues --   23.73136  23.78310  23.80860  23.84372  23.85854
 Alpha virt. eigenvalues --   23.88676  24.28675  49.98154  50.06295  50.13006
 Alpha virt. eigenvalues --  141.28247
          Condensed to atoms (all electrons):
               1          2          3          4          5          6
     1  C    5.111434   0.348533  -0.058826  -0.008903  -0.044109   0.405048
     2  C    0.348533   5.551966   0.239526  -0.102690  -0.019157  -0.045451
     3  C   -0.058826   0.239526   5.251313   0.220649  -0.017968   0.009511
     4  C   -0.008903  -0.102690   0.220649   5.833704   0.259540  -0.002462
     5  C   -0.044109  -0.019157  -0.017968   0.259540   4.365279   0.002343
     6  H    0.405048  -0.045451   0.009511  -0.002462   0.002343   0.479063
     7  H   -0.053710   0.408755  -0.051789   0.004459  -0.000437  -0.011373
     8  H    0.001165  -0.001208  -0.030465   0.356729  -0.024456   0.000091
     9  H   -0.000819   0.007068  -0.026475   0.364584  -0.028029   0.000056
    10  O    0.214802  -0.034035   0.011207  -0.105655   0.344145  -0.027336
    11  O    0.002855  -0.000028   0.003454  -0.094088   0.669155  -0.000270
    12  C    0.306549  -0.060147  -0.014601   0.003285  -0.004420  -0.055854
    13  C   -0.074819   0.007849  -0.000323   0.000174   0.000090  -0.006338
    14  C   -0.056093   0.286240  -0.068877   0.007899  -0.000045  -0.002608
    15  O    0.002491  -0.069646   0.207519  -0.060201   0.006046  -0.000292
    16  Si   0.000411   0.002931  -0.044996  -0.016186   0.000611  -0.000060
    17  C    0.000032  -0.000235   0.000518  -0.000343   0.000010   0.000000
    18  C   -0.000072   0.000142   0.002549  -0.000259  -0.000005  -0.000001
    19  C   -0.000022  -0.000301  -0.000062   0.000159   0.000186  -0.000001
    20  H   -0.000002   0.000000  -0.000059   0.000002  -0.000001   0.000000
    21  H   -0.000030   0.000099  -0.000075  -0.000030  -0.000001   0.000003
    22  H   -0.000044   0.000017   0.000023   0.000082   0.000063   0.000002
    23  H    0.000000   0.000007  -0.000045   0.000270  -0.000030   0.000000
    24  H   -0.000016  -0.000062  -0.000168  -0.001119   0.000793   0.000000
    25  H   -0.000001  -0.000054   0.000448   0.000283   0.000002   0.000000
    26  H    0.000002  -0.000017   0.000299  -0.000065   0.000002   0.000000
    27  H    0.000008   0.000032   0.000504  -0.000043   0.000002   0.000000
    28  H   -0.000001   0.000009  -0.000077   0.000005   0.000000   0.000000
    29  H   -0.001799  -0.044997   0.007356  -0.000412   0.000040   0.004263
    30  H   -0.006485  -0.039429  -0.005631   0.000597  -0.000037  -0.000544
    31  H    0.005665  -0.029090  -0.006417  -0.000276  -0.000051  -0.000333
    32  H   -0.036218  -0.008938   0.001243  -0.000275   0.000208  -0.000051
    33  H   -0.035975  -0.006126   0.004100  -0.002183   0.001698   0.006869
    34  H    0.007742  -0.000221  -0.000005   0.000008  -0.000029  -0.000169
    35  H   -0.003549  -0.000144   0.000034  -0.000020  -0.000058   0.005797
    36  H   -0.011456   0.000229  -0.000040   0.000508   0.001507  -0.000295
    37  C    0.007901  -0.082307   0.344334  -0.083501   0.003445  -0.000126
    38  C   -0.000010  -0.005424  -0.061861  -0.005082  -0.000153  -0.000037
    39  C   -0.000019  -0.000239  -0.003188  -0.001629   0.000018  -0.000001
    40  H   -0.000155   0.007218  -0.032855  -0.008740   0.000187   0.000014
    41  H   -0.000210  -0.011092  -0.046194   0.007205  -0.000135  -0.000016
    42  H    0.000352   0.001881  -0.003689   0.000321   0.000018   0.000023
    43  H   -0.000003   0.000029  -0.000212   0.000027  -0.000001   0.000000
    44  H    0.000001   0.000070  -0.000381   0.000383   0.000000   0.000000
               7          8          9         10         11         12
     1  C   -0.053710   0.001165  -0.000819   0.214802   0.002855   0.306549
     2  C    0.408755  -0.001208   0.007068  -0.034035  -0.000028  -0.060147
     3  C   -0.051789  -0.030465  -0.026475   0.011207   0.003454  -0.014601
     4  C    0.004459   0.356729   0.364584  -0.105655  -0.094088   0.003285
     5  C   -0.000437  -0.024456  -0.028029   0.344145   0.669155  -0.004420
     6  H   -0.011373   0.000091   0.000056  -0.027336  -0.000270  -0.055854
     7  H    0.477089   0.000758   0.000359   0.002500  -0.000055   0.009090
     8  H    0.000758   0.420402  -0.015147   0.000684   0.000120  -0.000064
     9  H    0.000359  -0.015147   0.418832   0.004587   0.010260   0.000149
    10  O    0.002500   0.000684   0.004587   8.043501  -0.077698  -0.056887
    11  O   -0.000055   0.000120   0.010260  -0.077698   7.876050  -0.000120
    12  C    0.009090  -0.000064   0.000149  -0.056887  -0.000120   5.380291
    13  C   -0.000266  -0.000007   0.000000  -0.004742  -0.000009   0.307942
    14  C   -0.035467  -0.000189  -0.000100   0.003191   0.000004  -0.003651
    15  O    0.004282   0.004138  -0.003402  -0.001442  -0.000005  -0.002339
    16  Si  -0.000050   0.002374  -0.003784  -0.000531   0.000393  -0.001838
    17  C    0.000001   0.000021  -0.000144   0.000000   0.000000  -0.000031
    18  C    0.000004  -0.000003  -0.000035  -0.000002  -0.000003   0.000724
    19  C    0.000011  -0.000117  -0.002526   0.000003  -0.000285   0.000013
    20  H    0.000000   0.000000   0.000003   0.000000   0.000000   0.000015
    21  H   -0.000001   0.000001  -0.000005  -0.000001   0.000000   0.000517
    22  H    0.000000  -0.000003  -0.000005  -0.000002   0.000003   0.000405
    23  H    0.000000  -0.000007   0.000418   0.000000  -0.000005   0.000000
    24  H    0.000005  -0.000001   0.001327   0.000005   0.001434   0.000007
    25  H    0.000003  -0.000143  -0.000012  -0.000002  -0.000068   0.000000
    26  H    0.000001   0.000011  -0.000025   0.000000   0.000000  -0.000001
    27  H    0.000001   0.000004  -0.000008   0.000000   0.000000  -0.000011
    28  H    0.000000   0.000000   0.000005   0.000000   0.000000   0.000001
    29  H   -0.003343  -0.000005   0.000015   0.000075   0.000000  -0.003756
    30  H    0.006404  -0.000034   0.000000  -0.000061   0.000000   0.002351
    31  H   -0.007143  -0.000037  -0.000012  -0.000101   0.000000   0.000552
    32  H   -0.000454   0.000008  -0.000020   0.003977  -0.000002   0.384347
    33  H   -0.000408   0.000038   0.000075   0.001918  -0.000353   0.378202
    34  H    0.000020   0.000000   0.000000  -0.000092  -0.000001  -0.037603
    35  H   -0.000048   0.000001   0.000000  -0.000302  -0.000007  -0.040360
    36  H   -0.000040  -0.000003  -0.000027   0.011658   0.000537  -0.037354
    37  C   -0.009980  -0.008489  -0.007043  -0.000343  -0.000195  -0.000531
    38  C    0.006794   0.006411   0.000405  -0.000038   0.000005  -0.000006
    39  C    0.000939   0.003812   0.000416   0.000001   0.000001   0.000000
    40  H   -0.000316  -0.000684   0.001383  -0.000004  -0.000032  -0.000011
    41  H    0.000841   0.000396   0.000119   0.000007   0.000003   0.000024
    42  H   -0.001072  -0.000274  -0.000019  -0.000013   0.000001  -0.000013
    43  H   -0.000003   0.000084   0.000011   0.000000   0.000000   0.000000
    44  H   -0.000006  -0.000109   0.000090   0.000000   0.000000   0.000000
              13         14         15         16         17         18
     1  C   -0.074819  -0.056093   0.002491   0.000411   0.000032  -0.000072
     2  C    0.007849   0.286240  -0.069646   0.002931  -0.000235   0.000142
     3  C   -0.000323  -0.068877   0.207519  -0.044996   0.000518   0.002549
     4  C    0.000174   0.007899  -0.060201  -0.016186  -0.000343  -0.000259
     5  C    0.000090  -0.000045   0.006046   0.000611   0.000010  -0.000005
     6  H   -0.006338  -0.002608  -0.000292  -0.000060   0.000000  -0.000001
     7  H   -0.000266  -0.035467   0.004282  -0.000050   0.000001   0.000004
     8  H   -0.000007  -0.000189   0.004138   0.002374   0.000021  -0.000003
     9  H    0.000000  -0.000100  -0.003402  -0.003784  -0.000144  -0.000035
    10  O   -0.004742   0.003191  -0.001442  -0.000531   0.000000  -0.000002
    11  O   -0.000009   0.000004  -0.000005   0.000393   0.000000  -0.000003
    12  C    0.307942  -0.003651  -0.002339  -0.001838  -0.000031   0.000724
    13  C    5.357904  -0.000510   0.000416   0.000491   0.000000   0.000008
    14  C   -0.000510   5.411766  -0.000298   0.000582   0.000023  -0.000019
    15  O    0.000416  -0.000298   8.306749   0.347694  -0.024216  -0.030561
    16  Si   0.000491   0.000582   0.347694  11.495983   0.316961   0.336878
    17  C    0.000000   0.000023  -0.024216   0.316961   5.767687  -0.047863
    18  C    0.000008  -0.000019  -0.030561   0.336878  -0.047863   5.729522
    19  C    0.000001   0.000007  -0.023117   0.312418  -0.054285  -0.043695
    20  H   -0.000001   0.000000   0.001141  -0.014164   0.000682   0.361924
    21  H   -0.000014  -0.000003  -0.001912  -0.022462  -0.000612   0.368912
    22  H    0.000037   0.000003  -0.001877  -0.022979   0.002134   0.369375
    23  H    0.000000   0.000000   0.000811  -0.010568   0.000174  -0.000462
    24  H    0.000001   0.000003  -0.001902  -0.024844   0.002100  -0.000399
    25  H    0.000000   0.000002  -0.001210  -0.028833  -0.001040   0.002473
    26  H    0.000000  -0.000002  -0.001524  -0.027454   0.372505   0.002328
    27  H    0.000000   0.000089  -0.002270  -0.025215   0.370728  -0.000623
    28  H    0.000000   0.000000   0.000949  -0.011787   0.362477  -0.000230
    29  H   -0.000245   0.393838  -0.000062   0.000028  -0.000003   0.000000
    30  H    0.000263   0.386331   0.006245   0.001052   0.000223   0.000002
    31  H    0.000009   0.383174  -0.000100  -0.000246   0.000035   0.000000
    32  H   -0.039983   0.001827  -0.000359  -0.000205   0.000002   0.000106
    33  H   -0.042333  -0.000170   0.006266  -0.001480   0.000005  -0.002473
    34  H    0.392731   0.000005  -0.000010  -0.000019   0.000000   0.000033
    35  H    0.382493   0.000007  -0.000020  -0.000032   0.000000   0.000000
    36  H    0.384444  -0.000070   0.000000   0.000041   0.000000   0.000008
    37  C    0.000012  -0.005681  -0.038574  -0.004994  -0.001563  -0.000044
    38  C    0.000000  -0.001980   0.004486   0.002077   0.000097   0.000003
    39  C    0.000000   0.000141  -0.000061  -0.000295   0.000002   0.000000
    40  H    0.000000   0.000059  -0.002345   0.005983  -0.000457   0.000044
    41  H    0.000000   0.001906  -0.000365  -0.001968  -0.001854  -0.000076
    42  H    0.000000   0.000453  -0.000065  -0.000040  -0.000010   0.000000
    43  H    0.000000   0.000008   0.000004   0.000023   0.000000   0.000000
    44  H    0.000000  -0.000012  -0.000020  -0.000137  -0.000007   0.000000
              19         20         21         22         23         24
     1  C   -0.000022  -0.000002  -0.000030  -0.000044   0.000000  -0.000016
     2  C   -0.000301   0.000000   0.000099   0.000017   0.000007  -0.000062
     3  C   -0.000062  -0.000059  -0.000075   0.000023  -0.000045  -0.000168
     4  C    0.000159   0.000002  -0.000030   0.000082   0.000270  -0.001119
     5  C    0.000186  -0.000001  -0.000001   0.000063  -0.000030   0.000793
     6  H   -0.000001   0.000000   0.000003   0.000002   0.000000   0.000000
     7  H    0.000011   0.000000  -0.000001   0.000000   0.000000   0.000005
     8  H   -0.000117   0.000000   0.000001  -0.000003  -0.000007  -0.000001
     9  H   -0.002526   0.000003  -0.000005  -0.000005   0.000418   0.001327
    10  O    0.000003   0.000000  -0.000001  -0.000002   0.000000   0.000005
    11  O   -0.000285   0.000000   0.000000   0.000003  -0.000005   0.001434
    12  C    0.000013   0.000015   0.000517   0.000405   0.000000   0.000007
    13  C    0.000001  -0.000001  -0.000014   0.000037   0.000000   0.000001
    14  C    0.000007   0.000000  -0.000003   0.000003   0.000000   0.000003
    15  O   -0.023117   0.001141  -0.001912  -0.001877   0.000811  -0.001902
    16  Si   0.312418  -0.014164  -0.022462  -0.022979  -0.010568  -0.024844
    17  C   -0.054285   0.000682  -0.000612   0.002134   0.000174   0.002100
    18  C   -0.043695   0.361924   0.368912   0.369375  -0.000462  -0.000399
    19  C    5.793102  -0.000024   0.002169  -0.000655   0.363596   0.368173
    20  H   -0.000024   0.457267  -0.021400  -0.021622   0.000340  -0.000036
    21  H    0.002169  -0.021400   0.453546  -0.019752  -0.000057  -0.000066
    22  H   -0.000655  -0.021622  -0.019752   0.449351  -0.000033   0.001201
    23  H    0.363596   0.000340  -0.000057  -0.000033   0.443747  -0.021066
    24  H    0.368173  -0.000036  -0.000066   0.001201  -0.021066   0.443195
    25  H    0.368976  -0.000103  -0.000084  -0.000061  -0.020741  -0.020285
    26  H   -0.001218  -0.000082  -0.000078  -0.000091   0.000024  -0.000023
    27  H    0.002048   0.000043   0.001127  -0.000069  -0.000059  -0.000086
    28  H    0.000550   0.000495  -0.000061  -0.000028   0.000500  -0.000041
    29  H    0.000000   0.000000   0.000002   0.000001   0.000000   0.000000
    30  H    0.000021  -0.000003   0.000050  -0.000006   0.000000   0.000001
    31  H    0.000001   0.000000  -0.000002   0.000000   0.000000   0.000000
    32  H    0.000001  -0.000008   0.000100  -0.000004   0.000000  -0.000002
    33  H   -0.000111   0.000370  -0.000381   0.000195   0.000003  -0.000005
    34  H    0.000000  -0.000002   0.000034   0.000037   0.000000   0.000000
    35  H    0.000000   0.000000   0.000000  -0.000001   0.000000   0.000000
    36  H    0.000000  -0.000001  -0.000001   0.000024   0.000000  -0.000002
    37  C   -0.002086   0.000003  -0.000032  -0.000006   0.000039   0.000145
    38  C    0.000038   0.000000   0.000000   0.000001   0.000000   0.000001
    39  C   -0.000016   0.000000   0.000000   0.000000   0.000000  -0.000001
    40  H    0.002155   0.000004   0.000006   0.000004   0.000007  -0.000332
    41  H    0.000133   0.000002  -0.000016  -0.000003  -0.000003   0.000008
    42  H   -0.000002   0.000000   0.000000   0.000000   0.000000   0.000000
    43  H    0.000000   0.000000   0.000000   0.000000   0.000000   0.000000
    44  H   -0.000012   0.000000   0.000000   0.000000   0.000000   0.000002
              25         26         27         28         29         30
     1  C   -0.000001   0.000002   0.000008  -0.000001  -0.001799  -0.006485
     2  C   -0.000054  -0.000017   0.000032   0.000009  -0.044997  -0.039429
     3  C    0.000448   0.000299   0.000504  -0.000077   0.007356  -0.005631
     4  C    0.000283  -0.000065  -0.000043   0.000005  -0.000412   0.000597
     5  C    0.000002   0.000002   0.000002   0.000000   0.000040  -0.000037
     6  H    0.000000   0.000000   0.000000   0.000000   0.004263  -0.000544
     7  H    0.000003   0.000001   0.000001   0.000000  -0.003343   0.006404
     8  H   -0.000143   0.000011   0.000004   0.000000  -0.000005  -0.000034
     9  H   -0.000012  -0.000025  -0.000008   0.000005   0.000015   0.000000
    10  O   -0.000002   0.000000   0.000000   0.000000   0.000075  -0.000061
    11  O   -0.000068   0.000000   0.000000   0.000000   0.000000   0.000000
    12  C    0.000000  -0.000001  -0.000011   0.000001  -0.003756   0.002351
    13  C    0.000000   0.000000   0.000000   0.000000  -0.000245   0.000263
    14  C    0.000002  -0.000002   0.000089   0.000000   0.393838   0.386331
    15  O   -0.001210  -0.001524  -0.002270   0.000949  -0.000062   0.006245
    16  Si  -0.028833  -0.027454  -0.025215  -0.011787   0.000028   0.001052
    17  C   -0.001040   0.372505   0.370728   0.362477  -0.000003   0.000223
    18  C    0.002473   0.002328  -0.000623  -0.000230   0.000000   0.000002
    19  C    0.368976  -0.001218   0.002048   0.000550   0.000000   0.000021
    20  H   -0.000103  -0.000082   0.000043   0.000495   0.000000  -0.000003
    21  H   -0.000084  -0.000078   0.001127  -0.000061   0.000002   0.000050
    22  H   -0.000061  -0.000091  -0.000069  -0.000028   0.000001  -0.000006
    23  H   -0.020741   0.000024  -0.000059   0.000500   0.000000   0.000000
    24  H   -0.020285  -0.000023  -0.000086  -0.000041   0.000000   0.000001
    25  H    0.449380   0.000775  -0.000038   0.000044   0.000000   0.000002
    26  H    0.000775   0.452606  -0.019800  -0.022801  -0.000001  -0.000013
    27  H   -0.000038  -0.019800   0.452137  -0.021659  -0.000004   0.000374
    28  H    0.000044  -0.022801  -0.021659   0.454536   0.000000  -0.000005
    29  H    0.000000  -0.000001  -0.000004   0.000000   0.457754  -0.025495
    30  H    0.000002  -0.000013   0.000374  -0.000005  -0.025495   0.446275
    31  H    0.000000   0.000002   0.000021  -0.000002  -0.025212  -0.025357
    32  H    0.000000   0.000000   0.000000   0.000000   0.000322  -0.001927
    33  H   -0.000007  -0.000002   0.000005   0.000000   0.000267  -0.000074
    34  H    0.000000   0.000000   0.000000   0.000000   0.000005   0.000011
    35  H    0.000000   0.000000   0.000000   0.000000   0.000068   0.000001
    36  H    0.000000   0.000000   0.000000   0.000000  -0.000023  -0.000017
    37  C    0.000219   0.000421  -0.000174   0.000169  -0.000070  -0.001538
    38  C    0.000057   0.000064  -0.000057  -0.000001  -0.000018   0.000332
    39  C    0.000015   0.000026   0.000002   0.000000  -0.000001  -0.000004
    40  H    0.003959   0.001180  -0.000024  -0.000012   0.000010  -0.000127
    41  H   -0.000011  -0.000339   0.000019   0.000258   0.000161   0.000471
    42  H    0.000002  -0.000004  -0.000001   0.000000   0.000033  -0.000080
    43  H   -0.000002  -0.000001   0.000000   0.000000   0.000000   0.000000
    44  H    0.000067  -0.000004   0.000000   0.000000   0.000000   0.000000
              31         32         33         34         35         36
     1  C    0.005665  -0.036218  -0.035975   0.007742  -0.003549  -0.011456
     2  C   -0.029090  -0.008938  -0.006126  -0.000221  -0.000144   0.000229
     3  C   -0.006417   0.001243   0.004100  -0.000005   0.000034  -0.000040
     4  C   -0.000276  -0.000275  -0.002183   0.000008  -0.000020   0.000508
     5  C   -0.000051   0.000208   0.001698  -0.000029  -0.000058   0.001507
     6  H   -0.000333  -0.000051   0.006869  -0.000169   0.005797  -0.000295
     7  H   -0.007143  -0.000454  -0.000408   0.000020  -0.000048  -0.000040
     8  H   -0.000037   0.000008   0.000038   0.000000   0.000001  -0.000003
     9  H   -0.000012  -0.000020   0.000075   0.000000   0.000000  -0.000027
    10  O   -0.000101   0.003977   0.001918  -0.000092  -0.000302   0.011658
    11  O    0.000000  -0.000002  -0.000353  -0.000001  -0.000007   0.000537
    12  C    0.000552   0.384347   0.378202  -0.037603  -0.040360  -0.037354
    13  C    0.000009  -0.039983  -0.042333   0.392731   0.382493   0.384444
    14  C    0.383174   0.001827  -0.000170   0.000005   0.000007  -0.000070
    15  O   -0.000100  -0.000359   0.006266  -0.000010  -0.000020   0.000000
    16  Si  -0.000246  -0.000205  -0.001480  -0.000019  -0.000032   0.000041
    17  C    0.000035   0.000002   0.000005   0.000000   0.000000   0.000000
    18  C    0.000000   0.000106  -0.002473   0.000033   0.000000   0.000008
    19  C    0.000001   0.000001  -0.000111   0.000000   0.000000   0.000000
    20  H    0.000000  -0.000008   0.000370  -0.000002   0.000000  -0.000001
    21  H   -0.000002   0.000100  -0.000381   0.000034   0.000000  -0.000001
    22  H    0.000000  -0.000004   0.000195   0.000037  -0.000001   0.000024
    23  H    0.000000   0.000000   0.000003   0.000000   0.000000   0.000000
    24  H    0.000000  -0.000002  -0.000005   0.000000   0.000000  -0.000002
    25  H    0.000000   0.000000  -0.000007   0.000000   0.000000   0.000000
    26  H    0.000002   0.000000  -0.000002   0.000000   0.000000   0.000000
    27  H    0.000021   0.000000   0.000005   0.000000   0.000000   0.000000
    28  H   -0.000002   0.000000   0.000000   0.000000   0.000000   0.000000
    29  H   -0.025212   0.000322   0.000267   0.000005   0.000068  -0.000023
    30  H   -0.025357  -0.001927  -0.000074   0.000011   0.000001  -0.000017
    31  H    0.456011   0.000678  -0.000135  -0.000001  -0.000006   0.000006
    32  H    0.000678   0.490134  -0.023992  -0.004377  -0.004867   0.007180
    33  H   -0.000135  -0.023992   0.441983  -0.004878   0.007032  -0.004858
    34  H   -0.000001  -0.004377  -0.004878   0.475010  -0.028197  -0.025370
    35  H   -0.000006  -0.004867   0.007032  -0.028197   0.493789  -0.028781
    36  H    0.000006   0.007180  -0.004858  -0.025370  -0.028781   0.464502
    37  C    0.002550   0.000043   0.000097  -0.000001   0.000000   0.000004
    38  C   -0.000018  -0.000005  -0.000015   0.000000   0.000000   0.000000
    39  C    0.000153   0.000000   0.000000   0.000000   0.000000   0.000000
    40  H    0.000305   0.000005  -0.000006   0.000000   0.000000   0.000000
    41  H   -0.000883  -0.000020   0.000010   0.000000   0.000000   0.000000
    42  H    0.003652   0.000004   0.000001   0.000000   0.000000   0.000000
    43  H   -0.000016   0.000000   0.000000   0.000000   0.000000   0.000000
    44  H    0.000006   0.000000   0.000000   0.000000   0.000000   0.000000
              37         38         39         40         41         42
     1  C    0.007901  -0.000010  -0.000019  -0.000155  -0.000210   0.000352
     2  C   -0.082307  -0.005424  -0.000239   0.007218  -0.011092   0.001881
     3  C    0.344334  -0.061861  -0.003188  -0.032855  -0.046194  -0.003689
     4  C   -0.083501  -0.005082  -0.001629  -0.008740   0.007205   0.000321
     5  C    0.003445  -0.000153   0.000018   0.000187  -0.000135   0.000018
     6  H   -0.000126  -0.000037  -0.000001   0.000014  -0.000016   0.000023
     7  H   -0.009980   0.006794   0.000939  -0.000316   0.000841  -0.001072
     8  H   -0.008489   0.006411   0.003812  -0.000684   0.000396  -0.000274
     9  H   -0.007043   0.000405   0.000416   0.001383   0.000119  -0.000019
    10  O   -0.000343  -0.000038   0.000001  -0.000004   0.000007  -0.000013
    11  O   -0.000195   0.000005   0.000001  -0.000032   0.000003   0.000001
    12  C   -0.000531  -0.000006   0.000000  -0.000011   0.000024  -0.000013
    13  C    0.000012   0.000000   0.000000   0.000000   0.000000   0.000000
    14  C   -0.005681  -0.001980   0.000141   0.000059   0.001906   0.000453
    15  O   -0.038574   0.004486  -0.000061  -0.002345  -0.000365  -0.000065
    16  Si  -0.004994   0.002077  -0.000295   0.005983  -0.001968  -0.000040
    17  C   -0.001563   0.000097   0.000002  -0.000457  -0.001854  -0.000010
    18  C   -0.000044   0.000003   0.000000   0.000044  -0.000076   0.000000
    19  C   -0.002086   0.000038  -0.000016   0.002155   0.000133  -0.000002
    20  H    0.000003   0.000000   0.000000   0.000004   0.000002   0.000000
    21  H   -0.000032   0.000000   0.000000   0.000006  -0.000016   0.000000
    22  H   -0.000006   0.000001   0.000000   0.000004  -0.000003   0.000000
    23  H    0.000039   0.000000   0.000000   0.000007  -0.000003   0.000000
    24  H    0.000145   0.000001  -0.000001  -0.000332   0.000008   0.000000
    25  H    0.000219   0.000057   0.000015   0.003959  -0.000011   0.000002
    26  H    0.000421   0.000064   0.000026   0.001180  -0.000339  -0.000004
    27  H   -0.000174  -0.000057   0.000002  -0.000024   0.000019  -0.000001
    28  H    0.000169  -0.000001   0.000000  -0.000012   0.000258   0.000000
    29  H   -0.000070  -0.000018  -0.000001   0.000010   0.000161   0.000033
    30  H   -0.001538   0.000332  -0.000004  -0.000127   0.000471  -0.000080
    31  H    0.002550  -0.000018   0.000153   0.000305  -0.000883   0.003652
    32  H    0.000043  -0.000005   0.000000   0.000005  -0.000020   0.000004
    33  H    0.000097  -0.000015   0.000000  -0.000006   0.000010   0.000001
    34  H   -0.000001   0.000000   0.000000   0.000000   0.000000   0.000000
    35  H    0.000000   0.000000   0.000000   0.000000   0.000000   0.000000
    36  H    0.000004   0.000000   0.000000   0.000000   0.000000   0.000000
    37  C    5.452458   0.306652  -0.051086   0.392634   0.402226  -0.048798
    38  C    0.306652   5.074015   0.629118  -0.047512  -0.036848   0.396302
    39  C   -0.051086   0.629118   5.125305   0.000144   0.001186  -0.037647
    40  H    0.392634  -0.047512   0.000144   0.447232  -0.026868   0.005061
    41  H    0.402226  -0.036848   0.001186  -0.026868   0.437965  -0.003681
    42  H   -0.048798   0.396302  -0.037647   0.005061  -0.003681   0.467547
    43  H    0.005723  -0.036270   0.390434   0.000096  -0.000295  -0.007967
    44  H   -0.008037  -0.042352   0.389340   0.005053   0.000071   0.006040
              43         44
     1  C   -0.000003   0.000001
     2  C    0.000029   0.000070
     3  C   -0.000212  -0.000381
     4  C    0.000027   0.000383
     5  C   -0.000001   0.000000
     6  H    0.000000   0.000000
     7  H   -0.000003  -0.000006
     8  H    0.000084  -0.000109
     9  H    0.000011   0.000090
    10  O    0.000000   0.000000
    11  O    0.000000   0.000000
    12  C    0.000000   0.000000
    13  C    0.000000   0.000000
    14  C    0.000008  -0.000012
    15  O    0.000004  -0.000020
    16  Si   0.000023  -0.000137
    17  C    0.000000  -0.000007
    18  C    0.000000   0.000000
    19  C    0.000000  -0.000012
    20  H    0.000000   0.000000
    21  H    0.000000   0.000000
    22  H    0.000000   0.000000
    23  H    0.000000   0.000000
    24  H    0.000000   0.000002
    25  H   -0.000002   0.000067
    26  H   -0.000001  -0.000004
    27  H    0.000000   0.000000
    28  H    0.000000   0.000000
    29  H    0.000000   0.000000
    30  H    0.000000   0.000000
    31  H   -0.000016   0.000006
    32  H    0.000000   0.000000
    33  H    0.000000   0.000000
    34  H    0.000000   0.000000
    35  H    0.000000   0.000000
    36  H    0.000000   0.000000
    37  C    0.005723  -0.008037
    38  C   -0.036270  -0.042352
    39  C    0.390434   0.389340
    40  H    0.000096   0.005053
    41  H   -0.000295   0.000071
    42  H   -0.007967   0.006040
    43  H    0.450164  -0.032930
    44  H   -0.032930   0.458215
 Mulliken charges:
               1
     1  C   -0.021650
     2  C   -0.301566
     3  C    0.170694
     4  C   -0.566709
     5  C    0.483735
     6  H    0.240535
     7  H    0.253645
     8  H    0.284199
     9  H    0.277475
    10  O   -0.332973
    11  O   -0.391048
    12  C   -0.454863
    13  C   -0.665272
    14  C   -0.701781
    15  O   -0.631043
    16  Si   1.438236
    17  C   -1.063754
    18  C   -1.048206
    19  C   -1.085225
    20  H    0.235217
    21  H    0.240509
    22  H    0.244288
    23  H    0.243141
    24  H    0.252055
    25  H    0.245987
    26  H    0.243300
    27  H    0.242995
    28  H    0.236705
    29  H    0.241209
    30  H    0.255861
    31  H    0.242620
    32  H    0.231522
    33  H    0.276833
    34  H    0.225339
    35  H    0.217170
    36  H    0.237689
    37  C   -0.563877
    38  C   -0.189171
    39  C   -0.446866
    40  H    0.247734
    41  H    0.277867
    42  H    0.221683
    43  H    0.231095
    44  H    0.224667
 Sum of Mulliken charges =   0.00000
 Mulliken charges with hydrogens summed into heavy atoms:
               1
     1  C    0.218885
     2  C   -0.047921
     3  C    0.170694
     4  C   -0.005035
     5  C    0.483735
    10  O   -0.332973
    11  O   -0.391048
    12  C    0.053491
    13  C    0.014927
    14  C    0.037909
    15  O   -0.631043
    16  Si   1.438236
    17  C   -0.340754
    18  C   -0.328193
    19  C   -0.344042
    37  C   -0.038275
    38  C    0.032512
    39  C    0.008896
 Electronic spatial extent (au):  <R**2>=           5102.2569
 Charge=              0.0000 electrons
 Dipole moment (field-independent basis, Debye):
    X=             -3.3290    Y=              1.3350    Z=             -4.7895  Tot=              5.9836
 Quadrupole moment (field-independent basis, Debye-Ang):
   XX=           -121.4574   YY=           -110.8685   ZZ=           -131.2903
   XY=              2.2909   XZ=            -14.0205   YZ=             -1.1092
 Traceless Quadrupole moment (field-independent basis, Debye-Ang):
   XX=             -0.2520   YY=             10.3369   ZZ=            -10.0849
   XY=              2.2909   XZ=            -14.0205   YZ=             -1.1092
 Octapole moment (field-independent basis, Debye-Ang**2):
  XXX=             -2.2782  YYY=             18.3068  ZZZ=            -44.9390  XYY=             -3.1813
  XXY=             -5.2851  XXZ=            -14.2877  XZZ=            -18.3956  YZZ=              0.4808
  YYZ=              6.5798  XYZ=             -7.0119
 Hexadecapole moment (field-independent basis, Debye-Ang**3):
 XXXX=          -3084.3390 YYYY=          -2450.2222 ZZZZ=          -1522.8932 XXXY=             50.6798
 XXXZ=            -73.1268 YYYX=             20.1877 YYYZ=              7.4423 ZZZX=            -65.9029
 ZZZY=             -2.4362 XXYY=           -905.2496 XXZZ=           -785.0331 YYZZ=           -642.8110
 XXYZ=              5.3627 YYXZ=            -18.8684 ZZXY=             -5.4989
 N-N= 1.646942103309D+03 E-N=-5.789308534146D+03  KE= 1.060533607822D+03
 1\1\GINC-CPU-E-1146\SP\RmPW1PW91\6-311G(d)\C14H26O3Si1\KE291\06-Feb-20
 19\0\\# mPW1PW91/6-311g(d) geom=checkpoint nmr=giao scrf=(solvent=chlo
 roform)\\P_ng_4ginp009\\0,1\C,0,0.5940489496,1.9218337586,-0.062557813
 6\C,0,-0.612208695,1.0026488386,0.2381458475\C,0,-1.6086925991,1.63944
 46336,1.2380703881\C,0,-2.0371184265,2.9920336432,0.6511346973\C,0,-0.
 9108634083,3.8820759135,0.1721783717\H,0,1.0093278807,1.5942735916,-1.
 0233974525\H,0,-1.1602864348,0.9238546723,-0.7096838161\H,0,-2.6801608
 179,2.8128935141,-0.2197411337\H,0,-2.629478497,3.5671220084,1.3642888
 142\O,0,0.2016296413,3.3057394265,-0.3264773815\O,0,-1.0091315377,5.09
 20884482,0.1340377835\C,0,1.7422208008,1.9566156169,0.9540859999\C,0,2
 .9486468015,2.7593688875,0.4560297666\C,0,-0.1491250352,-0.4080872528,
 0.6270060978\O,0,-0.9166899502,1.8436467757,2.4699814708\Si,0,-1.34782
 01045,2.227427206,4.0533032718\C,0,-1.9994832346,0.7095540457,4.966888
 1223\C,0,0.2703106346,2.7856397524,4.8331834085\C,0,-2.6177448745,3.62
 14636371,4.1488521959\H,0,0.1293627707,3.0199137034,5.8943116513\H,0,1
 .0354923658,2.0056088484,4.7621395222\H,0,0.6585990638,3.6831309436,4.
 3406800953\H,0,-2.7826370818,3.8878779317,5.1997136934\H,0,-2.26941625
 4,4.5218133235,3.6320504397\H,0,-3.5903960335,3.3428900073,3.729802419
 6\H,0,-2.9654985145,0.3682041267,4.5822469319\H,0,-1.2948258123,-0.126
 1935534,4.8985755448\H,0,-2.1317570034,0.9445013814,6.0296138003\H,0,0
 .6395868305,-0.7586617176,-0.046587669\H,0,0.2377102004,-0.4318865381,
 1.64833946\H,0,-0.9716086476,-1.125082876,0.5605314553\H,0,2.051484889
 5,0.9253573359,1.1546729202\H,0,1.3711399692,2.3633128573,1.8970486221
 \H,0,3.7510692409,2.7512780108,1.2002124409\H,0,3.3519380837,2.3387473
 726,-0.4727023844\H,0,2.6768312381,3.800002823,0.2614724463\C,0,-2.860
 4389023,0.7482744073,1.4816950145\C,0,-3.6129535433,0.31573653,0.25167
 47588\C,0,-4.8413571797,0.725566004,-0.0713264426\H,0,-3.5402880584,1.
 3041018813,2.1379735516\H,0,-2.5282703669,-0.134202426,2.0401978434\H,
 0,-3.1105372552,-0.3948666201,-0.4040069162\H,0,-5.3430809663,0.371740
 7961,-0.9670496224\H,0,-5.3925131265,1.4252403301,0.5528427844\\Versio
 n=ES64L-G09RevD.01\State=1-A\HF=-1064.3832089\RMSD=7.924e-09\Dipole=-0
 .6066486,-2.1882829,0.6207955\Quadrupole=5.1406156,-9.6304293,4.489813
 7,-2.9874169,0.9768862,9.5054102\PG=C01 [X(C14H26O3Si1)]\\@


 LOGIC IS A SYSTEMATIC METHOD OF COMING TO THE
 WRONG CONCLUSION WITH CONFIDENCE.
 Job cpu time:       0 days  0 hours 19 minutes 22.9 seconds.
 File lengths (MBytes):  RWF=    237 Int=      0 D2E=      0 Chk=     18 Scr=      1
 Normal termination of Gaussian 09 at Wed Feb  6 11:19:23 2019.
