 Entering Gaussian System, Link 0=/usr/local/Cluster-Apps/gaussian/g09/g09
 Initial command:
 /usr/local/Cluster-Apps/gaussian/g09/l1.exe "/home/ke291/rds/hpc-work/06Feb0927IP1/Gau-386642.inp" -scrdir="/home/ke291/rds/hpc-work/06Feb0927IP1/"
 Entering Link 1 = /usr/local/Cluster-Apps/gaussian/g09/l1.exe PID=    386647.
  
 Copyright (c) 1988,1990,1992,1993,1995,1998,2003,2009,2013,
            Gaussian, Inc.  All Rights Reserved.
  
 This is part of the Gaussian(R) 09 program.  It is based on
 the Gaussian(R) 03 system (copyright 2003, Gaussian, Inc.),
 the Gaussian(R) 98 system (copyright 1998, Gaussian, Inc.),
 the Gaussian(R) 94 system (copyright 1995, Gaussian, Inc.),
 the Gaussian 92(TM) system (copyright 1992, Gaussian, Inc.),
 the Gaussian 90(TM) system (copyright 1990, Gaussian, Inc.),
 the Gaussian 88(TM) system (copyright 1988, Gaussian, Inc.),
 the Gaussian 86(TM) system (copyright 1986, Carnegie Mellon
 University), and the Gaussian 82(TM) system (copyright 1983,
 Carnegie Mellon University). Gaussian is a federally registered
 trademark of Gaussian, Inc.
  
 This software contains proprietary and confidential information,
 including trade secrets, belonging to Gaussian, Inc.
  
 This software is provided under written license and may be
 used, copied, transmitted, or stored only in accord with that
 written license.
  
 The following legend is applicable only to US Government
 contracts under FAR:
  
                    RESTRICTED RIGHTS LEGEND
  
 Use, reproduction and disclosure by the US Government is
 subject to restrictions as set forth in subparagraphs (a)
 and (c) of the Commercial Computer Software - Restricted
 Rights clause in FAR 52.227-19.
  
 Gaussian, Inc.
 340 Quinnipiac St., Bldg. 40, Wallingford CT 06492
  
  
 ---------------------------------------------------------------
 Warning -- This program may not be used in any manner that
 competes with the business of Gaussian, Inc. or will provide
 assistance to any competitor of Gaussian, Inc.  The licensee
 of this program is prohibited from giving any competitor of
 Gaussian, Inc. access to this program.  By using this program,
 the user acknowledges that Gaussian, Inc. is engaged in the
 business of creating and licensing software in the field of
 computational chemistry and represents and warrants to the
 licensee that it is not a competitor of Gaussian, Inc. and that
 it will not use this program in any manner prohibited above.
 ---------------------------------------------------------------
  

 Cite this work as:
 Gaussian 09, Revision D.01,
 M. J. Frisch, G. W. Trucks, H. B. Schlegel, G. E. Scuseria, 
 M. A. Robb, J. R. Cheeseman, G. Scalmani, V. Barone, B. Mennucci, 
 G. A. Petersson, H. Nakatsuji, M. Caricato, X. Li, H. P. Hratchian, 
 A. F. Izmaylov, J. Bloino, G. Zheng, J. L. Sonnenberg, M. Hada, 
 M. Ehara, K. Toyota, R. Fukuda, J. Hasegawa, M. Ishida, T. Nakajima, 
 Y. Honda, O. Kitao, H. Nakai, T. Vreven, J. A. Montgomery, Jr., 
 J. E. Peralta, F. Ogliaro, M. Bearpark, J. J. Heyd, E. Brothers, 
 K. N. Kudin, V. N. Staroverov, T. Keith, R. Kobayashi, J. Normand, 
 K. Raghavachari, A. Rendell, J. C. Burant, S. S. Iyengar, J. Tomasi, 
 M. Cossi, N. Rega, J. M. Millam, M. Klene, J. E. Knox, J. B. Cross, 
 V. Bakken, C. Adamo, J. Jaramillo, R. Gomperts, R. E. Stratmann, 
 O. Yazyev, A. J. Austin, R. Cammi, C. Pomelli, J. W. Ochterski, 
 R. L. Martin, K. Morokuma, V. G. Zakrzewski, G. A. Voth, 
 P. Salvador, J. J. Dannenberg, S. Dapprich, A. D. Daniels, 
 O. Farkas, J. B. Foresman, J. V. Ortiz, J. Cioslowski, 
 and D. J. Fox, Gaussian, Inc., Wallingford CT, 2013.
 
 ******************************************
 Gaussian 09:  ES64L-G09RevD.01 24-Apr-2013
                 6-Feb-2019 
 ******************************************
 %nprocshared=2
 Will use up to    2 processors via shared memory.
 %mem=6000MB
 %chk=/home/ke291/rds/hpc-work/06Feb0927IP1/P_ng_4ginp007.chk
 ----------------------------------------------------------------------
 # mPW1PW91/6-311g(d) geom=checkpoint nmr=giao scrf=(solvent=chloroform
 )
 ----------------------------------------------------------------------
 1/29=2,38=1/1;
 2/12=2,40=1/2;
 3/5=4,6=6,7=1,11=2,14=-4,16=1,25=1,30=1,70=2201,72=7,74=-7/1,2,8,3;
 4//1;
 5/5=2,38=5,53=7/2;
 8/6=1,10=90,11=11/1;
 10/13=100,45=16/2;
 6/7=2,8=2,9=2,10=2,28=1/1;
 99/9=1/99;
 -------------
 P_ng_4ginp007
 -------------
 Structure from the checkpoint file:  "/home/ke291/rds/hpc-work/06Feb0927IP1/P_ng_4ginp007.chk"
 Charge =  0 Multiplicity = 1
 Redundant internal coordinates found in file.
 C,0,0.2342208358,1.8279858831,-0.4386984288
 C,0,-0.0819764176,1.2103893058,0.9315334397
 C,0,-1.2468515492,2.0002817165,1.5940093763
 C,0,-0.7752224516,3.4552103059,1.7652529923
 C,0,-0.1012575525,4.0776784255,0.5525022206
 H,0,-0.638147847,1.7153219105,-1.0930151641
 H,0,-0.4451382809,0.1947319544,0.7388764208
 H,0,-1.5934407737,4.1196627492,2.0549921898
 H,0,-0.0333735933,3.4980651032,2.5701364968
 O,0,0.4822599722,3.2689479105,-0.3583560244
 O,0,-0.0009075456,5.2790306713,0.4161010799
 C,0,1.4413139845,1.2301153253,-1.1597236815
 C,0,1.5967248922,1.7318169734,-2.5985888699
 C,0,1.1534566599,1.0976856128,1.8410166714
 O,0,-1.5113810324,1.3832596377,2.8466452219
 Si,0,-2.2097738053,1.8420933086,4.3063558721
 C,0,-1.0169521565,2.8972646316,5.3210865211
 C,0,-3.8312569208,2.7843064039,4.0854140663
 C,0,-2.5263986333,0.2090569942,5.1827382151
 H,0,-4.2564380496,3.0132304397,5.0698915114
 H,0,-3.698415342,3.7366550293,3.5612079114
 H,0,-4.5718667345,2.1948356625,3.5355843567
 H,0,-1.5967988485,-0.3521778322,5.3233868586
 H,0,-2.9694803771,0.3759318575,6.1708955759
 H,0,-3.2134213975,-0.4191373957,4.6066933906
 H,0,-0.8567621466,3.8878257384,4.8830416383
 H,0,-1.4164981368,3.047746214,6.3310039709
 H,0,-0.0406354276,2.4109816755,5.4215036837
 H,0,1.8513806365,0.3522233992,1.4520538354
 H,0,1.6977985735,2.0437453212,1.9227626535
 H,0,0.8528349125,0.7861944919,2.8422150698
 H,0,1.3217627589,0.1394573841,-1.1553254748
 H,0,2.3474496548,1.4523930014,-0.5867771121
 H,0,2.4707823012,1.2772283249,-3.074320233
 H,0,0.7180259587,1.4801279452,-3.2029786775
 H,0,1.7227430038,2.8173737473,-2.6234273544
 C,0,-2.5543568116,1.9853426705,0.7465235672
 C,0,-3.1084279901,0.6259382862,0.4188004831
 C,0,-4.3162250573,0.1921046041,0.7822668882
 H,0,-2.3807841354,2.5407060643,-0.1854882542
 H,0,-3.3050563572,2.557779332,1.3002207622
 H,0,-2.4806560243,-0.0309908934,-0.1824412527
 H,0,-4.6775015642,-0.7923736235,0.4998488654
 H,0,-4.9926191843,0.8099917319,1.3681567209
 Recover connectivity data from disk.
                          Input orientation:                          
 ---------------------------------------------------------------------
 Center     Atomic      Atomic             Coordinates (Angstroms)
 Number     Number       Type             X           Y           Z
 ---------------------------------------------------------------------
      1          6           0        0.234221    1.827986   -0.438698
      2          6           0       -0.081976    1.210389    0.931533
      3          6           0       -1.246852    2.000282    1.594009
      4          6           0       -0.775222    3.455210    1.765253
      5          6           0       -0.101258    4.077678    0.552502
      6          1           0       -0.638148    1.715322   -1.093015
      7          1           0       -0.445138    0.194732    0.738876
      8          1           0       -1.593441    4.119663    2.054992
      9          1           0       -0.033374    3.498065    2.570136
     10          8           0        0.482260    3.268948   -0.358356
     11          8           0       -0.000908    5.279031    0.416101
     12          6           0        1.441314    1.230115   -1.159724
     13          6           0        1.596725    1.731817   -2.598589
     14          6           0        1.153457    1.097686    1.841017
     15          8           0       -1.511381    1.383260    2.846645
     16         14           0       -2.209774    1.842093    4.306356
     17          6           0       -1.016952    2.897265    5.321087
     18          6           0       -3.831257    2.784306    4.085414
     19          6           0       -2.526399    0.209057    5.182738
     20          1           0       -4.256438    3.013230    5.069892
     21          1           0       -3.698415    3.736655    3.561208
     22          1           0       -4.571867    2.194836    3.535584
     23          1           0       -1.596799   -0.352178    5.323387
     24          1           0       -2.969480    0.375932    6.170896
     25          1           0       -3.213421   -0.419137    4.606693
     26          1           0       -0.856762    3.887826    4.883042
     27          1           0       -1.416498    3.047746    6.331004
     28          1           0       -0.040635    2.410982    5.421504
     29          1           0        1.851381    0.352223    1.452054
     30          1           0        1.697799    2.043745    1.922763
     31          1           0        0.852835    0.786194    2.842215
     32          1           0        1.321763    0.139457   -1.155325
     33          1           0        2.347450    1.452393   -0.586777
     34          1           0        2.470782    1.277228   -3.074320
     35          1           0        0.718026    1.480128   -3.202979
     36          1           0        1.722743    2.817374   -2.623427
     37          6           0       -2.554357    1.985343    0.746524
     38          6           0       -3.108428    0.625938    0.418800
     39          6           0       -4.316225    0.192105    0.782267
     40          1           0       -2.380784    2.540706   -0.185488
     41          1           0       -3.305056    2.557779    1.300221
     42          1           0       -2.480656   -0.030991   -0.182441
     43          1           0       -4.677502   -0.792374    0.499849
     44          1           0       -4.992619    0.809992    1.368157
 ---------------------------------------------------------------------
                    Distance matrix (angstroms):
                    1          2          3          4          5
     1  C    0.000000
     2  C    1.535885   0.000000
     3  C    2.520945   1.555551   0.000000
     4  C    2.919630   2.492970   1.539018   0.000000
     5  C    2.481157   2.892297   2.590888   1.520677   0.000000
     6  H    1.096290   2.159417   2.769806   3.348985   2.928602
     7  H    2.125025   1.095702   2.152674   3.434112   3.902597
     8  H    3.848457   3.465625   2.196453   1.093127   2.117982
     9  H    3.451646   2.814399   2.160719   1.095451   2.100335
    10  O    1.464360   2.493961   2.900185   2.475009   1.350630
    11  O    3.563099   4.101961   3.700005   2.397101   1.213228
    12  C    1.527875   2.587307   3.924594   4.291803   3.663313
    13  C    2.555542   3.943563   5.073054   5.257312   4.279671
    14  C    2.564261   1.538232   2.576271   3.046878   3.480651
    15  O    3.746784   2.395983   1.421193   2.450371   3.809387
    16  Si   5.337495   4.039307   2.882545   3.334260   4.851299
    17  C    5.990318   4.794570   3.840382   3.607449   4.997126
    18  C    6.157130   5.145997   3.674363   3.895203   5.297846
    19  C    6.468578   5.005058   4.210071   5.028254   6.502817
    20  H    7.205233   6.148363   4.708018   4.820254   6.229396
    21  H    5.925192   5.135741   3.590965   3.442342   4.701931
    22  H    6.247238   5.282928   3.855294   4.374600   5.694754
    23  H    6.427081   4.901498   4.423210   5.275558   6.679941
    24  H    7.487249   6.040274   5.153043   5.805722   7.314094
    25  H    6.510897   5.095891   4.335580   5.387872   6.807597
    26  H    5.809828   4.835636   3.812181   3.148716   4.400046
    27  H    7.074006   5.857569   4.854388   4.628536   6.015123
    28  H    5.895541   4.647899   4.034023   3.872751   5.146720
    29  H    2.892754   2.178362   3.512163   4.077458   4.301279
    30  H    2.786595   2.201049   2.963264   2.851820   3.041562
    31  H    3.497486   2.168990   2.727766   3.306670   4.121522
    32  H    2.132470   2.733562   4.197534   4.890945   4.522306
    33  H    2.151449   2.875055   4.239695   4.392540   3.766464
    34  H    3.500292   4.750569   6.011398   6.221063   5.254688
    35  H    2.827776   4.219829   5.209837   5.551042   4.639195
    36  H    2.822699   4.298506   5.222347   5.089910   3.873225
    37  C    3.034086   2.597585   1.558212   2.522626   3.230048
    38  C    3.654247   3.124722   2.595265   3.906605   4.579897
    39  C    4.987326   4.357527   3.653695   4.914552   5.737284
    40  H    2.722193   2.881319   2.178181   2.686920   2.846604
    41  H    4.010352   3.512782   2.152515   2.724279   3.624018
    42  H    3.300306   2.921580   2.967174   4.342305   4.804461
    43  H    5.645544   5.031527   4.556915   5.905167   6.682978
    44  H    5.623246   4.946248   3.936823   4.994127   5.938728
                    6          7          8          9         10
     6  H    0.000000
     7  H    2.388571   0.000000
     8  H    4.074726   4.296026   0.000000
     9  H    4.118568   3.799352   1.756578   0.000000
    10  O    2.051534   3.393345   3.294920   2.982355   0.000000
    11  O    3.922184   5.113865   2.562471   2.795132   2.207638
    12  C    2.136361   2.869739   5.281441   4.607619   2.391404
    13  C    2.694751   4.203631   6.126564   5.700226   2.936571
    14  C    3.492830   2.141388   4.089447   2.775248   3.162614
    15  O    4.048917   2.644269   2.849798   2.594873   4.219296
    16  Si   5.624881   4.307511   3.261262   3.239355   5.571579
    17  C    6.533084   5.350449   3.534681   2.982635   5.885733
    18  C    6.176957   5.419503   3.303575   4.150836   6.211956
    19  C    6.724538   4.907113   5.093726   4.884510   7.008472
    20  H    7.263471   6.420875   4.171974   4.931340   7.210168
    21  H    5.925607   5.576252   2.616543   3.804166   5.749763
    22  H    6.093276   5.371394   3.842933   4.819587   6.469983
    23  H    6.809096   4.758484   5.538932   4.984883   7.051045
    24  H    7.745546   5.992660   5.731463   5.597670   7.931909
    25  H    6.608678   4.795856   5.453093   5.441024   7.204981
    26  H    6.362454   5.566191   2.931605   2.485842   5.445020
    27  H    7.582694   6.352568   4.411869   4.032362   6.957137
    28  H    6.578748   5.196382   4.082180   3.051573   5.866541
    29  H    3.812239   2.409860   5.140421   3.833892   3.695857
    30  H    3.828763   3.067999   3.893478   2.351828   2.860447
    31  H    4.309564   2.541377   4.209037   2.865944   4.067560
    32  H    2.515647   2.590945   5.886135   5.195739   3.336710
    33  H    3.039605   3.337307   5.442783   4.451876   2.613614
    34  H    3.712539   4.920860   7.134927   6.562226   3.911218
    35  H    2.519220   4.306207   6.321098   6.161618   3.368581
    36  H    3.021669   4.783623   5.880531   5.524526   2.621691
    37  C    2.669957   2.766794   2.681561   3.459660   3.476988
    38  C    3.094289   2.716892   4.144686   4.725814   4.525761
    39  C    4.400582   3.871331   4.945614   5.698129   5.813213
    40  H    2.131114   3.178800   2.851801   3.744374   2.959264
    41  H    3.680994   3.752097   2.436963   3.633281   4.195283
    42  H    2.696959   2.245687   4.798040   5.100991   4.438402
    43  H    5.014193   4.352518   6.004832   6.652960   6.622234
    44  H    5.083150   4.631859   4.793754   5.767548   6.245127
                   11         12         13         14         15
    11  O    0.000000
    12  C    4.577875   0.000000
    13  C    4.921739   1.531728   0.000000
    14  C    4.565806   3.017423   4.506518   0.000000
    15  O    4.833850   4.979242   6.279521   2.862552   0.000000
    16  Si   5.641428   6.601741   7.885420   4.235960   1.681974
    17  C    5.546534   7.129050   8.420857   4.478844   2.942708
    18  C    5.861662   7.597828   8.674481   5.720960   2.979816
    19  C    7.402943   7.550637   8.936890   5.049564   2.804700
    20  H    6.700832   8.628556   9.731759   6.584976   3.890368
    21  H    5.093347   7.415305   8.366659   5.784797   3.291229
    22  H    6.335385   7.689925   8.711716   6.070801   3.240350
    23  H    7.637986   7.332428   8.792004   4.668288   3.025440
    24  H    8.122220   8.597832   9.979605   6.022241   3.767148
    25  H    7.768554   7.591980   8.926377   5.386961   3.040287
    26  H    4.756206   6.989964   8.163502   4.591272   3.293674
    27  H    6.478318   8.220819   9.515714   5.528778   3.862677
    28  H    5.768998   6.848589   8.213653   3.996310   3.138344
    29  H    5.364476   2.785719   4.286704   1.092751   3.783661
    30  H    3.952556   3.198359   4.533226   1.094541   3.404208
    31  H    5.176918   4.069261   5.572246   1.090779   2.438447
    32  H    5.534804   1.097199   2.166615   3.150332   5.058608
    33  H    4.600402   1.094878   2.165422   2.728666   5.165631
    34  H    5.857193   2.174329   1.094051   5.091966   7.136295
    35  H    5.295873   2.181867   1.095786   5.077179   6.448069
    36  H    4.274279   2.177388   1.093129   4.817953   6.514441
    37  C    4.180629   4.491050   5.337184   3.966577   2.420912
    38  C    5.595352   4.853547   5.697900   4.517622   3.003086
    39  C    6.680783   6.164256   6.983114   5.644329   3.680714
    40  H    3.677519   4.156347   4.722069   4.322024   3.359967
    41  H    4.370844   5.508362   6.317467   4.722571   2.643520
    42  H    5.890988   4.234066   5.056708   4.309880   3.480656
    43  H    7.664170   6.654664   7.438936   6.274642   4.501683
    44  H    6.767267   6.925473   7.746243   6.170949   3.825387
                   16         17         18         19         20
    16  Si   0.000000
    17  C    1.888356   0.000000
    18  C    1.888329   3.075704   0.000000
    19  C    1.880187   3.086103   3.088476   0.000000
    20  H    2.478585   3.251279   1.096531   3.296841   0.000000
    21  H    2.522036   3.315418   1.095174   4.055482   1.763763
    22  H    2.509581   4.039659   1.094665   3.292472   1.767304
    23  H    2.494978   3.300773   4.045110   1.094953   4.296966
    24  H    2.490641   3.300252   3.300327   1.095730   3.134296
    25  H    2.492123   4.041455   3.303862   1.094740   3.617124
    26  H    2.519569   1.094877   3.271328   4.051030   3.515342
    27  H    2.486380   1.096456   3.308041   3.257077   3.107548
    28  H    2.504466   1.095331   4.036498   3.329339   4.273093
    29  H    5.182637   5.447383   6.718778   5.753560   7.581237
    30  H    4.581627   4.432490   5.982971   5.642461   6.804209
    31  H    3.555025   3.754667   5.242014   4.150946   6.002241
    32  H    6.723145   7.417479   7.811158   7.415136   8.839017
    33  H    6.697977   6.950518   7.860011   7.654253   8.834333
    34  H    8.757914   9.234266   9.656541   9.710398  10.705017
    35  H    8.068032   8.813519   8.690082   9.080868   9.774256
    36  H    8.027313   8.404024   8.709567   9.262545   9.745569
    37  C    3.579338   4.911399   3.662923   4.778700   4.758691
    38  C    4.171295   5.793583   4.315680   4.817432   5.352545
    39  C    4.424794   6.229284   4.226758   4.750570   5.132840
    40  H    4.549062   5.684148   4.517059   5.854541   5.600033
    41  H    3.278521   4.638753   2.843502   4.603992   3.914458
    42  H    4.871460   6.403587   5.288158   5.370742   6.325163
    43  H    5.245912   7.089244   5.134691   5.249720   5.961980
    44  H    4.176419   5.982332   3.553895   4.581964   4.370248
                   21         22         23         24         25
    21  H    0.000000
    22  H    1.772225   0.000000
    23  H    4.923476   4.305176   0.000000
    24  H    4.316975   3.580631   1.769935   0.000000
    25  H    4.312641   3.134566   1.769633   1.771545   0.000000
    26  H    3.137689   4.299286   4.326568   4.295992   4.917331
    27  H    3.654246   4.300951   3.550674   3.094508   4.268660
    28  H    4.312478   4.912786   3.172747   3.644331   4.328979
    29  H    6.833970   6.999602   5.231954   6.746016   6.016558
    30  H    5.888087   6.475548   5.306512   6.527766   6.114684
    31  H    5.471384   5.647337   3.667807   5.085128   4.593544
    32  H    7.770953   7.807950   7.122740   8.493774   7.353964
    33  H    7.679591   8.088388   7.331003   8.665717   7.835691
    34  H    9.388185   9.702152   9.472152  10.764888   9.704937
    35  H    8.387556   8.596627   9.023008  10.133433   8.947316
    36  H    8.275491   8.828538   9.176997  10.262442   9.333561
    37  C    3.506909   3.448636   5.227676   5.673301   4.595302
    38  C    4.460871   3.783838   5.224625   5.759202   4.317598
    39  C    4.546212   3.414241   5.321024   5.557412   4.026913
    40  H    4.147792   4.332072   6.271452   6.740655   5.693765
    41  H    2.580028   2.594877   5.250891   5.347574   4.450078
    42  H    5.449129   4.811567   5.585562   6.385094   4.860392
    43  H    5.553614   4.260313   5.740298   6.036808   4.375958
    44  H    3.879407   2.606256   5.340981   5.229512   3.894152
                   26         27         28         29         30
    26  H    0.000000
    27  H    1.765116   0.000000
    28  H    1.771178   1.767953   0.000000
    29  H    5.621939   6.461349   4.855383   0.000000
    30  H    4.323154   5.489941   3.924055   1.762498   0.000000
    31  H    4.087519   4.736680   3.176626   1.765778   1.772228
    32  H    7.433580   8.485361   7.090179   2.669118   3.639003
    33  H    6.790966   8.035431   6.536152   2.369238   2.658860
    34  H    9.011514  10.329850   8.931497   4.661261   5.114283
    35  H    8.582581   9.894971   8.707683   4.921990   5.248890
    36  H    8.009169   9.491562   8.245943   4.764773   4.611612
    37  C    4.859223   5.797400   5.324979   4.751355   4.412230
    38  C    5.969871   6.609231   6.133903   5.073681   5.231815
    39  C    6.514798   6.881249   6.687795   6.205934   6.395138
    40  H    5.461444   6.606936   6.077128   5.038077   4.618065
    41  H    4.538697   5.395878   5.259560   5.610381   5.067578
    42  H    6.607062   7.282584   6.581879   4.645963   5.118193
    43  H    7.464228   7.706039   7.482292   6.696499   7.121285
    44  H    6.239615   6.513527   6.596585   6.859805   6.825791
                   31         32         33         34         35
    31  H    0.000000
    32  H    4.076579   0.000000
    33  H    3.799432   1.760421   0.000000
    34  H    6.153394   2.509444   2.496751   0.000000
    35  H    6.086385   2.520869   3.082256   1.769146   0.000000
    36  H    5.895395   3.080153   2.530094   1.770569   1.770187
    37  C    4.175983   4.695596   5.107782   6.352346   5.153863
    38  C    4.646528   4.726640   5.608994   6.614655   5.337478
    39  C    5.596026   5.961874   6.918610   7.881258   6.548654
    40  H    4.764619   4.518344   4.868434   5.786141   4.453392
    41  H    4.775387   5.769354   6.060814   7.357767   6.133949
    42  H    4.574768   3.928606   5.067003   5.881424   4.651741
    43  H    6.209926   6.292780   7.454507   8.255659   6.927259
    44  H    6.028495   6.832935   7.623061   8.698061   7.345463
                   36         37         38         39         40
    36  H    0.000000
    37  C    5.508396   0.000000
    38  C    6.115370   1.504120   0.000000
    39  C    7.413496   2.514192   1.333827   0.000000
    40  H    4.781111   1.098727   2.135642   3.193495   0.000000
    41  H    6.382881   1.094447   2.132504   2.624339   1.749829
    42  H    5.633840   2.221263   1.089562   2.085605   2.573637
    43  H    7.984251   3.504897   2.116641   1.086038   4.105365
    44  H    8.065880   2.777229   2.117860   1.087456   3.497266
                   41         42         43         44
    41  H    0.000000
    42  H    3.095102   0.000000
    43  H    3.707793   2.423088   0.000000
    44  H    2.430482   3.069457   1.849549   0.000000
 Stoichiometry    C14H26O3Si
 Framework group  C1[X(C14H26O3Si)]
 Deg. of freedom   126
 Full point group                 C1      NOp   1
 Largest Abelian subgroup         C1      NOp   1
 Largest concise Abelian subgroup C1      NOp   1
                         Standard orientation:                         
 ---------------------------------------------------------------------
 Center     Atomic      Atomic             Coordinates (Angstroms)
 Number     Number       Type             X           Y           Z
 ---------------------------------------------------------------------
      1          6           0       -2.443338    0.346572    0.272099
      2          6           0       -1.074265    0.321428    0.967763
      3          6           0        0.041324    0.140935   -0.101173
      4          6           0       -0.216452   -1.200027   -0.811066
      5          6           0       -1.652798   -1.453763   -1.241170
      6          1           0       -2.493636    1.219172   -0.389633
      7          1           0       -0.936194    1.310283    1.419054
      8          1           0        0.411127   -1.321372   -1.697828
      9          1           0        0.037290   -2.019589   -0.129930
     10          8           0       -2.651794   -0.816078   -0.593431
     11          8           0       -1.936423   -2.269465   -2.093290
     12          6           0       -3.649148    0.398612    1.208963
     13          6           0       -4.975305    0.625820    0.476929
     14          6           0       -0.991125   -0.720416    2.096393
     15          8           0        1.284402    0.139828    0.587699
     16         14           0        2.835125   -0.444564    0.299988
     17          6           0        2.916935   -2.308508    0.591377
     18          6           0        3.455865   -0.065176   -1.442578
     19          6           0        3.892624    0.450530    1.571053
     20          1           0        4.484171   -0.430344   -1.550371
     21          1           0        2.856855   -0.551705   -2.219678
     22          1           0        3.465232    1.010537   -1.645172
     23          1           0        3.550359    0.241022    2.589819
     24          1           0        4.939804    0.136266    1.498426
     25          1           0        3.854430    1.534229    1.420734
     26          1           0        2.370574   -2.876138   -0.168914
     27          1           0        3.959710   -2.646288    0.564194
     28          1           0        2.508378   -2.577400    1.571442
     29          1           0       -1.626814   -0.429879    2.936388
     30          1           0       -1.314343   -1.713995    1.770280
     31          1           0        0.034191   -0.794739    2.461086
     32          1           0       -3.474938    1.209992    1.926710
     33          1           0       -3.695416   -0.530870    1.785747
     34          1           0       -5.807935    0.657095    1.185940
     35          1           0       -4.967402    1.574188   -0.071963
     36          1           0       -5.169530   -0.176397   -0.239768
     37          6           0        0.061550    1.282633   -1.161428
     38          6           0        0.225960    2.676810   -0.621412
     39          6           0        1.234845    3.493909   -0.927341
     40          1           0       -0.859766    1.230881   -1.757835
     41          1           0        0.879451    1.064976   -1.855314
     42          1           0       -0.555441    3.043886    0.043278
     43          1           0        1.294504    4.501462   -0.526396
     44          1           0        2.034084    3.188196   -1.598398
 ---------------------------------------------------------------------
 Rotational constants (GHZ):      0.5544456      0.2454775      0.2224019
 Standard basis: 6-311G(d) (5D, 7F)
 There are   428 symmetry adapted cartesian basis functions of A   symmetry.
 There are   410 symmetry adapted basis functions of A   symmetry.
   410 basis functions,   720 primitive gaussians,   428 cartesian basis functions
    74 alpha electrons       74 beta electrons
       nuclear repulsion energy      1621.6152653338 Hartrees.
 NAtoms=   44 NActive=   44 NUniq=   44 SFac= 1.00D+00 NAtFMM=   60 NAOKFM=F Big=F
 Integral buffers will be    131072 words long.
 Raffenetti 2 integral format.
 Two-electron integral symmetry is turned on.
 ------------------------------------------------------------------------------
 Polarizable Continuum Model (PCM)
 =================================
 Model                : PCM (using non-symmetric T matrix).
 Atomic radii         : UFF (Universal Force Field).
 Polarization charges : Total charges.
 Charge compensation  : None.
 Solution method      : On-the-fly selection.
 Cavity type          : Scaled VdW (van der Waals Surface) (Alpha=1.100).
 Cavity algorithm     : GePol (No added spheres)
                        Default sphere list used, NSphG=   44.
                        Lebedev-Laikov grids with approx.  5.0 points / Ang**2.
                        Smoothing algorithm: Karplus/York (Gamma=1.0000).
                        Polarization charges: spherical gaussians, with
                                              point-specific exponents (IZeta= 3).
                        Self-potential: point-specific (ISelfS= 7).
                        Self-field    : sphere-specific E.n sum rule (ISelfD= 2).
 Solvent              : Chloroform, Eps=   4.711300 Eps(inf)=   2.090627
 ------------------------------------------------------------------------------
 One-electron integrals computed using PRISM.
 NBasis=   410 RedAO= T EigKep=  1.01D-03  NBF=   410
 NBsUse=   410 1.00D-06 EigRej= -1.00D+00 NBFU=   410
 ExpMin= 6.54D-02 ExpMax= 6.94D+04 ExpMxC= 2.33D+03 IAcc=2 IRadAn=         4 AccDes= 0.00D+00
 Harris functional with IExCor=  908 and IRadAn=       4 diagonalized for initial guess.
 HarFok:  IExCor=  908 AccDes= 0.00D+00 IRadAn=         4 IDoV= 1 UseB2=F ITyADJ=14
 ICtDFT=  3500011 ScaDFX=  1.000000  1.000000  1.000000  1.000000
 FoFCou: FMM=F IPFlag=           0 FMFlag=      100000 FMFlg1=           0
         NFxFlg=           0 DoJE=T BraDBF=F KetDBF=T FulRan=T
         wScrn=  0.000000 ICntrl=     500 IOpCl=  0 I1Cent=   200000004 NGrid=           0
         NMat0=    1 NMatS0=      1 NMatT0=    0 NMatD0=    1 NMtDS0=    0 NMtDT0=    0
 Petite list used in FoFCou.
 Requested convergence on RMS density matrix=1.00D-08 within 128 cycles.
 Requested convergence on MAX density matrix=1.00D-06.
 Requested convergence on             energy=1.00D-06.
 No special actions if energy rises.
 Inv3:  Mode=1 IEnd=    24779628.
 Iteration    1 A*A^-1 deviation from unit magnitude is 5.11D-15 for   2865.
 Iteration    1 A*A^-1 deviation from orthogonality  is 3.04D-15 for   2854   1698.
 Iteration    1 A^-1*A deviation from unit magnitude is 5.33D-15 for   1435.
 Iteration    1 A^-1*A deviation from orthogonality  is 1.41D-09 for   2327   2265.
 Iteration    2 A*A^-1 deviation from unit magnitude is 8.44D-15 for   1435.
 Iteration    2 A*A^-1 deviation from orthogonality  is 5.69D-15 for   2472   1396.
 Iteration    2 A^-1*A deviation from unit magnitude is 1.22D-15 for   1403.
 Iteration    2 A^-1*A deviation from orthogonality  is 5.20D-16 for   2527   1417.
 Error on total polarization charges =  0.01139
 SCF Done:  E(RmPW1PW91) =  -1064.38262355     A.U. after   12 cycles
            NFock= 12  Conv=0.83D-08     -V/T= 2.0036
 DoSCS=F DFT=T ScalE2(SS,OS)=  1.000000  1.000000
 Range of M.O.s used for correlation:     1   410
 NBasis=   410 NAE=    74 NBE=    74 NFC=     0 NFV=     0
 NROrb=    410 NOA=    74 NOB=    74 NVA=   336 NVB=   336
 NEqPCM:  Using equilibrium solvation (IEInf=0, Eps=   4.7113, EpsInf=   2.0906)
          Differentiating once with respect to magnetic field using GIAOs.
          Electric field/nuclear overlap derivatives assumed to be zero.
 FoFJK:  IHMeth= 1 ICntrl=    6127 DoSepK=F KAlg= 0 I1Cent=   0 FoldK=F
 IRaf=         1 NMat=   1 IRICut=       1 DoRegI=T DoRafI=F ISym2E= 0.
          There are     3 degrees of freedom in the 1st order CPHF.  IDoFFX=0 NUNeed=     3.
      3 vectors produced by pass  0 Test12= 8.29D-13 3.33D-08 XBig12= 3.54D+01 1.05D+00.
 AX will form     3 AO Fock derivatives at one time.
      3 vectors produced by pass  1 Test12= 8.29D-13 3.33D-08 XBig12= 8.54D-02 8.78D-02.
      3 vectors produced by pass  2 Test12= 8.29D-13 3.33D-08 XBig12= 6.19D-04 8.12D-03.
      3 vectors produced by pass  3 Test12= 8.29D-13 3.33D-08 XBig12= 3.43D-06 5.08D-04.
      3 vectors produced by pass  4 Test12= 8.29D-13 3.33D-08 XBig12= 1.64D-08 3.43D-05.
      3 vectors produced by pass  5 Test12= 8.29D-13 3.33D-08 XBig12= 5.53D-11 1.84D-06.
      2 vectors produced by pass  6 Test12= 8.29D-13 3.33D-08 XBig12= 1.62D-13 7.23D-08.
 InvSVY:  IOpt=1 It=  1 EMax= 2.66D-15
 Solved reduced A of dimension    20 with     3 vectors.
 Calculating GIAO nuclear magnetic shielding tensors.
 SCF GIAO Magnetic shielding tensor (ppm):
      1  C    Isotropic =   103.5982   Anisotropy =    45.6465
   XX=    99.1691   YX=     2.8330   ZX=    -0.0274
   XY=    -1.2397   YY=   114.5943   ZY=    24.5045
   XZ=    -2.5686   YZ=    29.1250   ZZ=    97.0311
   Eigenvalues:    77.4902    99.2751   134.0292
      2  C    Isotropic =   146.0105   Anisotropy =    23.4392
   XX=   160.7845   YX=    -5.0057   ZX=     0.8544
   XY=    -3.4296   YY=   137.1870   ZY=     2.7731
   XZ=    -4.7784   YZ=    -6.5793   ZZ=   140.0601
   Eigenvalues:   135.3876   141.0073   161.6366
      3  C    Isotropic =   107.3083   Anisotropy =    50.9302
   XX=   134.3473   YX=    -3.2675   ZX=    17.2192
   XY=    -7.0754   YY=    85.9993   ZY=    -5.1477
   XZ=    13.6345   YZ=    -4.6737   ZZ=   101.5783
   Eigenvalues:    84.5673    96.0959   141.2617
      4  C    Isotropic =   143.9417   Anisotropy =    37.3190
   XX=   154.7109   YX=    13.8056   ZX=     6.7387
   XY=     9.6819   YY=   143.7192   ZY=     6.6691
   XZ=    13.9119   YZ=    17.4805   ZZ=   133.3950
   Eigenvalues:   125.1996   137.8045   168.8210
      5  C    Isotropic =    13.1969   Anisotropy =    87.5996
   XX=   -60.4156   YX=    29.8891   ZX=    21.8434
   XY=    37.4498   YY=    47.7153   ZY=   -22.0618
   XZ=    33.5603   YZ=   -20.7990   ZZ=    52.2911
   Eigenvalues:   -78.2262    46.2203    71.5967
      6  H    Isotropic =    27.7293   Anisotropy =     3.8943
   XX=    30.1306   YX=    -0.4937   ZX=    -1.1104
   XY=    -0.6449   YY=    28.4937   ZY=    -1.9002
   XZ=    -0.3487   YZ=    -0.9304   ZZ=    24.5637
   Eigenvalues:    23.9838    28.8787    30.3255
      7  H    Isotropic =    30.0491   Anisotropy =     5.5121
   XX=    28.3162   YX=     0.4325   ZX=    -1.6823
   XY=     1.4405   YY=    33.5234   ZY=     0.8580
   XZ=    -1.8134   YZ=     0.6091   ZZ=    28.3078
   Eigenvalues:    26.3691    30.0544    33.7239
      8  H    Isotropic =    29.7799   Anisotropy =     3.8594
   XX=    31.2644   YX=     0.4918   ZX=    -1.7247
   XY=     1.4059   YY=    28.2716   ZY=     3.1253
   XZ=    -0.6788   YZ=     2.9585   ZZ=    29.8038
   Eigenvalues:    25.5148    31.4721    32.3528
      9  H    Isotropic =    29.3751   Anisotropy =     4.1486
   XX=    30.0434   YX=    -1.1877   ZX=     0.7371
   XY=    -1.6272   YY=    31.1551   ZY=    -0.3286
   XZ=     0.8639   YZ=     0.5013   ZZ=    26.9270
   Eigenvalues:    26.6899    29.2947    32.1409
     10  O    Isotropic =   109.9135   Anisotropy =   191.6395
   XX=   168.1968   YX=   -64.2919   ZX=   -77.0314
   XY=   -71.1574   YY=    77.5983   ZY=  -137.2080
   XZ=   -90.7025   YZ=  -166.8251   ZZ=    83.9455
   Eigenvalues:  -112.2230   204.2904   237.6732
     11  O    Isotropic =  -106.0169   Anisotropy =   570.7092
   XX=  -225.2512   YX=    65.3223   ZX=    34.4707
   XY=    58.7643   YY=   -28.7813   ZY=  -303.2295
   XZ=    19.0453   YZ=  -334.6269   ZZ=   -64.0182
   Eigenvalues:  -389.4410  -203.0657   274.4558
     12  C    Isotropic =   157.5340   Anisotropy =    20.0484
   XX=   165.1946   YX=    -3.7428   ZX=   -10.6401
   XY=    -0.6075   YY=   149.8548   ZY=     6.8444
   XZ=    -3.8006   YZ=     6.0979   ZZ=   157.5527
   Eigenvalues:   145.9944   155.7081   170.8996
     13  C    Isotropic =   175.0945   Anisotropy =    22.7571
   XX=   187.0045   YX=    -4.2669   ZX=     3.4311
   XY=    -2.5061   YY=   166.5680   ZY=    -7.9386
   XZ=     7.8234   YZ=    -7.0980   ZZ=   171.7111
   Eigenvalues:   161.1820   173.8356   190.2660
     14  C    Isotropic =   179.8112   Anisotropy =    12.2909
   XX=   177.6141   YX=    -2.5502   ZX=    -1.7538
   XY=    -2.2076   YY=   181.4313   ZY=    -7.9801
   XZ=    -2.3183   YZ=    -6.1458   ZZ=   180.3882
   Eigenvalues:   172.0773   179.3512   188.0051
     15  O    Isotropic =   245.6020   Anisotropy =    27.5602
   XX=   232.5437   YX=    11.9072   ZX=    -2.7668
   XY=    10.8309   YY=   249.3433   ZY=     9.2302
   XZ=    -6.7417   YZ=    12.9398   ZZ=   254.9188
   Eigenvalues:   223.8771   248.9534   263.9754
     16  Si   Isotropic =   333.5921   Anisotropy =    42.6217
   XX=   360.2874   YX=   -12.8794   ZX=    -9.7104
   XY=    -2.9271   YY=   322.3708   ZY=     8.6541
   XZ=     7.3453   YZ=     4.3253   ZZ=   318.1180
   Eigenvalues:   313.1045   325.6652   362.0065
     17  C    Isotropic =   185.3871   Anisotropy =    11.9161
   XX=   186.3099   YX=    -2.1142   ZX=    -0.9553
   XY=     0.0720   YY=   192.6358   ZY=    -3.2613
   XZ=    -0.8848   YZ=    -2.9212   ZZ=   177.2155
   Eigenvalues:   176.4958   186.3343   193.3311
     18  C    Isotropic =   185.0907   Anisotropy =     8.5066
   XX=   186.1886   YX=    -1.0022   ZX=    -3.9265
   XY=    -3.3441   YY=   181.2869   ZY=    -3.7438
   XZ=    -2.4028   YZ=    -4.3804   ZZ=   187.7965
   Eigenvalues:   177.9406   186.5697   190.7617
     19  C    Isotropic =   187.1189   Anisotropy =    12.2588
   XX=   190.3527   YX=     0.2559   ZX=     4.0534
   XY=     0.0029   YY=   184.5915   ZY=     7.4033
   XZ=     4.1302   YZ=     7.7069   ZZ=   186.4126
   Eigenvalues:   177.3390   188.7264   195.2914
     20  H    Isotropic =    32.1530   Anisotropy =    10.4469
   XX=    37.5657   YX=    -2.3852   ZX=    -3.1397
   XY=    -2.6367   YY=    28.9435   ZY=     0.3693
   XZ=    -2.5767   YZ=     0.1507   ZZ=    29.9498
   Eigenvalues:    28.0474    29.2940    39.1176
     21  H    Isotropic =    31.8366   Anisotropy =     6.4438
   XX=    32.0265   YX=     1.2852   ZX=     0.8832
   XY=     1.1864   YY=    29.0786   ZY=     2.3648
   XZ=     1.9138   YZ=     2.5767   ZZ=    34.4048
   Eigenvalues:    27.9958    31.3816    36.1325
     22  H    Isotropic =    31.7899   Anisotropy =     7.9903
   XX=    30.0763   YX=     0.4340   ZX=    -1.6775
   XY=     0.1594   YY=    35.9125   ZY=    -2.3745
   XZ=    -0.9911   YZ=    -3.4855   ZZ=    29.3808
   Eigenvalues:    27.6982    30.5547    37.1167
     23  H    Isotropic =    31.9787   Anisotropy =     8.4179
   XX=    30.1858   YX=     0.9058   ZX=    -0.0109
   XY=     0.6749   YY=    28.1824   ZY=    -0.0121
   XZ=    -0.5322   YZ=    -0.6159   ZZ=    37.5681
   Eigenvalues:    27.9037    30.4419    37.5907
     24  H    Isotropic =    32.4254   Anisotropy =    10.3296
   XX=    38.9269   YX=    -1.2269   ZX=     1.5601
   XY=    -1.5044   YY=    29.0652   ZY=     0.4648
   XZ=     1.4070   YZ=     0.4173   ZZ=    29.2840
   Eigenvalues:    28.3432    29.6212    39.3117
     25  H    Isotropic =    31.9710   Anisotropy =     8.1832
   XX=    29.8337   YX=     1.2431   ZX=     1.7145
   XY=     0.8755   YY=    37.2360   ZY=     0.0488
   XZ=     1.6968   YZ=     0.6578   ZZ=    28.8433
   Eigenvalues:    27.5490    30.9375    37.4265
     26  H    Isotropic =    31.9510   Anisotropy =     6.6277
   XX=    31.5713   YX=     0.3954   ZX=     2.6766
   XY=     1.2469   YY=    33.5474   ZY=     3.2750
   XZ=     2.6915   YZ=     2.4650   ZZ=    30.7344
   Eigenvalues:    27.8550    31.6286    36.3695
     27  H    Isotropic =    32.2588   Anisotropy =    10.4577
   XX=    36.6662   YX=    -4.4390   ZX=     0.2984
   XY=    -4.1387   YY=    32.0019   ZY=    -0.3236
   XZ=     0.2475   YZ=    -0.3367   ZZ=    28.1082
   Eigenvalues:    28.0784    29.4673    39.2306
     28  H    Isotropic =    31.9236   Anisotropy =     7.6768
   XX=    30.3452   YX=    -0.3575   ZX=    -2.0551
   XY=     0.1845   YY=    31.1515   ZY=    -3.9589
   XZ=    -2.0630   YZ=    -3.1846   ZZ=    34.2741
   Eigenvalues:    28.0738    30.6555    37.0415
     29  H    Isotropic =    31.1359   Anisotropy =    10.0800
   XX=    30.9056   YX=    -2.0684   ZX=    -3.1431
   XY=    -1.4443   YY=    26.4222   ZY=    -0.4972
   XZ=    -3.8524   YZ=    -0.4404   ZZ=    36.0801
   Eigenvalues:    25.5335    30.0183    37.8559
     30  H    Isotropic =    31.4268   Anisotropy =     7.0426
   XX=    29.2382   YX=     1.4487   ZX=    -0.5822
   XY=     1.6676   YY=    35.3281   ZY=    -1.7131
   XZ=    -0.4191   YZ=    -1.4130   ZZ=    29.7142
   Eigenvalues:    28.8331    29.3255    36.1219
     31  H    Isotropic =    30.7455   Anisotropy =     8.1580
   XX=    35.3096   YX=    -0.7313   ZX=     1.4536
   XY=    -1.1618   YY=    25.1883   ZY=    -2.7707
   XZ=     1.4563   YZ=    -3.0672   ZZ=    31.7386
   Eigenvalues:    24.0640    31.9883    36.1842
     32  H    Isotropic =    30.6382   Anisotropy =     6.9979
   XX=    31.9649   YX=    -1.3636   ZX=     0.2371
   XY=    -1.6617   YY=    29.0435   ZY=     5.0815
   XZ=    -0.0498   YZ=     4.9025   ZZ=    30.9061
   Eigenvalues:    24.6888    31.9223    35.3034
     33  H    Isotropic =    30.2638   Anisotropy =     4.5456
   XX=    33.0984   YX=    -0.6316   ZX=    -0.4497
   XY=    -0.5827   YY=    28.3322   ZY=    -4.2756
   XZ=    -0.2891   YZ=    -4.3288   ZZ=    29.3607
   Eigenvalues:    24.4570    33.0402    33.2941
     34  H    Isotropic =    30.9530   Anisotropy =    11.4770
   XX=    37.1632   YX=    -1.1643   ZX=    -3.9709
   XY=    -1.0038   YY=    26.1888   ZY=    -0.1897
   XZ=    -3.0552   YZ=    -0.1194   ZZ=    29.5069
   Eigenvalues:    25.9824    28.2722    38.6044
     35  H    Isotropic =    31.1597   Anisotropy =     8.9599
   XX=    31.3938   YX=    -2.8498   ZX=     1.9706
   XY=    -2.4800   YY=    33.1317   ZY=    -3.5910
   XZ=     1.2795   YZ=    -4.1379   ZZ=    28.9537
   Eigenvalues:    26.6495    29.6967    37.1330
     36  H    Isotropic =    30.5721   Anisotropy =     8.0179
   XX=    32.9926   YX=     1.1059   ZX=     2.9735
   XY=     0.9843   YY=    29.3306   ZY=     3.7439
   XZ=     2.4540   YZ=     4.2952   ZZ=    29.3932
   Eigenvalues:    25.1464    30.6526    35.9174
     37  C    Isotropic =   141.4619   Anisotropy =    33.6231
   XX=   121.9158   YX=     0.8072   ZX=    -0.3954
   XY=    -0.1983   YY=   163.2023   ZY=    -3.4818
   XZ=    -2.7168   YZ=    -4.6243   ZZ=   139.2675
   Eigenvalues:   121.7773   138.7310   163.8773
     38  C    Isotropic =    47.7305   Anisotropy =   176.4478
   XX=    54.8248   YX=    17.6667   ZX=    79.3454
   XY=    20.2677   YY=    11.5667   ZY=   -82.9620
   XZ=    80.0410   YZ=   -81.2499   ZZ=    76.7998
   Eigenvalues:   -75.7058    53.5349   165.3623
     39  C    Isotropic =    64.2514   Anisotropy =   141.7172
   XX=    81.4124   YX=    22.3192   ZX=    61.4159
   XY=    24.6956   YY=    28.0799   ZY=   -75.6190
   XZ=    60.0502   YZ=   -78.4201   ZZ=    83.2618
   Eigenvalues:   -49.7759    83.8005   158.7295
     40  H    Isotropic =    29.5528   Anisotropy =     4.8821
   XX=    30.5250   YX=     0.7992   ZX=     2.1081
   XY=     0.6384   YY=    28.1709   ZY=    -2.4399
   XZ=     2.3734   YZ=    -2.3451   ZZ=    29.9627
   Eigenvalues:    25.7282    30.1228    32.8076
     41  H    Isotropic =    29.7539   Anisotropy =     3.9628
   XX=    30.2514   YX=     0.0665   ZX=    -1.6118
   XY=    -1.1493   YY=    29.4650   ZY=    -0.8411
   XZ=    -3.2907   YZ=    -1.1315   ZZ=    29.5452
   Eigenvalues:    26.9405    29.9254    32.3957
     42  H    Isotropic =    25.8826   Anisotropy =     7.2809
   XX=    25.4716   YX=     1.0069   ZX=    -0.6914
   XY=     2.5495   YY=    29.7950   ZY=    -1.7883
   XZ=    -0.1936   YZ=    -1.2809   ZZ=    22.3811
   Eigenvalues:    22.0735    24.8377    30.7365
     43  H    Isotropic =    26.6893   Anisotropy =     6.3845
   XX=    26.5468   YX=     3.2974   ZX=     0.6295
   XY=     1.7198   YY=    29.2364   ZY=    -0.8127
   XZ=    -0.1352   YZ=    -2.1905   ZZ=    24.2845
   Eigenvalues:    23.4807    25.6415    30.9456
     44  H    Isotropic =    26.7036   Anisotropy =     6.4332
   XX=    27.2129   YX=     1.0580   ZX=    -0.8259
   XY=     3.2227   YY=    28.2222   ZY=    -3.5411
   XZ=     0.2000   YZ=    -2.3657   ZZ=    24.6755
   Eigenvalues:    22.8428    26.2756    30.9923
 End of Minotr F.D. properties file   721 does not exist.
 End of Minotr F.D. properties file   722 does not exist.
 End of Minotr F.D. properties file   788 does not exist.

 **********************************************************************

            Population analysis using the SCF density.

 **********************************************************************

 Orbital symmetries:
       Occupied  (A) (A) (A) (A) (A) (A) (A) (A) (A) (A) (A) (A)
                 (A) (A) (A) (A) (A) (A) (A) (A) (A) (A) (A) (A)
                 (A) (A) (A) (A) (A) (A) (A) (A) (A) (A) (A) (A)
                 (A) (A) (A) (A) (A) (A) (A) (A) (A) (A) (A) (A)
                 (A) (A) (A) (A) (A) (A) (A) (A) (A) (A) (A) (A)
                 (A) (A) (A) (A) (A) (A) (A) (A) (A) (A) (A) (A)
                 (A) (A)
       Virtual   (A) (A) (A) (A) (A) (A) (A) (A) (A) (A) (A) (A)
                 (A) (A) (A) (A) (A) (A) (A) (A) (A) (A) (A) (A)
                 (A) (A) (A) (A) (A) (A) (A) (A) (A) (A) (A) (A)
                 (A) (A) (A) (A) (A) (A) (A) (A) (A) (A) (A) (A)
                 (A) (A) (A) (A) (A) (A) (A) (A) (A) (A) (A) (A)
                 (A) (A) (A) (A) (A) (A) (A) (A) (A) (A) (A) (A)
                 (A) (A) (A) (A) (A) (A) (A) (A) (A) (A) (A) (A)
                 (A) (A) (A) (A) (A) (A) (A) (A) (A) (A) (A) (A)
                 (A) (A) (A) (A) (A) (A) (A) (A) (A) (A) (A) (A)
                 (A) (A) (A) (A) (A) (A) (A) (A) (A) (A) (A) (A)
                 (A) (A) (A) (A) (A) (A) (A) (A) (A) (A) (A) (A)
                 (A) (A) (A) (A) (A) (A) (A) (A) (A) (A) (A) (A)
                 (A) (A) (A) (A) (A) (A) (A) (A) (A) (A) (A) (A)
                 (A) (A) (A) (A) (A) (A) (A) (A) (A) (A) (A) (A)
                 (A) (A) (A) (A) (A) (A) (A) (A) (A) (A) (A) (A)
                 (A) (A) (A) (A) (A) (A) (A) (A) (A) (A) (A) (A)
                 (A) (A) (A) (A) (A) (A) (A) (A) (A) (A) (A) (A)
                 (A) (A) (A) (A) (A) (A) (A) (A) (A) (A) (A) (A)
                 (A) (A) (A) (A) (A) (A) (A) (A) (A) (A) (A) (A)
                 (A) (A) (A) (A) (A) (A) (A) (A) (A) (A) (A) (A)
                 (A) (A) (A) (A) (A) (A) (A) (A) (A) (A) (A) (A)
                 (A) (A) (A) (A) (A) (A) (A) (A) (A) (A) (A) (A)
                 (A) (A) (A) (A) (A) (A) (A) (A) (A) (A) (A) (A)
                 (A) (A) (A) (A) (A) (A) (A) (A) (A) (A) (A) (A)
                 (A) (A) (A) (A) (A) (A) (A) (A) (A) (A) (A) (A)
                 (A) (A) (A) (A) (A) (A) (A) (A) (A) (A) (A) (A)
                 (A) (A) (A) (A) (A) (A) (A) (A) (A) (A) (A) (A)
                 (A) (A) (A) (A) (A) (A) (A) (A) (A) (A) (A) (A)
 The electronic state is 1-A.
 Alpha  occ. eigenvalues --  -66.27370 -19.25982 -19.20569 -19.19727 -10.37141
 Alpha  occ. eigenvalues --  -10.31803 -10.30549 -10.25311 -10.25246 -10.24407
 Alpha  occ. eigenvalues --  -10.24378 -10.23862 -10.22991 -10.22374 -10.22135
 Alpha  occ. eigenvalues --  -10.21020 -10.20778 -10.20577  -5.33102  -3.66989
 Alpha  occ. eigenvalues --   -3.66696  -3.66681  -1.13231  -1.04920  -1.04037
 Alpha  occ. eigenvalues --   -0.85951  -0.83084  -0.80987  -0.77514  -0.74024
 Alpha  occ. eigenvalues --   -0.73221  -0.71362  -0.70305  -0.70102  -0.66634
 Alpha  occ. eigenvalues --   -0.63900  -0.62562  -0.58543  -0.54737  -0.53470
 Alpha  occ. eigenvalues --   -0.53028  -0.51136  -0.49874  -0.48236  -0.47493
 Alpha  occ. eigenvalues --   -0.46767  -0.45312  -0.44715  -0.44319  -0.43430
 Alpha  occ. eigenvalues --   -0.42610  -0.42543  -0.42361  -0.42012  -0.40800
 Alpha  occ. eigenvalues --   -0.40741  -0.40345  -0.39811  -0.39647  -0.39081
 Alpha  occ. eigenvalues --   -0.38580  -0.37435  -0.36927  -0.36677  -0.36349
 Alpha  occ. eigenvalues --   -0.35655  -0.34238  -0.33428  -0.32088  -0.31086
 Alpha  occ. eigenvalues --   -0.30393  -0.29463  -0.28201  -0.27310
 Alpha virt. eigenvalues --    0.00004   0.01223   0.03802   0.05157   0.06460
 Alpha virt. eigenvalues --    0.06738   0.07386   0.08075   0.08324   0.08637
 Alpha virt. eigenvalues --    0.08966   0.09750   0.10637   0.10910   0.11067
 Alpha virt. eigenvalues --    0.12213   0.12535   0.12841   0.13770   0.14031
 Alpha virt. eigenvalues --    0.14116   0.14594   0.14738   0.15495   0.15761
 Alpha virt. eigenvalues --    0.16327   0.16684   0.17496   0.17661   0.18220
 Alpha virt. eigenvalues --    0.18943   0.19487   0.20253   0.20363   0.20960
 Alpha virt. eigenvalues --    0.21487   0.22561   0.22947   0.23810   0.24751
 Alpha virt. eigenvalues --    0.25275   0.25812   0.26819   0.27744   0.27880
 Alpha virt. eigenvalues --    0.29216   0.30170   0.31233   0.31572   0.32380
 Alpha virt. eigenvalues --    0.32911   0.33893   0.34620   0.35820   0.36224
 Alpha virt. eigenvalues --    0.36282   0.37489   0.39362   0.40738   0.41185
 Alpha virt. eigenvalues --    0.41411   0.42332   0.43061   0.43295   0.44370
 Alpha virt. eigenvalues --    0.45041   0.45693   0.46977   0.47605   0.48065
 Alpha virt. eigenvalues --    0.49396   0.50278   0.50868   0.51840   0.52251
 Alpha virt. eigenvalues --    0.52312   0.52815   0.54041   0.55388   0.56157
 Alpha virt. eigenvalues --    0.56694   0.57974   0.58497   0.58664   0.58780
 Alpha virt. eigenvalues --    0.58892   0.59308   0.60562   0.61091   0.61456
 Alpha virt. eigenvalues --    0.61676   0.62075   0.62676   0.63029   0.63125
 Alpha virt. eigenvalues --    0.63651   0.63937   0.64319   0.65011   0.65349
 Alpha virt. eigenvalues --    0.65568   0.66868   0.67505   0.67921   0.68174
 Alpha virt. eigenvalues --    0.68635   0.69023   0.69415   0.70794   0.70996
 Alpha virt. eigenvalues --    0.71963   0.72689   0.73640   0.74184   0.74355
 Alpha virt. eigenvalues --    0.75807   0.76646   0.77773   0.79195   0.80333
 Alpha virt. eigenvalues --    0.82173   0.85026   0.85241   0.87285   0.87441
 Alpha virt. eigenvalues --    0.88872   0.90955   0.92217   0.92603   0.94425
 Alpha virt. eigenvalues --    0.94950   0.95808   0.98287   0.98882   1.00495
 Alpha virt. eigenvalues --    1.01594   1.03483   1.05434   1.06211   1.09430
 Alpha virt. eigenvalues --    1.11687   1.16287   1.17836   1.18970   1.19835
 Alpha virt. eigenvalues --    1.21691   1.22543   1.24377   1.26309   1.27215
 Alpha virt. eigenvalues --    1.29006   1.30061   1.31537   1.32089   1.32632
 Alpha virt. eigenvalues --    1.35041   1.35203   1.37570   1.38354   1.41196
 Alpha virt. eigenvalues --    1.43504   1.43890   1.46244   1.47446   1.49497
 Alpha virt. eigenvalues --    1.49905   1.50897   1.52382   1.52663   1.53710
 Alpha virt. eigenvalues --    1.54703   1.55437   1.56325   1.56635   1.58111
 Alpha virt. eigenvalues --    1.58398   1.59172   1.59862   1.60016   1.60210
 Alpha virt. eigenvalues --    1.61010   1.61236   1.62546   1.62738   1.63720
 Alpha virt. eigenvalues --    1.64120   1.65896   1.67001   1.67560   1.68333
 Alpha virt. eigenvalues --    1.69593   1.71021   1.72170   1.72950   1.73572
 Alpha virt. eigenvalues --    1.74147   1.76593   1.78646   1.79342   1.80786
 Alpha virt. eigenvalues --    1.81733   1.82124   1.84772   1.85459   1.87079
 Alpha virt. eigenvalues --    1.88493   1.90633   1.93090   1.96165   1.98343
 Alpha virt. eigenvalues --    1.99909   2.02019   2.06970   2.08986   2.11185
 Alpha virt. eigenvalues --    2.14279   2.17912   2.22262   2.23562   2.25584
 Alpha virt. eigenvalues --    2.28502   2.30220   2.34122   2.35130   2.40681
 Alpha virt. eigenvalues --    2.41165   2.42213   2.42379   2.43305   2.43941
 Alpha virt. eigenvalues --    2.44551   2.45133   2.45586   2.46468   2.47455
 Alpha virt. eigenvalues --    2.48002   2.48849   2.50297   2.51020   2.52314
 Alpha virt. eigenvalues --    2.53064   2.54509   2.55797   2.58606   2.58782
 Alpha virt. eigenvalues --    2.62432   2.63186   2.66364   2.72144   2.78455
 Alpha virt. eigenvalues --    2.80688   2.86693   2.88285   2.89649   2.91153
 Alpha virt. eigenvalues --    2.92388   2.92901   2.94312   2.96948   2.98100
 Alpha virt. eigenvalues --    2.99091   3.00848   3.02393   3.03699   3.07885
 Alpha virt. eigenvalues --    3.10473   3.11159   3.12052   3.13607   3.15338
 Alpha virt. eigenvalues --    3.15938   3.17018   3.17764   3.18057   3.19252
 Alpha virt. eigenvalues --    3.21887   3.22393   3.23231   3.23340   3.24462
 Alpha virt. eigenvalues --    3.25989   3.26875   3.29569   3.30416   3.30760
 Alpha virt. eigenvalues --    3.34616   3.35692   3.36631   3.40755   3.41951
 Alpha virt. eigenvalues --    3.44762   3.51101   3.57346   3.59760   3.60784
 Alpha virt. eigenvalues --    3.76635   3.88172   3.89949   3.99190   4.02286
 Alpha virt. eigenvalues --    4.08700   4.14701   4.19768   4.22744   4.25403
 Alpha virt. eigenvalues --    4.94231   5.00080   5.01798   5.12630   5.14536
 Alpha virt. eigenvalues --    5.23913   5.52280   5.56226   5.76207   5.84475
 Alpha virt. eigenvalues --   11.52337  11.53569  11.56460  23.41039  23.48612
 Alpha virt. eigenvalues --   23.54352  23.54838  23.57027  23.62733  23.70833
 Alpha virt. eigenvalues --   23.73336  23.78223  23.79259  23.81451  23.86947
 Alpha virt. eigenvalues --   23.88026  24.29363  49.98641  50.06765  50.13279
 Alpha virt. eigenvalues --  141.27029
          Condensed to atoms (all electrons):
               1          2          3          4          5          6
     1  C    5.295440   0.246416  -0.064666   0.001172  -0.053533   0.391078
     2  C    0.246416   5.580581   0.307453  -0.090223  -0.012739  -0.045617
     3  C   -0.064666   0.307453   5.148497   0.230384  -0.016905  -0.015065
     4  C    0.001172  -0.090223   0.230384   5.900444   0.236401   0.002711
     5  C   -0.053533  -0.012739  -0.016905   0.236401   4.384314  -0.002705
     6  H    0.391078  -0.045617  -0.015065   0.002711  -0.002705   0.480423
     7  H   -0.036018   0.390676  -0.041209   0.008523   0.000318  -0.001697
     8  H   -0.000810   0.007111  -0.027330   0.357726  -0.023582   0.000235
     9  H    0.002103  -0.008054  -0.030894   0.370647  -0.022729  -0.000314
    10  O    0.199527  -0.035476   0.004924  -0.105756   0.351680  -0.035051
    11  O    0.002234  -0.000374   0.004187  -0.096880   0.668951  -0.000014
    12  C    0.320088  -0.051268   0.008704  -0.002266   0.002847  -0.047985
    13  C   -0.072128   0.006573  -0.000134   0.000068  -0.000133  -0.006938
    14  C   -0.074161   0.291697  -0.073518  -0.010015   0.001163   0.007230
    15  O    0.003858  -0.058875   0.222349  -0.023577   0.001973  -0.000051
    16  Si   0.000350   0.001114  -0.047834  -0.009798   0.001243  -0.000120
    17  C    0.000003  -0.000027  -0.000197   0.001245   0.000041   0.000001
    18  C    0.000009  -0.000271   0.000291  -0.000449   0.000042   0.000001
    19  C   -0.000002   0.000001   0.002453  -0.000124   0.000001   0.000000
    20  H    0.000000   0.000006  -0.000054   0.000038   0.000000   0.000000
    21  H    0.000006  -0.000076   0.000422   0.000963  -0.000019  -0.000003
    22  H    0.000002  -0.000074  -0.000300   0.000186   0.000003   0.000000
    23  H   -0.000001   0.000072  -0.000145  -0.000044   0.000000   0.000000
    24  H    0.000000   0.000002  -0.000066  -0.000002   0.000000   0.000000
    25  H   -0.000001  -0.000010  -0.000122  -0.000016   0.000000   0.000000
    26  H    0.000002   0.000017   0.000078   0.001257  -0.000001   0.000001
    27  H    0.000000   0.000000  -0.000039   0.000150  -0.000001   0.000000
    28  H   -0.000001   0.000081   0.000424   0.000007  -0.000030   0.000000
    29  H   -0.006890  -0.031880   0.006578  -0.000381  -0.000067  -0.000295
    30  H   -0.006440  -0.042405  -0.009841   0.005702  -0.000661   0.000691
    31  H    0.006937  -0.037608  -0.006171  -0.000216  -0.000153  -0.000137
    32  H   -0.053847   0.001935  -0.000155   0.000160  -0.000027   0.000564
    33  H   -0.039790  -0.011252  -0.000628   0.000164  -0.000156   0.007503
    34  H    0.008169  -0.000224   0.000012  -0.000002   0.000006  -0.000214
    35  H   -0.003946  -0.000407  -0.000018  -0.000007  -0.000070   0.005500
    36  H   -0.012279   0.000751  -0.000061   0.000314   0.000627   0.000317
    37  C    0.000819  -0.094536   0.314735  -0.108971   0.002053   0.005949
    38  C   -0.002104  -0.005331  -0.068577   0.008606  -0.000170  -0.001064
    39  C    0.000038   0.000219  -0.001218  -0.000154   0.000007   0.000102
    40  H    0.001337  -0.004307  -0.040999  -0.002778   0.002689  -0.002810
    41  H   -0.000421   0.008077  -0.032953  -0.007413  -0.000069   0.000479
    42  H   -0.000918   0.004325  -0.004910  -0.000342  -0.000012   0.001899
    43  H    0.000003   0.000005  -0.000256   0.000015   0.000000  -0.000006
    44  H   -0.000010   0.000035   0.000179  -0.000097   0.000000   0.000004
               7          8          9         10         11         12
     1  C   -0.036018  -0.000810   0.002103   0.199527   0.002234   0.320088
     2  C    0.390676   0.007111  -0.008054  -0.035476  -0.000374  -0.051268
     3  C   -0.041209  -0.027330  -0.030894   0.004924   0.004187   0.008704
     4  C    0.008523   0.357726   0.370647  -0.105756  -0.096880  -0.002266
     5  C    0.000318  -0.023582  -0.022729   0.351680   0.668951   0.002847
     6  H   -0.001697   0.000235  -0.000314  -0.035051  -0.000014  -0.047985
     7  H    0.455983  -0.000049  -0.000178   0.003275   0.000020  -0.004012
     8  H   -0.000049   0.417472  -0.015413   0.004537   0.011189   0.000040
     9  H   -0.000178  -0.015413   0.398331   0.000256   0.001966   0.000095
    10  O    0.003275   0.004537   0.000256   8.047868  -0.076960  -0.052783
    11  O    0.000020   0.011189   0.001966  -0.076960   7.867091  -0.000169
    12  C   -0.004012   0.000040   0.000095  -0.052783  -0.000169   5.310038
    13  C   -0.000301  -0.000002   0.000011  -0.004286  -0.000015   0.318287
    14  C   -0.033133   0.000068   0.000351  -0.000787  -0.000023  -0.013683
    15  O    0.003001  -0.001410  -0.002159  -0.000015  -0.000018  -0.000064
    16  Si  -0.000038  -0.001094  -0.004997  -0.000314  -0.000778   0.000013
    17  C    0.000032  -0.000076  -0.001582   0.000000   0.000005   0.000000
    18  C    0.000004   0.002028   0.000136   0.000000   0.000003   0.000000
    19  C   -0.000035  -0.000009  -0.000085   0.000000   0.000000   0.000000
    20  H    0.000000   0.000011   0.000004   0.000000   0.000000   0.000000
    21  H   -0.000001   0.002556  -0.000097  -0.000001  -0.000029   0.000000
    22  H    0.000002  -0.000139   0.000008   0.000000   0.000000   0.000000
    23  H   -0.000014  -0.000006  -0.000017   0.000000   0.000000   0.000000
    24  H    0.000000  -0.000002   0.000002   0.000000   0.000000   0.000000
    25  H   -0.000001  -0.000005  -0.000008   0.000000   0.000000   0.000000
    26  H    0.000006   0.000371   0.000492   0.000002   0.000007   0.000000
    27  H    0.000000   0.000002   0.000304   0.000000   0.000000   0.000000
    28  H    0.000007   0.000029  -0.000130   0.000000   0.000002   0.000000
    29  H   -0.006604   0.000013   0.000215   0.000051   0.000000   0.003085
    30  H    0.006565   0.000421  -0.001042   0.007305  -0.000358  -0.003879
    31  H   -0.001955  -0.000152   0.000485  -0.000153   0.000004   0.000109
    32  H    0.002082  -0.000003  -0.000023   0.003938   0.000008   0.393000
    33  H    0.000356   0.000008  -0.000095   0.002466  -0.000083   0.388176
    34  H   -0.000014   0.000000   0.000000  -0.000212   0.000000  -0.037623
    35  H    0.000040   0.000000   0.000000  -0.000326  -0.000002  -0.041018
    36  H   -0.000051  -0.000008  -0.000011   0.012392   0.000192  -0.038122
    37  C   -0.010572  -0.006084   0.005904  -0.004055   0.000004  -0.000337
    38  C    0.006184   0.000114  -0.000170   0.000310  -0.000002   0.000030
    39  C    0.000786   0.000007   0.000004   0.000001   0.000000   0.000002
    40  H    0.000747  -0.000235   0.000182   0.001582  -0.000132   0.000850
    41  H   -0.000221   0.002989  -0.000136  -0.000176  -0.000023   0.000002
    42  H    0.001058  -0.000006   0.000011   0.000006   0.000000   0.000065
    43  H    0.000041   0.000002  -0.000001   0.000000   0.000000   0.000000
    44  H   -0.000029  -0.000018   0.000004   0.000000   0.000000   0.000000
              13         14         15         16         17         18
     1  C   -0.072128  -0.074161   0.003858   0.000350   0.000003   0.000009
     2  C    0.006573   0.291697  -0.058875   0.001114  -0.000027  -0.000271
     3  C   -0.000134  -0.073518   0.222349  -0.047834  -0.000197   0.000291
     4  C    0.000068  -0.010015  -0.023577  -0.009798   0.001245  -0.000449
     5  C   -0.000133   0.001163   0.001973   0.001243   0.000041   0.000042
     6  H   -0.006938   0.007230  -0.000051  -0.000120   0.000001   0.000001
     7  H   -0.000301  -0.033133   0.003001  -0.000038   0.000032   0.000004
     8  H   -0.000002   0.000068  -0.001410  -0.001094  -0.000076   0.002028
     9  H    0.000011   0.000351  -0.002159  -0.004997  -0.001582   0.000136
    10  O   -0.004286  -0.000787  -0.000015  -0.000314   0.000000   0.000000
    11  O   -0.000015  -0.000023  -0.000018  -0.000778   0.000005   0.000003
    12  C    0.318287  -0.013683  -0.000064   0.000013   0.000000   0.000000
    13  C    5.338414  -0.000097   0.000001   0.000001   0.000000   0.000000
    14  C   -0.000097   5.425103  -0.006204  -0.000287  -0.000004  -0.000002
    15  O    0.000001  -0.006204   8.277075   0.354833  -0.024546  -0.022694
    16  Si   0.000001  -0.000287   0.354833  11.510842   0.310812   0.310386
    17  C    0.000000  -0.000004  -0.024546   0.310812   5.778099  -0.055323
    18  C    0.000000  -0.000002  -0.022694   0.310386  -0.055323   5.798277
    19  C    0.000000  -0.000051  -0.030390   0.337354  -0.047255  -0.043339
    20  H    0.000000   0.000000   0.000828  -0.010467   0.000325   0.363071
    21  H    0.000000   0.000002  -0.001306  -0.026315  -0.000807   0.368051
    22  H    0.000000   0.000002  -0.001923  -0.025416   0.002094   0.366874
    23  H    0.000000   0.000021  -0.001653  -0.024040  -0.000548   0.002121
    24  H    0.000000  -0.000002   0.001199  -0.015258   0.000885   0.000131
    25  H    0.000000   0.000000  -0.001787  -0.023408   0.002118  -0.000894
    26  H    0.000000   0.000003  -0.001557  -0.027935   0.371989  -0.000856
    27  H    0.000000   0.000002   0.000889  -0.010912   0.361955   0.000635
    28  H    0.000000   0.000285  -0.002498  -0.027119   0.371371   0.002058
    29  H    0.000207   0.390177   0.000132   0.000178  -0.000004   0.000000
    30  H   -0.000220   0.388835   0.000208  -0.000696   0.000134   0.000004
    31  H    0.000014   0.384897   0.008043   0.001894   0.000400   0.000055
    32  H   -0.037235  -0.001233  -0.000011  -0.000005   0.000000   0.000000
    33  H   -0.039754   0.004623  -0.000001  -0.000006   0.000000   0.000000
    34  H    0.392823   0.000005   0.000000   0.000000   0.000000   0.000000
    35  H    0.385389   0.000014   0.000000   0.000000   0.000000   0.000000
    36  H    0.384021  -0.000079   0.000000   0.000001   0.000000   0.000000
    37  C   -0.000048   0.008505  -0.062300  -0.013999  -0.000380  -0.000142
    38  C    0.000007  -0.000276   0.003588   0.001347   0.000027   0.000065
    39  C    0.000000  -0.000010   0.000313   0.001091  -0.000002  -0.000994
    40  H    0.000005  -0.000465   0.004307   0.002256   0.000024  -0.000065
    41  H   -0.000002  -0.000132  -0.003473  -0.003811  -0.000184  -0.003048
    42  H   -0.000014   0.000308   0.000109  -0.000193   0.000000  -0.000013
    43  H    0.000000  -0.000002   0.000045   0.000196   0.000000   0.000025
    44  H    0.000000   0.000002   0.000022  -0.001016   0.000006   0.000795
              19         20         21         22         23         24
     1  C   -0.000002   0.000000   0.000006   0.000002  -0.000001   0.000000
     2  C    0.000001   0.000006  -0.000076  -0.000074   0.000072   0.000002
     3  C    0.002453  -0.000054   0.000422  -0.000300  -0.000145  -0.000066
     4  C   -0.000124   0.000038   0.000963   0.000186  -0.000044  -0.000002
     5  C    0.000001   0.000000  -0.000019   0.000003   0.000000   0.000000
     6  H    0.000000   0.000000  -0.000003   0.000000   0.000000   0.000000
     7  H   -0.000035   0.000000  -0.000001   0.000002  -0.000014   0.000000
     8  H   -0.000009   0.000011   0.002556  -0.000139  -0.000006  -0.000002
     9  H   -0.000085   0.000004  -0.000097   0.000008  -0.000017   0.000002
    10  O    0.000000   0.000000  -0.000001   0.000000   0.000000   0.000000
    11  O    0.000000   0.000000  -0.000029   0.000000   0.000000   0.000000
    12  C    0.000000   0.000000   0.000000   0.000000   0.000000   0.000000
    13  C    0.000000   0.000000   0.000000   0.000000   0.000000   0.000000
    14  C   -0.000051   0.000000   0.000002   0.000002   0.000021  -0.000002
    15  O   -0.030390   0.000828  -0.001306  -0.001923  -0.001653   0.001199
    16  Si   0.337354  -0.010467  -0.026315  -0.025416  -0.024040  -0.015258
    17  C   -0.047255   0.000325  -0.000807   0.002094  -0.000548   0.000885
    18  C   -0.043339   0.363071   0.368051   0.366874   0.002121   0.000131
    19  C    5.720371  -0.000449   0.002390  -0.000597   0.370122   0.360686
    20  H   -0.000449   0.445049  -0.021218  -0.020952  -0.000090   0.000575
    21  H    0.002390  -0.021218   0.449273  -0.019754  -0.000083  -0.000058
    22  H   -0.000597  -0.020952  -0.019754   0.443301  -0.000049  -0.000074
    23  H    0.370122  -0.000090  -0.000083  -0.000049   0.454050  -0.021868
    24  H    0.360686   0.000575  -0.000058  -0.000074  -0.021868   0.463189
    25  H    0.368946  -0.000021  -0.000062   0.001177  -0.019400  -0.021543
    26  H    0.002196   0.000061   0.001043  -0.000040  -0.000074  -0.000058
    27  H   -0.000628   0.000443  -0.000011  -0.000054  -0.000088   0.000719
    28  H   -0.000454  -0.000041  -0.000065  -0.000087   0.001086  -0.000001
    29  H   -0.000001   0.000000   0.000000   0.000000   0.000000   0.000000
    30  H    0.000003   0.000000  -0.000002   0.000000  -0.000006   0.000000
    31  H    0.000052   0.000000   0.000006   0.000001   0.000276  -0.000007
    32  H    0.000000   0.000000   0.000000   0.000000   0.000000   0.000000
    33  H    0.000000   0.000000   0.000000   0.000000   0.000000   0.000000
    34  H    0.000000   0.000000   0.000000   0.000000   0.000000   0.000000
    35  H    0.000000   0.000000   0.000000   0.000000   0.000000   0.000000
    36  H    0.000000   0.000000   0.000000   0.000000   0.000000   0.000000
    37  C   -0.000085   0.000202  -0.000263   0.000437  -0.000021   0.000002
    38  C   -0.000232  -0.000018   0.000154   0.000113  -0.000016  -0.000001
    39  C   -0.000171   0.000015  -0.000010   0.001577  -0.000008  -0.000011
    40  H   -0.000003  -0.000004  -0.000086  -0.000011   0.000001   0.000000
    41  H   -0.000029   0.000465   0.000593  -0.000786  -0.000002   0.000003
    42  H    0.000001   0.000001   0.000001   0.000009   0.000000   0.000000
    43  H    0.000000  -0.000001  -0.000002  -0.000024   0.000000   0.000000
    44  H    0.000042   0.000009  -0.000051   0.003966  -0.000005   0.000000
              25         26         27         28         29         30
     1  C   -0.000001   0.000002   0.000000  -0.000001  -0.006890  -0.006440
     2  C   -0.000010   0.000017   0.000000   0.000081  -0.031880  -0.042405
     3  C   -0.000122   0.000078  -0.000039   0.000424   0.006578  -0.009841
     4  C   -0.000016   0.001257   0.000150   0.000007  -0.000381   0.005702
     5  C    0.000000  -0.000001  -0.000001  -0.000030  -0.000067  -0.000661
     6  H    0.000000   0.000001   0.000000   0.000000  -0.000295   0.000691
     7  H   -0.000001   0.000006   0.000000   0.000007  -0.006604   0.006565
     8  H   -0.000005   0.000371   0.000002   0.000029   0.000013   0.000421
     9  H   -0.000008   0.000492   0.000304  -0.000130   0.000215  -0.001042
    10  O    0.000000   0.000002   0.000000   0.000000   0.000051   0.007305
    11  O    0.000000   0.000007   0.000000   0.000002   0.000000  -0.000358
    12  C    0.000000   0.000000   0.000000   0.000000   0.003085  -0.003879
    13  C    0.000000   0.000000   0.000000   0.000000   0.000207  -0.000220
    14  C    0.000000   0.000003   0.000002   0.000285   0.390177   0.388835
    15  O   -0.001787  -0.001557   0.000889  -0.002498   0.000132   0.000208
    16  Si  -0.023408  -0.027935  -0.010912  -0.027119   0.000178  -0.000696
    17  C    0.002118   0.371989   0.361955   0.371371  -0.000004   0.000134
    18  C   -0.000894  -0.000856   0.000635   0.002058   0.000000   0.000004
    19  C    0.368946   0.002196  -0.000628  -0.000454  -0.000001   0.000003
    20  H   -0.000021   0.000061   0.000443  -0.000041   0.000000   0.000000
    21  H   -0.000062   0.001043  -0.000011  -0.000065   0.000000  -0.000002
    22  H    0.001177  -0.000040  -0.000054  -0.000087   0.000000   0.000000
    23  H   -0.019400  -0.000074  -0.000088   0.001086   0.000000  -0.000006
    24  H   -0.021543  -0.000058   0.000719  -0.000001   0.000000   0.000000
    25  H    0.450838  -0.000091  -0.000031  -0.000072   0.000001  -0.000001
    26  H   -0.000091   0.452719  -0.022887  -0.019735  -0.000003   0.000014
    27  H   -0.000031  -0.022887   0.451634  -0.021251   0.000000  -0.000005
    28  H   -0.000072  -0.019735  -0.021251   0.451156  -0.000009   0.000061
    29  H    0.000001  -0.000003   0.000000  -0.000009   0.454794  -0.027145
    30  H   -0.000001   0.000014  -0.000005   0.000061  -0.027145   0.472892
    31  H   -0.000033  -0.000026   0.000012   0.000880  -0.024047  -0.023590
    32  H    0.000000   0.000000   0.000000   0.000000   0.000527   0.000427
    33  H    0.000000   0.000000   0.000000   0.000000  -0.002107   0.001870
    34  H    0.000000   0.000000   0.000000   0.000000   0.000008  -0.000006
    35  H    0.000000   0.000000   0.000000   0.000000  -0.000021   0.000002
    36  H    0.000000   0.000000   0.000000   0.000000  -0.000010   0.000015
    37  C    0.000069  -0.000058   0.000005  -0.000058  -0.000142  -0.000040
    38  C    0.000422   0.000002   0.000000   0.000003  -0.000017  -0.000042
    39  C    0.000921   0.000000   0.000000   0.000000   0.000000   0.000000
    40  H    0.000003   0.000010   0.000000   0.000005  -0.000014  -0.000046
    41  H   -0.000009  -0.000047   0.000002  -0.000004   0.000015   0.000011
    42  H   -0.000006   0.000000   0.000000   0.000000   0.000022  -0.000003
    43  H    0.000017   0.000000   0.000000   0.000000   0.000000   0.000000
    44  H    0.000017   0.000000   0.000000  -0.000001   0.000000   0.000000
              31         32         33         34         35         36
     1  C    0.006937  -0.053847  -0.039790   0.008169  -0.003946  -0.012279
     2  C   -0.037608   0.001935  -0.011252  -0.000224  -0.000407   0.000751
     3  C   -0.006171  -0.000155  -0.000628   0.000012  -0.000018  -0.000061
     4  C   -0.000216   0.000160   0.000164  -0.000002  -0.000007   0.000314
     5  C   -0.000153  -0.000027  -0.000156   0.000006  -0.000070   0.000627
     6  H   -0.000137   0.000564   0.007503  -0.000214   0.005500   0.000317
     7  H   -0.001955   0.002082   0.000356  -0.000014   0.000040  -0.000051
     8  H   -0.000152  -0.000003   0.000008   0.000000   0.000000  -0.000008
     9  H    0.000485  -0.000023  -0.000095   0.000000   0.000000  -0.000011
    10  O   -0.000153   0.003938   0.002466  -0.000212  -0.000326   0.012392
    11  O    0.000004   0.000008  -0.000083   0.000000  -0.000002   0.000192
    12  C    0.000109   0.393000   0.388176  -0.037623  -0.041018  -0.038122
    13  C    0.000014  -0.037235  -0.039754   0.392823   0.385389   0.384021
    14  C    0.384897  -0.001233   0.004623   0.000005   0.000014  -0.000079
    15  O    0.008043  -0.000011  -0.000001   0.000000   0.000000   0.000000
    16  Si   0.001894  -0.000005  -0.000006   0.000000   0.000000   0.000001
    17  C    0.000400   0.000000   0.000000   0.000000   0.000000   0.000000
    18  C    0.000055   0.000000   0.000000   0.000000   0.000000   0.000000
    19  C    0.000052   0.000000   0.000000   0.000000   0.000000   0.000000
    20  H    0.000000   0.000000   0.000000   0.000000   0.000000   0.000000
    21  H    0.000006   0.000000   0.000000   0.000000   0.000000   0.000000
    22  H    0.000001   0.000000   0.000000   0.000000   0.000000   0.000000
    23  H    0.000276   0.000000   0.000000   0.000000   0.000000   0.000000
    24  H   -0.000007   0.000000   0.000000   0.000000   0.000000   0.000000
    25  H   -0.000033   0.000000   0.000000   0.000000   0.000000   0.000000
    26  H   -0.000026   0.000000   0.000000   0.000000   0.000000   0.000000
    27  H    0.000012   0.000000   0.000000   0.000000   0.000000   0.000000
    28  H    0.000880   0.000000   0.000000   0.000000   0.000000   0.000000
    29  H   -0.024047   0.000527  -0.002107   0.000008  -0.000021  -0.000010
    30  H   -0.023590   0.000427   0.001870  -0.000006   0.000002   0.000015
    31  H    0.423888  -0.000190   0.000285  -0.000002   0.000003   0.000000
    32  H   -0.000190   0.481766  -0.025048  -0.004623  -0.004951   0.006892
    33  H    0.000285  -0.025048   0.470825  -0.004512   0.006767  -0.003824
    34  H   -0.000002  -0.004623  -0.004512   0.468490  -0.027148  -0.025478
    35  H    0.000003  -0.004951   0.006767  -0.027148   0.485100  -0.027713
    36  H    0.000000   0.006892  -0.003824  -0.025478  -0.027713   0.462282
    37  C    0.000358   0.000006  -0.000001   0.000000  -0.000022   0.000004
    38  C    0.000052  -0.000014  -0.000009   0.000000   0.000000  -0.000002
    39  C   -0.000010   0.000000   0.000000   0.000000   0.000000   0.000000
    40  H   -0.000030  -0.000038  -0.000036   0.000002  -0.000016  -0.000004
    41  H   -0.000035   0.000001   0.000003   0.000000   0.000000   0.000000
    42  H    0.000000   0.000068  -0.000002   0.000000  -0.000001   0.000000
    43  H    0.000000   0.000000   0.000000   0.000000   0.000000   0.000000
    44  H    0.000000   0.000000   0.000000   0.000000   0.000000   0.000000
              37         38         39         40         41         42
     1  C    0.000819  -0.002104   0.000038   0.001337  -0.000421  -0.000918
     2  C   -0.094536  -0.005331   0.000219  -0.004307   0.008077   0.004325
     3  C    0.314735  -0.068577  -0.001218  -0.040999  -0.032953  -0.004910
     4  C   -0.108971   0.008606  -0.000154  -0.002778  -0.007413  -0.000342
     5  C    0.002053  -0.000170   0.000007   0.002689  -0.000069  -0.000012
     6  H    0.005949  -0.001064   0.000102  -0.002810   0.000479   0.001899
     7  H   -0.010572   0.006184   0.000786   0.000747  -0.000221   0.001058
     8  H   -0.006084   0.000114   0.000007  -0.000235   0.002989  -0.000006
     9  H    0.005904  -0.000170   0.000004   0.000182  -0.000136   0.000011
    10  O   -0.004055   0.000310   0.000001   0.001582  -0.000176   0.000006
    11  O    0.000004  -0.000002   0.000000  -0.000132  -0.000023   0.000000
    12  C   -0.000337   0.000030   0.000002   0.000850   0.000002   0.000065
    13  C   -0.000048   0.000007   0.000000   0.000005  -0.000002  -0.000014
    14  C    0.008505  -0.000276  -0.000010  -0.000465  -0.000132   0.000308
    15  O   -0.062300   0.003588   0.000313   0.004307  -0.003473   0.000109
    16  Si  -0.013999   0.001347   0.001091   0.002256  -0.003811  -0.000193
    17  C   -0.000380   0.000027  -0.000002   0.000024  -0.000184   0.000000
    18  C   -0.000142   0.000065  -0.000994  -0.000065  -0.003048  -0.000013
    19  C   -0.000085  -0.000232  -0.000171  -0.000003  -0.000029   0.000001
    20  H    0.000202  -0.000018   0.000015  -0.000004   0.000465   0.000001
    21  H   -0.000263   0.000154  -0.000010  -0.000086   0.000593   0.000001
    22  H    0.000437   0.000113   0.001577  -0.000011  -0.000786   0.000009
    23  H   -0.000021  -0.000016  -0.000008   0.000001  -0.000002   0.000000
    24  H    0.000002  -0.000001  -0.000011   0.000000   0.000003   0.000000
    25  H    0.000069   0.000422   0.000921   0.000003  -0.000009  -0.000006
    26  H   -0.000058   0.000002   0.000000   0.000010  -0.000047   0.000000
    27  H    0.000005   0.000000   0.000000   0.000000   0.000002   0.000000
    28  H   -0.000058   0.000003   0.000000   0.000005  -0.000004   0.000000
    29  H   -0.000142  -0.000017   0.000000  -0.000014   0.000015   0.000022
    30  H   -0.000040  -0.000042   0.000000  -0.000046   0.000011  -0.000003
    31  H    0.000358   0.000052  -0.000010  -0.000030  -0.000035   0.000000
    32  H    0.000006  -0.000014   0.000000  -0.000038   0.000001   0.000068
    33  H   -0.000001  -0.000009   0.000000  -0.000036   0.000003  -0.000002
    34  H    0.000000   0.000000   0.000000   0.000002   0.000000   0.000000
    35  H   -0.000022   0.000000   0.000000  -0.000016   0.000000  -0.000001
    36  H    0.000004  -0.000002   0.000000  -0.000004   0.000000   0.000000
    37  C    5.495430   0.320231  -0.048659   0.381806   0.396684  -0.049746
    38  C    0.320231   5.009653   0.642412  -0.036092  -0.046195   0.392674
    39  C   -0.048659   0.642412   5.129274  -0.001600   0.000256  -0.037088
    40  H    0.381806  -0.036092  -0.001600   0.466378  -0.025781  -0.001869
    41  H    0.396684  -0.046195   0.000256  -0.025781   0.443331   0.004954
    42  H   -0.049746   0.392674  -0.037088  -0.001869   0.004954   0.476844
    43  H    0.006407  -0.037040   0.392560  -0.000291   0.000093  -0.008613
    44  H   -0.009685  -0.041625   0.385398   0.000051   0.004517   0.006303
              43         44
     1  C    0.000003  -0.000010
     2  C    0.000005   0.000035
     3  C   -0.000256   0.000179
     4  C    0.000015  -0.000097
     5  C    0.000000   0.000000
     6  H   -0.000006   0.000004
     7  H    0.000041  -0.000029
     8  H    0.000002  -0.000018
     9  H   -0.000001   0.000004
    10  O    0.000000   0.000000
    11  O    0.000000   0.000000
    12  C    0.000000   0.000000
    13  C    0.000000   0.000000
    14  C   -0.000002   0.000002
    15  O    0.000045   0.000022
    16  Si   0.000196  -0.001016
    17  C    0.000000   0.000006
    18  C    0.000025   0.000795
    19  C    0.000000   0.000042
    20  H   -0.000001   0.000009
    21  H   -0.000002  -0.000051
    22  H   -0.000024   0.003966
    23  H    0.000000  -0.000005
    24  H    0.000000   0.000000
    25  H    0.000017   0.000017
    26  H    0.000000   0.000000
    27  H    0.000000   0.000000
    28  H    0.000000  -0.000001
    29  H    0.000000   0.000000
    30  H    0.000000   0.000000
    31  H    0.000000   0.000000
    32  H    0.000000   0.000000
    33  H    0.000000   0.000000
    34  H    0.000000   0.000000
    35  H    0.000000   0.000000
    36  H    0.000000   0.000000
    37  C    0.006407  -0.009685
    38  C   -0.037040  -0.041625
    39  C    0.392560   0.385398
    40  H   -0.000291   0.000051
    41  H    0.000093   0.004517
    42  H   -0.008613   0.006303
    43  H    0.454704  -0.034215
    44  H   -0.034215   0.459149
 Mulliken charges:
               1
     1  C   -0.051626
     2  C   -0.316113
     3  C    0.232594
     4  C   -0.667373
     5  C    0.479401
     6  H    0.255403
     7  H    0.256426
     8  H    0.269502
     9  H    0.306626
    10  O   -0.323770
    11  O   -0.380004
    12  C   -0.452221
    13  C   -0.664511
    14  C   -0.689129
    15  O   -0.636260
    16  Si   1.441944
    17  C   -1.070625
    18  C   -1.086973
    19  C   -1.040678
    20  H    0.242213
    21  H    0.244860
    22  H    0.250528
    23  H    0.240428
    24  H    0.231558
    25  H    0.242991
    26  H    0.243101
    27  H    0.239154
    28  H    0.244101
    29  H    0.243633
    30  H    0.231269
    31  H    0.265864
    32  H    0.236028
    33  H    0.244259
    34  H    0.230543
    35  H    0.222850
    36  H    0.239834
    37  C   -0.529406
    38  C   -0.146997
    39  C   -0.465050
    40  H    0.255477
    41  H    0.262478
    42  H    0.215082
    43  H    0.226339
    44  H    0.226251
 Sum of Mulliken charges =   0.00000
 Mulliken charges with hydrogens summed into heavy atoms:
               1
     1  C    0.203777
     2  C   -0.059687
     3  C    0.232594
     4  C   -0.091245
     5  C    0.479401
    10  O   -0.323770
    11  O   -0.380004
    12  C    0.028065
    13  C    0.028717
    14  C    0.051637
    15  O   -0.636260
    16  Si   1.441944
    17  C   -0.344270
    18  C   -0.349373
    19  C   -0.325701
    37  C   -0.011451
    38  C    0.068085
    39  C   -0.012460
 Electronic spatial extent (au):  <R**2>=           5663.0746
 Charge=              0.0000 electrons
 Dipole moment (field-independent basis, Debye):
    X=              2.2484    Y=              2.9505    Z=              2.7304  Tot=              4.6061
 Quadrupole moment (field-independent basis, Debye-Ang):
   XX=           -118.0142   YY=           -123.9430   ZZ=           -124.8342
   XY=            -11.4748   XZ=            -12.3509   YZ=             -7.4854
 Traceless Quadrupole moment (field-independent basis, Debye-Ang):
   XX=              4.2496   YY=             -1.6792   ZZ=             -2.5704
   XY=            -11.4748   XZ=            -12.3509   YZ=             -7.4854
 Octapole moment (field-independent basis, Debye-Ang**2):
  XXX=             17.0562  YYY=             21.3320  ZZZ=             15.6190  XYY=             14.4257
  XXY=             16.3652  XXZ=             20.6909  XZZ=              4.8734  YZZ=             10.6782
  YYZ=             22.7491  XYZ=             12.6171
 Hexadecapole moment (field-independent basis, Debye-Ang**3):
 XXXX=          -4787.3176 YYYY=          -1695.5541 ZZZZ=          -1148.2424 XXXY=            -74.4578
 XXXZ=            -78.5472 YYYX=             16.2516 YYYZ=             -2.9939 ZZZX=            -22.9844
 ZZZY=            -15.8620 XXYY=          -1122.9843 XXZZ=          -1033.7992 YYZZ=           -531.3232
 XXYZ=            -42.7847 YYXZ=            -53.3480 ZZXY=            -39.7618
 N-N= 1.621615265334D+03 E-N=-5.738384118762D+03  KE= 1.060530199353D+03
 1\1\GINC-CPU-E-1146\SP\RmPW1PW91\6-311G(d)\C14H26O3Si1\KE291\06-Feb-20
 19\0\\# mPW1PW91/6-311g(d) geom=checkpoint nmr=giao scrf=(solvent=chlo
 roform)\\P_ng_4ginp007\\0,1\C,0,0.2342208358,1.8279858831,-0.438698428
 8\C,0,-0.0819764176,1.2103893058,0.9315334397\C,0,-1.2468515492,2.0002
 817165,1.5940093763\C,0,-0.7752224516,3.4552103059,1.7652529923\C,0,-0
 .1012575525,4.0776784255,0.5525022206\H,0,-0.638147847,1.7153219105,-1
 .0930151641\H,0,-0.4451382809,0.1947319544,0.7388764208\H,0,-1.5934407
 737,4.1196627492,2.0549921898\H,0,-0.0333735933,3.4980651032,2.5701364
 968\O,0,0.4822599722,3.2689479105,-0.3583560244\O,0,-0.0009075456,5.27
 90306713,0.4161010799\C,0,1.4413139845,1.2301153253,-1.1597236815\C,0,
 1.5967248922,1.7318169734,-2.5985888699\C,0,1.1534566599,1.0976856128,
 1.8410166714\O,0,-1.5113810324,1.3832596377,2.8466452219\Si,0,-2.20977
 38053,1.8420933086,4.3063558721\C,0,-1.0169521565,2.8972646316,5.32108
 65211\C,0,-3.8312569208,2.7843064039,4.0854140663\C,0,-2.5263986333,0.
 2090569942,5.1827382151\H,0,-4.2564380496,3.0132304397,5.0698915114\H,
 0,-3.698415342,3.7366550293,3.5612079114\H,0,-4.5718667345,2.194835662
 5,3.5355843567\H,0,-1.5967988485,-0.3521778322,5.3233868586\H,0,-2.969
 4803771,0.3759318575,6.1708955759\H,0,-3.2134213975,-0.4191373957,4.60
 66933906\H,0,-0.8567621466,3.8878257384,4.8830416383\H,0,-1.4164981368
 ,3.047746214,6.3310039709\H,0,-0.0406354276,2.4109816755,5.4215036837\
 H,0,1.8513806365,0.3522233992,1.4520538354\H,0,1.6977985735,2.04374532
 12,1.9227626535\H,0,0.8528349125,0.7861944919,2.8422150698\H,0,1.32176
 27589,0.1394573841,-1.1553254748\H,0,2.3474496548,1.4523930014,-0.5867
 771121\H,0,2.4707823012,1.2772283249,-3.074320233\H,0,0.7180259587,1.4
 801279452,-3.2029786775\H,0,1.7227430038,2.8173737473,-2.6234273544\C,
 0,-2.5543568116,1.9853426705,0.7465235672\C,0,-3.1084279901,0.62593828
 62,0.4188004831\C,0,-4.3162250573,0.1921046041,0.7822668882\H,0,-2.380
 7841354,2.5407060643,-0.1854882542\H,0,-3.3050563572,2.557779332,1.300
 2207622\H,0,-2.4806560243,-0.0309908934,-0.1824412527\H,0,-4.677501564
 2,-0.7923736235,0.4998488654\H,0,-4.9926191843,0.8099917319,1.36815672
 09\\Version=ES64L-G09RevD.01\State=1-A\HF=-1064.3826235\RMSD=8.349e-09
 \Dipole=-0.4925319,-1.6556101,0.548036\Quadrupole=4.5372432,-9.4536665
 ,4.9164233,-6.2518413,-0.7136294,9.4345646\PG=C01 [X(C14H26O3Si1)]\\@


 OLD AGE AND TREACHERY WILL ALWAYS PREVAIL OVER YOUTH AND SKILL.
 Job cpu time:       0 days  0 hours 18 minutes 46.3 seconds.
 File lengths (MBytes):  RWF=    236 Int=      0 D2E=      0 Chk=     18 Scr=      1
 Normal termination of Gaussian 09 at Wed Feb  6 11:20:43 2019.
