 Entering Gaussian System, Link 0=/usr/local/Cluster-Apps/gaussian/g09/g09
 Initial command:
 /usr/local/Cluster-Apps/gaussian/g09/l1.exe "/home/ke291/rds/hpc-work/06Feb0927IP1/Gau-320024.inp" -scrdir="/home/ke291/rds/hpc-work/06Feb0927IP1/"
 Entering Link 1 = /usr/local/Cluster-Apps/gaussian/g09/l1.exe PID=    320029.
  
 Copyright (c) 1988,1990,1992,1993,1995,1998,2003,2009,2013,
            Gaussian, Inc.  All Rights Reserved.
  
 This is part of the Gaussian(R) 09 program.  It is based on
 the Gaussian(R) 03 system (copyright 2003, Gaussian, Inc.),
 the Gaussian(R) 98 system (copyright 1998, Gaussian, Inc.),
 the Gaussian(R) 94 system (copyright 1995, Gaussian, Inc.),
 the Gaussian 92(TM) system (copyright 1992, Gaussian, Inc.),
 the Gaussian 90(TM) system (copyright 1990, Gaussian, Inc.),
 the Gaussian 88(TM) system (copyright 1988, Gaussian, Inc.),
 the Gaussian 86(TM) system (copyright 1986, Carnegie Mellon
 University), and the Gaussian 82(TM) system (copyright 1983,
 Carnegie Mellon University). Gaussian is a federally registered
 trademark of Gaussian, Inc.
  
 This software contains proprietary and confidential information,
 including trade secrets, belonging to Gaussian, Inc.
  
 This software is provided under written license and may be
 used, copied, transmitted, or stored only in accord with that
 written license.
  
 The following legend is applicable only to US Government
 contracts under FAR:
  
                    RESTRICTED RIGHTS LEGEND
  
 Use, reproduction and disclosure by the US Government is
 subject to restrictions as set forth in subparagraphs (a)
 and (c) of the Commercial Computer Software - Restricted
 Rights clause in FAR 52.227-19.
  
 Gaussian, Inc.
 340 Quinnipiac St., Bldg. 40, Wallingford CT 06492
  
  
 ---------------------------------------------------------------
 Warning -- This program may not be used in any manner that
 competes with the business of Gaussian, Inc. or will provide
 assistance to any competitor of Gaussian, Inc.  The licensee
 of this program is prohibited from giving any competitor of
 Gaussian, Inc. access to this program.  By using this program,
 the user acknowledges that Gaussian, Inc. is engaged in the
 business of creating and licensing software in the field of
 computational chemistry and represents and warrants to the
 licensee that it is not a competitor of Gaussian, Inc. and that
 it will not use this program in any manner prohibited above.
 ---------------------------------------------------------------
  

 Cite this work as:
 Gaussian 09, Revision D.01,
 M. J. Frisch, G. W. Trucks, H. B. Schlegel, G. E. Scuseria, 
 M. A. Robb, J. R. Cheeseman, G. Scalmani, V. Barone, B. Mennucci, 
 G. A. Petersson, H. Nakatsuji, M. Caricato, X. Li, H. P. Hratchian, 
 A. F. Izmaylov, J. Bloino, G. Zheng, J. L. Sonnenberg, M. Hada, 
 M. Ehara, K. Toyota, R. Fukuda, J. Hasegawa, M. Ishida, T. Nakajima, 
 Y. Honda, O. Kitao, H. Nakai, T. Vreven, J. A. Montgomery, Jr., 
 J. E. Peralta, F. Ogliaro, M. Bearpark, J. J. Heyd, E. Brothers, 
 K. N. Kudin, V. N. Staroverov, T. Keith, R. Kobayashi, J. Normand, 
 K. Raghavachari, A. Rendell, J. C. Burant, S. S. Iyengar, J. Tomasi, 
 M. Cossi, N. Rega, J. M. Millam, M. Klene, J. E. Knox, J. B. Cross, 
 V. Bakken, C. Adamo, J. Jaramillo, R. Gomperts, R. E. Stratmann, 
 O. Yazyev, A. J. Austin, R. Cammi, C. Pomelli, J. W. Ochterski, 
 R. L. Martin, K. Morokuma, V. G. Zakrzewski, G. A. Voth, 
 P. Salvador, J. J. Dannenberg, S. Dapprich, A. D. Daniels, 
 O. Farkas, J. B. Foresman, J. V. Ortiz, J. Cioslowski, 
 and D. J. Fox, Gaussian, Inc., Wallingford CT, 2013.
 
 ******************************************
 Gaussian 09:  ES64L-G09RevD.01 24-Apr-2013
                 6-Feb-2019 
 ******************************************
 %nprocshared=2
 Will use up to    2 processors via shared memory.
 %mem=6000MB
 %chk=/home/ke291/rds/hpc-work/06Feb0927IP1/P_ng_4ginp006.chk
 ----------------------------------------------------------------------
 # mPW1PW91/6-311g(d) geom=checkpoint nmr=giao scrf=(solvent=chloroform
 )
 ----------------------------------------------------------------------
 1/29=2,38=1/1;
 2/12=2,40=1/2;
 3/5=4,6=6,7=1,11=2,14=-4,16=1,25=1,30=1,70=2201,72=7,74=-7/1,2,8,3;
 4//1;
 5/5=2,38=5,53=7/2;
 8/6=1,10=90,11=11/1;
 10/13=100,45=16/2;
 6/7=2,8=2,9=2,10=2,28=1/1;
 99/9=1/99;
 -------------
 P_ng_4ginp006
 -------------
 Structure from the checkpoint file:  "/home/ke291/rds/hpc-work/06Feb0927IP1/P_ng_4ginp006.chk"
 Charge =  0 Multiplicity = 1
 Redundant internal coordinates found in file.
 C,0,0.7160254446,1.7973192876,-0.0162573125
 C,0,-0.3979671106,0.8987556056,0.5498401946
 C,0,-1.3902225237,1.6774011151,1.4604333796
 C,0,-1.5069160238,3.152553824,0.969895013
 C,0,-1.0160144498,3.4572962157,-0.4321559534
 H,0,1.2766229065,1.2060968667,-0.748916513
 H,0,-0.9668120418,0.6019418564,-0.3394144035
 H,0,-2.5302993229,3.5246958912,1.0335164519
 H,0,-0.8960023452,3.7688528259,1.636952542
 O,0,0.1088007821,2.8348684628,-0.8482055077
 O,0,-1.5449370884,4.2688285663,-1.1629770297
 C,0,1.7237355382,2.4023477113,0.9657578424
 C,0,2.8219007087,3.2123978476,0.2689705413
 C,0,0.1590228769,-0.3780818821,1.1888954355
 O,0,-0.8556092522,1.6692723499,2.7846987358
 Si,0,-1.46181685,2.0126535108,4.319144543
 C,0,0.0845609176,2.2435194338,5.365343778
 C,0,-2.5035363361,3.588012493,4.3475256262
 C,0,-2.4695896643,0.5673919204,4.9960160261
 H,0,-2.8094708485,3.8019770018,5.3784589313
 H,0,-1.9408350302,4.454825981,3.985643814
 H,0,-3.4163964943,3.5060484618,3.7485555549
 H,0,-1.8960946896,-0.3648368052,4.9546515395
 H,0,-2.7271839481,0.7508332254,6.0458243275
 H,0,-3.4046166108,0.4111953691,4.4494757079
 H,0,0.6842040743,3.0876598901,5.0093007611
 H,0,-0.1781519381,2.4359814158,6.4115517042
 H,0,0.7159956987,1.3493117097,5.3387966847
 H,0,0.8125904628,-0.9003306729,0.4823400047
 H,0,0.7266911224,-0.1606829638,2.0947858429
 H,0,-0.6474549398,-1.0655937086,1.4591085752
 H,0,2.1765601588,1.5731533708,1.5209186411
 H,0,1.2112621414,3.0174438419,1.7105824547
 H,0,3.3816697046,2.5922931652,-0.4403251467
 H,0,2.4022110917,4.0558230947,-0.2862795873
 H,0,3.5333901264,3.6080522861,0.9999710155
 C,0,-2.7936155584,1.0014298387,1.4627258586
 C,0,-3.507491704,0.9578880047,0.1383218628
 C,0,-4.6015100262,1.6635095006,-0.1551870155
 H,0,-3.418784932,1.545570669,2.1790143786
 H,0,-2.6701151398,-0.016124882,1.8525903518
 H,0,-3.1012591798,0.2892877711,-0.6196548298
 H,0,-5.0809483517,1.5930323774,-1.1268332064
 H,0,-5.0607523555,2.3345681557,0.567289385
 Recover connectivity data from disk.
                          Input orientation:                          
 ---------------------------------------------------------------------
 Center     Atomic      Atomic             Coordinates (Angstroms)
 Number     Number       Type             X           Y           Z
 ---------------------------------------------------------------------
      1          6           0        0.716025    1.797319   -0.016257
      2          6           0       -0.397967    0.898756    0.549840
      3          6           0       -1.390223    1.677401    1.460433
      4          6           0       -1.506916    3.152554    0.969895
      5          6           0       -1.016014    3.457296   -0.432156
      6          1           0        1.276623    1.206097   -0.748917
      7          1           0       -0.966812    0.601942   -0.339414
      8          1           0       -2.530299    3.524696    1.033516
      9          1           0       -0.896002    3.768853    1.636953
     10          8           0        0.108801    2.834868   -0.848206
     11          8           0       -1.544937    4.268829   -1.162977
     12          6           0        1.723736    2.402348    0.965758
     13          6           0        2.821901    3.212398    0.268971
     14          6           0        0.159023   -0.378082    1.188895
     15          8           0       -0.855609    1.669272    2.784699
     16         14           0       -1.461817    2.012654    4.319145
     17          6           0        0.084561    2.243519    5.365344
     18          6           0       -2.503536    3.588012    4.347526
     19          6           0       -2.469590    0.567392    4.996016
     20          1           0       -2.809471    3.801977    5.378459
     21          1           0       -1.940835    4.454826    3.985644
     22          1           0       -3.416396    3.506048    3.748556
     23          1           0       -1.896095   -0.364837    4.954652
     24          1           0       -2.727184    0.750833    6.045824
     25          1           0       -3.404617    0.411195    4.449476
     26          1           0        0.684204    3.087660    5.009301
     27          1           0       -0.178152    2.435981    6.411552
     28          1           0        0.715996    1.349312    5.338797
     29          1           0        0.812590   -0.900331    0.482340
     30          1           0        0.726691   -0.160683    2.094786
     31          1           0       -0.647455   -1.065594    1.459109
     32          1           0        2.176560    1.573153    1.520919
     33          1           0        1.211262    3.017444    1.710582
     34          1           0        3.381670    2.592293   -0.440325
     35          1           0        2.402211    4.055823   -0.286280
     36          1           0        3.533390    3.608052    0.999971
     37          6           0       -2.793616    1.001430    1.462726
     38          6           0       -3.507492    0.957888    0.138322
     39          6           0       -4.601510    1.663510   -0.155187
     40          1           0       -3.418785    1.545571    2.179014
     41          1           0       -2.670115   -0.016125    1.852590
     42          1           0       -3.101259    0.289288   -0.619655
     43          1           0       -5.080948    1.593032   -1.126833
     44          1           0       -5.060752    2.334568    0.567289
 ---------------------------------------------------------------------
                    Distance matrix (angstroms):
                    1          2          3          4          5
     1  C    0.000000
     2  C    1.539111   0.000000
     3  C    2.575126   1.555648   0.000000
     4  C    2.783995   2.546727   1.558949   0.000000
     5  C    2.434842   2.809347   2.624872   1.516443   0.000000
     6  H    1.095720   2.141373   3.495056   3.806717   3.228687
     7  H    2.089330   1.096566   2.139005   2.917469   2.857284
     8  H    3.824197   3.417067   2.212359   1.090803   2.108506
     9  H    3.036228   3.109230   2.156289   1.094534   2.095872
    10  O    1.461974   2.441286   2.986070   2.452948   1.351193
    11  O    3.540519   3.950528   3.690761   2.407625   1.213443
    12  C    1.531631   2.633515   3.235272   3.316615   3.251663
    13  C    2.553138   3.974843   4.638726   4.385605   3.909111
    14  C    2.548532   1.532626   2.588224   3.910077   4.326505
    15  O    3.214310   2.407847   1.428130   2.432660   3.683872
    16  Si   4.856447   4.071879   2.879192   3.538203   4.986039
    17  C    5.436862   5.022977   4.212339   4.762259   6.024577
    18  C    5.710934   5.107635   3.636648   3.548417   5.007511
    19  C    6.064961   4.916289   3.859728   4.880518   6.318978
    20  H    6.749129   6.128589   4.677501   4.642611   6.090857
    21  H    5.489669   5.179848   3.793936   3.313448   4.622479
    22  H    5.845552   5.112795   3.561578   3.389989   4.821054
    23  H    6.017310   4.821143   4.078750   5.329332   6.663403
    24  H    7.049798   5.971011   4.865368   5.746510   7.226152
    25  H    6.232480   4.948213   3.820397   4.819107   6.230127
    26  H    5.188663   5.084209   4.345864   4.595870   5.712865
    27  H    6.521056   6.063913   5.153458   5.647187   6.970038
    28  H    5.373762   4.937410   4.425551   5.223057   6.383365
    29  H    2.745039   2.169497   3.528988   4.695071   4.813420
    30  H    2.879304   2.184977   2.874418   4.151135   4.744706
    31  H    3.497435   2.178917   2.841782   4.332525   4.916223
    32  H    2.132211   2.833019   3.568818   4.045507   4.190111
    33  H    2.171621   2.902720   2.937007   2.820526   3.121788
    34  H    2.813801   4.258421   5.217362   5.118680   4.481955
    35  H    2.831426   4.301996   4.805252   4.204182   3.473295
    36  H    3.499860   4.795673   5.308616   5.060936   4.771876
    37  C    3.890811   2.565742   1.557708   2.554567   3.575153
    38  C    4.308902   3.137194   2.597789   3.083890   3.574905
    39  C    5.321033   4.330322   3.594828   3.613803   4.018726
    40  H    4.688203   3.492552   2.156108   2.774817   4.030659
    41  H    4.271665   2.774315   2.158690   3.488941   4.474457
    42  H    4.148483   3.007816   3.030061   3.642374   3.797325
    43  H    5.905931   5.022307   4.508051   4.427424   4.525676
    44  H    5.830980   4.878876   3.834366   3.668916   4.315010
                    6          7          8          9         10
     6  H    0.000000
     7  H    2.359173   0.000000
     8  H    4.800586   3.587746   0.000000
     9  H    4.120727   3.733680   1.759169   0.000000
    10  O    2.006630   2.530172   3.313848   2.838656   0.000000
    11  O    4.184850   3.802439   2.519773   2.917310   2.211373
    12  C    2.137998   3.490556   4.400122   3.029994   2.466891
    13  C    2.729326   4.641008   5.415543   4.000477   2.958297
    14  C    2.741125   2.136278   4.742180   4.302430   3.804649
    15  O    4.152997   3.303278   3.051856   2.393155   3.935314
    16  Si   5.816771   4.892577   3.771376   3.255539   5.463001
    17  C    6.315175   6.028634   5.219544   4.145968   6.241673
    18  C    6.777673   5.765895   3.314722   3.156592   5.864056
    19  C    6.888128   5.543136   4.944768   4.899881   6.778235
    20  H    7.808936   6.806592   4.362722   4.202538   6.944275
    21  H    6.581971   5.873633   3.150820   2.660561   5.494667
    22  H    6.895032   5.580842   2.856038   3.298533   5.831613
    23  H    6.713022   5.461260   5.559315   5.393950   6.923212
    24  H    7.899762   6.625130   5.732042   5.647992   7.740391
    25  H    7.040536   5.377057   4.703945   5.047504   6.803214
    26  H    6.086732   6.124819   5.131364   3.786002   5.891127
    27  H    7.409541   7.039974   5.970022   5.008857   7.276368
    28  H    6.115150   5.969295   5.814307   4.707055   6.391757
    29  H    2.483617   2.469489   5.573111   5.104282   4.027081
    30  H    3.202679   3.061843   5.031530   4.275979   4.244563
    31  H    3.706485   2.473327   4.979658   4.844097   4.594478
    32  H    2.469164   3.779534   5.118653   3.778254   3.388260
    33  H    3.055223   3.844625   3.836014   2.238437   2.792159
    34  H    2.539289   4.783406   6.163843   4.898760   3.307095
    35  H    3.098697   4.825188   5.133577   3.828758   2.658237
    36  H    3.731085   5.575166   6.064355   4.477848   3.967541
    37  C    4.636819   2.597020   2.573019   3.360048   4.138348
    38  C    4.872017   2.609594   2.888733   4.119138   4.192119
    39  C    5.925723   3.791028   3.027696   4.623313   4.902997
    40  H    5.543904   3.639380   2.453265   3.406060   4.823921
    41  H    4.882459   2.843964   3.637010   4.185694   4.810908
    42  H    4.474718   2.175351   3.677885   4.697106   4.103255
    43  H    6.380537   4.304464   3.860602   5.466853   5.343528
    44  H    6.570249   4.537009   2.834954   4.532824   5.383141
                   11         12         13         14         15
    11  O    0.000000
    12  C    4.324290   0.000000
    13  C    4.715484   1.532208   0.000000
    14  C    5.479832   3.198266   4.563850   0.000000
    15  O    4.776715   3.240211   4.715316   2.787064   0.000000
    16  Si   5.928819   4.641638   6.016106   4.259248   1.685207
    17  C    7.026814   4.697710   5.865558   4.931639   2.805959
    18  C    5.634542   5.541839   6.718331   5.726785   2.973156
    19  C    7.244916   6.098690   7.572376   4.722043   2.951101
    20  H    6.678876   6.479263   7.626718   6.620973   3.885048
    21  H    5.167168   5.173148   6.167734   5.965585   3.221691
    22  H    5.311059   5.948367   7.149132   5.867022   3.295512
    23  H    7.682418   6.055721   7.550609   4.290059   3.151017
    24  H    8.108071   6.953076   8.379957   5.761458   3.870564
    25  H    7.059700   6.511603   8.005803   4.894269   3.294189
    26  H    6.667926   4.230900   5.201542   5.184851   3.054784
    27  H    7.912074   5.768447   6.880003   5.942119   3.768402
    28  H    7.477196   4.609544   5.797332   4.529436   3.015913
    29  H    5.914830   3.459995   4.582291   1.095041   3.832311
    30  H    5.949276   2.972865   4.370490   1.090939   2.515629
    31  H    6.011395   4.229959   5.635075   1.093661   3.046311
    32  H    5.321607   1.095818   2.161241   2.826308   3.286401
    33  H    4.173720   1.093497   2.170348   3.592904   2.691329
    34  H    5.253994   2.182177   1.095888   4.675782   5.404376
    35  H    4.048944   2.182180   1.093530   5.183392   5.073453
    36  H    5.559171   2.174797   1.094130   5.226023   5.119320
    37  C    4.373718   4.755629   6.152028   3.270491   2.439159
    38  C    4.062921   5.489704   6.720200   4.041268   3.813379
    39  C    4.140769   6.466153   7.595129   5.351385   4.761799
    40  H    4.700675   5.352717   6.735929   4.181086   2.636669
    41  H    5.359151   5.093271   6.564560   2.928400   2.646096
    42  H    4.307445   5.500830   6.664687   3.787569   4.305453
    43  H    4.434475   7.165030   8.186919   6.058481   5.758419
    44  H    4.369913   6.796517   7.936989   5.915312   4.800287
                   16         17         18         19         20
    16  Si   0.000000
    17  C    1.881254   0.000000
    18  C    1.888846   3.088991   0.000000
    19  C    1.887470   3.077254   3.089634   0.000000
    20  H    2.477902   3.287002   1.096449   3.274801   0.000000
    21  H    2.510954   3.300860   1.094969   4.051244   1.766543
    22  H    2.525110   4.057670   1.094896   3.329910   1.764233
    23  H    2.498985   3.300786   4.045072   1.095289   4.286748
    24  H    2.484908   3.255315   3.314185   1.096405   3.124360
    25  H    2.521136   4.046058   3.303711   1.094248   3.565755
    26  H    2.497471   1.094948   3.293932   4.037121   3.585009
    27  H    2.491018   1.095724   3.315840   3.278118   3.139596
    28  H    2.494510   1.094999   4.044723   3.298007   4.294887
    29  H    5.327239   5.852995   6.788342   5.770631   7.694349
    30  H    3.802727   4.109631   5.437088   4.377607   6.244167
    31  H    4.280023   5.171533   5.783082   4.300759   6.612780
    32  H    4.610967   4.427805   5.826892   5.888511   6.686462
    33  H    3.867758   3.902012   4.591160   5.508675   5.498646
    34  H    6.815269   6.685683   7.651838   8.239616   8.582063
    35  H    6.349424   6.371561   6.764418   7.987881   7.701645
    36  H    6.205989   5.728250   6.902971   7.826222   7.709776
    37  C    3.309893   5.005708   3.885438   3.574566   4.814175
    38  C    4.772483   6.471279   5.063880   4.982662   6.002925
    39  C    5.477154   7.264429   5.327253   5.681677   6.197232
    40  H    2.937354   4.786780   3.116358   3.129425   3.962206
    41  H    3.414647   5.003366   4.386600   3.203409   5.198949
    42  H    5.481742   7.056109   5.992640   5.657924   6.957118
    43  H    6.552318   8.321898   6.371154   6.735014   7.235874
    44  H    5.208875   7.035898   4.732934   5.426846   5.510799
                   21         22         23         24         25
    21  H    0.000000
    22  H    1.770218   0.000000
    23  H    4.916312   4.330097   0.000000
    24  H    4.310713   3.652899   1.768074   0.000000
    25  H    4.325361   3.173254   1.770047   1.767087   0.000000
    26  H    3.131748   4.310389   4.310529   4.262946   4.918874
    27  H    3.614943   4.326987   3.594227   3.077506   4.284807
    28  H    4.305112   4.925144   3.147839   3.565607   4.318611
    29  H    6.966505   6.925942   5.255977   6.797698   5.936590
    30  H    5.656321   5.774517   3.885810   5.326427   4.789500
    31  H    6.207354   5.814509   3.777431   5.353750   4.327256
    32  H    5.597486   6.322943   5.668584   6.722923   6.409066
    33  H    4.144597   5.080088   5.623120   6.280382   5.966607
    34  H    7.168493   8.037125   8.105874   9.098308   8.644132
    35  H    6.104964   7.101996   8.092282   8.793702   8.332463
    36  H    6.292727   7.474266   7.804015   8.533412   8.381820
    37  C    4.360997   3.447606   3.855616   4.590425   3.105217
    38  C    5.429998   4.419865   5.248165   5.962410   4.346896
    39  C    5.658367   4.476455   6.127309   6.542065   4.919732
    40  H    3.729881   2.511362   3.697621   4.007760   2.538110
    41  H    5.007112   4.069069   3.216130   4.263179   2.732381
    42  H    6.317204   5.433979   5.740487   6.691903   5.079663
    43  H    6.647375   5.495433   7.138697   7.595823   5.941553
    44  H    5.090631   3.767854   6.045725   6.161826   4.638267
                   26         27         28         29         30
    26  H    0.000000
    27  H    1.770494   0.000000
    28  H    1.769585   1.769507   0.000000
    29  H    6.034395   6.875180   5.353073   0.000000
    30  H    4.364394   5.118191   3.578240   1.776074   0.000000
    31  H    5.623762   6.083417   4.768935   1.764404   1.763867
    32  H    4.085299   5.496129   4.093842   3.009515   2.331873
    33  H    3.341297   4.936363   4.023915   4.125103   3.237732
    34  H    6.100830   7.723016   6.484525   4.432821   4.588527
    35  H    5.650846   7.358200   6.466066   5.261286   5.124038
    36  H    4.946048   6.665921   5.644912   5.291144   4.824888
    37  C    5.387558   5.778362   5.240450   4.193158   3.760660
    38  C    6.769984   7.254149   6.710886   4.715340   4.796588
    39  C    7.525883   7.955179   7.652349   6.024301   6.064634
    40  H    5.217574   5.404526   5.207605   5.173555   4.483678
    41  H    5.554256   5.745157   5.048148   3.845601   3.408497
    42  H    7.337967   7.911429   7.155294   4.236485   4.714219
    43  H    8.551201   9.031900   8.687251   6.598492   6.868990
    44  H    7.300900   7.616132   7.557038   6.705814   6.484908
                   31         32         33         34         35
    31  H    0.000000
    32  H    3.865471   0.000000
    33  H    4.493246   1.747498   0.000000
    34  H    5.763838   2.517422   3.085097   0.000000
    35  H    6.210938   3.079047   2.546380   1.767764   0.000000
    36  H    6.287546   2.500637   2.499213   1.768965   1.770453
    37  C    2.979699   5.003289   4.490522   6.654818   6.275743
    38  C    3.744164   5.882055   5.383346   7.103989   6.685961
    39  C    5.068383   6.982817   6.253204   8.042083   7.402193
    40  H    3.875140   5.633981   4.880899   7.362252   6.801694
    41  H    2.312437   5.111367   4.928265   6.977493   6.847191
    42  H    3.489716   5.838300   5.609874   6.882177   6.677283
    43  H    5.780247   7.725439   7.047822   8.549019   7.922723
    44  H    5.642130   7.339472   6.411833   8.506245   7.706304
                   36         37         38         39         40
    36  H    0.000000
    37  C    6.858544   0.000000
    38  C    7.572307   1.505178   0.000000
    39  C    8.443473   2.514851   1.334513   0.000000
    40  H    7.346884   1.095443   2.125480   2.619398   0.000000
    41  H    7.234991   1.096661   2.142106   3.253095   1.762371
    42  H    7.593152   2.222184   1.089302   2.086856   3.084091
    43  H    9.098925   3.505382   2.116552   1.085783   3.700496
    44  H    8.698750   2.778304   2.119406   1.087748   2.432330
                   41         42         43         44
    41  H    0.000000
    42  H    2.528074   0.000000
    43  H    4.156738   2.424077   0.000000
    44  H    3.590669   3.071095   1.849415   0.000000
 Stoichiometry    C14H26O3Si
 Framework group  C1[X(C14H26O3Si)]
 Deg. of freedom   126
 Full point group                 C1      NOp   1
 Largest Abelian subgroup         C1      NOp   1
 Largest concise Abelian subgroup C1      NOp   1
                         Standard orientation:                         
 ---------------------------------------------------------------------
 Center     Atomic      Atomic             Coordinates (Angstroms)
 Number     Number       Type             X           Y           Z
 ---------------------------------------------------------------------
      1          6           0       -2.172252   -0.883042    0.702953
      2          6           0       -1.083003   -0.012742    1.354855
      3          6           0       -0.008582    0.464220    0.335951
      4          6           0       -0.658392    0.638171   -1.070395
      5          6           0       -2.171446    0.720810   -1.129017
      6          1           0       -2.952310   -1.052663    1.453513
      7          1           0       -1.625827    0.886130    1.670811
      8          1           0       -0.274215    1.515498   -1.592464
      9          1           0       -0.387365   -0.238439   -1.667141
     10          8           0       -2.872661   -0.087388   -0.303889
     11          8           0       -2.771631    1.424292   -1.914723
     12          6           0       -1.763620   -2.246362    0.137029
     13          6           0       -2.950852   -3.042583   -0.414490
     14          6           0       -0.498739   -0.665105    2.612632
     15          8           0        0.994191   -0.549944    0.261967
     16         14           0        2.562541   -0.635990   -0.348603
     17          6           0        2.887768   -2.484502   -0.476449
     18          6           0        2.719382    0.167957   -2.050605
     19          6           0        3.804084    0.140557    0.842233
     20          1           0        3.737396    0.019012   -2.429633
     21          1           0        2.030700   -0.277200   -2.776215
     22          1           0        2.535202    1.247067   -2.030724
     23          1           0        3.705244   -0.286182    1.846116
     24          1           0        4.826030   -0.057407    0.497937
     25          1           0        3.688495    1.225496    0.925455
     26          1           0        2.194172   -2.963763   -1.175122
     27          1           0        3.906868   -2.677140   -0.829913
     28          1           0        2.773999   -2.973350    0.496746
     29          1           0       -1.301974   -0.936000    3.305846
     30          1           0        0.073012   -1.562642    2.372480
     31          1           0        0.169051    0.023663    3.137751
     32          1           0       -1.291330   -2.808962    0.950197
     33          1           0       -0.994795   -2.127605   -0.631437
     34          1           0       -3.704489   -3.218236    0.361492
     35          1           0       -3.438205   -2.511447   -1.236798
     36          1           0       -2.622791   -4.017391   -0.787647
     37          6           0        0.640382    1.803776    0.795178
     38          6           0       -0.285716    2.986220    0.893824
     39          6           0       -0.255599    4.041198    0.077099
     40          1           0        1.437999    2.042966    0.083426
     41          1           0        1.119115    1.624028    1.765317
     42          1           0       -1.017141    2.974370    1.700952
     43          1           0       -0.945383    4.871567    0.193755
     44          1           0        0.463265    4.115372   -0.735876
 ---------------------------------------------------------------------
 Rotational constants (GHZ):      0.4355526      0.3125500      0.2450865
 Standard basis: 6-311G(d) (5D, 7F)
 There are   428 symmetry adapted cartesian basis functions of A   symmetry.
 There are   410 symmetry adapted basis functions of A   symmetry.
   410 basis functions,   720 primitive gaussians,   428 cartesian basis functions
    74 alpha electrons       74 beta electrons
       nuclear repulsion energy      1638.9325724272 Hartrees.
 NAtoms=   44 NActive=   44 NUniq=   44 SFac= 1.00D+00 NAtFMM=   60 NAOKFM=F Big=F
 Integral buffers will be    131072 words long.
 Raffenetti 2 integral format.
 Two-electron integral symmetry is turned on.
 ------------------------------------------------------------------------------
 Polarizable Continuum Model (PCM)
 =================================
 Model                : PCM (using non-symmetric T matrix).
 Atomic radii         : UFF (Universal Force Field).
 Polarization charges : Total charges.
 Charge compensation  : None.
 Solution method      : On-the-fly selection.
 Cavity type          : Scaled VdW (van der Waals Surface) (Alpha=1.100).
 Cavity algorithm     : GePol (No added spheres)
                        Default sphere list used, NSphG=   44.
                        Lebedev-Laikov grids with approx.  5.0 points / Ang**2.
                        Smoothing algorithm: Karplus/York (Gamma=1.0000).
                        Polarization charges: spherical gaussians, with
                                              point-specific exponents (IZeta= 3).
                        Self-potential: point-specific (ISelfS= 7).
                        Self-field    : sphere-specific E.n sum rule (ISelfD= 2).
 Solvent              : Chloroform, Eps=   4.711300 Eps(inf)=   2.090627
 ------------------------------------------------------------------------------
 One-electron integrals computed using PRISM.
 NBasis=   410 RedAO= T EigKep=  6.65D-04  NBF=   410
 NBsUse=   410 1.00D-06 EigRej= -1.00D+00 NBFU=   410
 ExpMin= 6.54D-02 ExpMax= 6.94D+04 ExpMxC= 2.33D+03 IAcc=2 IRadAn=         4 AccDes= 0.00D+00
 Harris functional with IExCor=  908 and IRadAn=       4 diagonalized for initial guess.
 HarFok:  IExCor=  908 AccDes= 0.00D+00 IRadAn=         4 IDoV= 1 UseB2=F ITyADJ=14
 ICtDFT=  3500011 ScaDFX=  1.000000  1.000000  1.000000  1.000000
 FoFCou: FMM=F IPFlag=           0 FMFlag=      100000 FMFlg1=           0
         NFxFlg=           0 DoJE=T BraDBF=F KetDBF=T FulRan=T
         wScrn=  0.000000 ICntrl=     500 IOpCl=  0 I1Cent=   200000004 NGrid=           0
         NMat0=    1 NMatS0=      1 NMatT0=    0 NMatD0=    1 NMtDS0=    0 NMtDT0=    0
 Petite list used in FoFCou.
 Requested convergence on RMS density matrix=1.00D-08 within 128 cycles.
 Requested convergence on MAX density matrix=1.00D-06.
 Requested convergence on             energy=1.00D-06.
 No special actions if energy rises.
 Inv3:  Mode=1 IEnd=    25526667.
 Iteration    1 A*A^-1 deviation from unit magnitude is 7.33D-15 for   2909.
 Iteration    1 A*A^-1 deviation from orthogonality  is 1.01D-14 for   2888   1732.
 Iteration    1 A^-1*A deviation from unit magnitude is 7.44D-15 for   2909.
 Iteration    1 A^-1*A deviation from orthogonality  is 1.07D-13 for   2901   2008.
 DSYEVD-2 returned Info=       42486 IAlg= 4 N=   410 NDim=   410 NE2=     1916766 trying  DSYEV.
 Error on total polarization charges =  0.01111
 SCF Done:  E(RmPW1PW91) =  -1064.38078132     A.U. after   12 cycles
            NFock= 12  Conv=0.85D-08     -V/T= 2.0036
 DoSCS=F DFT=T ScalE2(SS,OS)=  1.000000  1.000000
 Range of M.O.s used for correlation:     1   410
 NBasis=   410 NAE=    74 NBE=    74 NFC=     0 NFV=     0
 NROrb=    410 NOA=    74 NOB=    74 NVA=   336 NVB=   336
 NEqPCM:  Using equilibrium solvation (IEInf=0, Eps=   4.7113, EpsInf=   2.0906)
          Differentiating once with respect to magnetic field using GIAOs.
          Electric field/nuclear overlap derivatives assumed to be zero.
 FoFJK:  IHMeth= 1 ICntrl=    6127 DoSepK=F KAlg= 0 I1Cent=   0 FoldK=F
 IRaf=         1 NMat=   1 IRICut=       1 DoRegI=T DoRafI=F ISym2E= 0.
          There are     3 degrees of freedom in the 1st order CPHF.  IDoFFX=0 NUNeed=     3.
      3 vectors produced by pass  0 Test12= 8.29D-13 3.33D-08 XBig12= 3.05D+01 9.46D-01.
 AX will form     3 AO Fock derivatives at one time.
      3 vectors produced by pass  1 Test12= 8.29D-13 3.33D-08 XBig12= 6.54D-02 9.56D-02.
      3 vectors produced by pass  2 Test12= 8.29D-13 3.33D-08 XBig12= 4.67D-04 7.00D-03.
      3 vectors produced by pass  3 Test12= 8.29D-13 3.33D-08 XBig12= 1.84D-06 2.77D-04.
      3 vectors produced by pass  4 Test12= 8.29D-13 3.33D-08 XBig12= 6.08D-09 1.80D-05.
      3 vectors produced by pass  5 Test12= 8.29D-13 3.33D-08 XBig12= 2.50D-11 8.67D-07.
      2 vectors produced by pass  6 Test12= 8.29D-13 3.33D-08 XBig12= 9.07D-14 5.37D-08.
 InvSVY:  IOpt=1 It=  1 EMax= 1.78D-15
 Solved reduced A of dimension    20 with     3 vectors.
 Calculating GIAO nuclear magnetic shielding tensors.
 SCF GIAO Magnetic shielding tensor (ppm):
      1  C    Isotropic =    99.1778   Anisotropy =    47.2618
   XX=    85.4840   YX=   -10.1676   ZX=    22.2906
   XY=    -0.4363   YY=    98.8109   ZY=    -8.6678
   XZ=    18.6061   YZ=   -18.5459   ZZ=   113.2385
   Eigenvalues:    74.5069    92.3408   130.6856
      2  C    Isotropic =   144.2632   Anisotropy =     6.2154
   XX=   145.2201   YX=     0.0224   ZX=     5.9638
   XY=     1.2708   YY=   146.6305   ZY=    -6.9487
   XZ=    -3.3633   YZ=    -0.3355   ZZ=   140.9389
   Eigenvalues:   138.8325   145.5502   148.4068
      3  C    Isotropic =   106.5339   Anisotropy =    48.8767
   XX=   115.0054   YX=   -22.1205   ZX=    -5.6201
   XY=   -23.7353   YY=   115.4224   ZY=     2.8838
   XZ=    -8.4268   YZ=     2.8136   ZZ=    89.1738
   Eigenvalues:    86.6510    93.8323   139.1184
      4  C    Isotropic =   139.9878   Anisotropy =    29.8778
   XX=   151.4049   YX=    -6.5126   ZX=     9.6861
   XY=    -6.0666   YY=   127.7373   ZY=    -6.3574
   XZ=    13.0826   YZ=     2.6431   ZZ=   140.8211
   Eigenvalues:   126.0777   133.9793   159.9063
      5  C    Isotropic =    12.0204   Anisotropy =    96.3870
   XX=   -33.7494   YX=   -36.5310   ZX=    35.9305
   XY=   -45.4388   YY=    35.2805   ZY=    41.5720
   XZ=    47.4439   YZ=    41.1692   ZZ=    34.5301
   Eigenvalues:   -80.1385    39.9213    76.2784
      6  H    Isotropic =    27.8765   Anisotropy =     4.8087
   XX=    29.5632   YX=     1.0998   ZX=    -0.8839
   XY=     0.9049   YY=    25.3828   ZY=    -0.6688
   XZ=    -2.4929   YZ=    -0.3467   ZZ=    28.6835
   Eigenvalues:    25.1498    27.3974    31.0823
      7  H    Isotropic =    30.0913   Anisotropy =     6.3767
   XX=    29.9198   YX=    -1.2152   ZX=    -2.4634
   XY=    -2.0414   YY=    32.4090   ZY=     1.9497
   XZ=    -1.5379   YZ=     1.9904   ZZ=    27.9450
   Eigenvalues:    26.5568    29.3746    34.3424
      8  H    Isotropic =    29.4420   Anisotropy =     3.9104
   XX=    29.1098   YX=     0.9960   ZX=     0.9467
   XY=    -0.2823   YY=    29.6096   ZY=    -2.4055
   XZ=     1.3496   YZ=    -2.2446   ZZ=    29.6066
   Eigenvalues:    26.7831    29.4940    32.0489
      9  H    Isotropic =    29.5317   Anisotropy =     2.8190
   XX=    30.4330   YX=    -0.6903   ZX=     0.0217
   XY=    -0.4117   YY=    27.8533   ZY=     0.6296
   XZ=    -1.1920   YZ=     1.8368   ZZ=    30.3087
   Eigenvalues:    27.3136    29.8704    31.4110
     10  O    Isotropic =    88.2000   Anisotropy =   201.9648
   XX=    62.3758   YX=    76.8452   ZX=  -102.0334
   XY=    97.1219   YY=   128.4869   ZY=   125.9305
   XZ=  -101.1897   YZ=   110.7411   ZZ=    73.7372
   Eigenvalues:  -118.9335   160.6902   222.8432
     11  O    Isotropic =  -101.5277   Anisotropy =   567.7767
   XX=  -205.7066   YX=   -22.6829   ZX=    -3.1512
   XY=    -0.4586   YY=   -32.9401   ZY=   334.1230
   XZ=     5.5425   YZ=   317.6621   ZZ=   -65.9365
   Eigenvalues:  -376.2066  -205.3666   276.9901
     12  C    Isotropic =   162.0256   Anisotropy =    10.6912
   XX=   161.9483   YX=     1.6215   ZX=     1.6634
   XY=    -2.0288   YY=   167.0826   ZY=     3.2159
   XZ=    -1.2732   YZ=     6.7925   ZZ=   157.0460
   Eigenvalues:   154.9678   161.9560   169.1531
     13  C    Isotropic =   175.5196   Anisotropy =    23.0846
   XX=   182.3351   YX=    12.1536   ZX=     1.1300
   XY=     9.1283   YY=   174.7510   ZY=     5.9569
   XZ=    -0.4816   YZ=     9.1449   ZZ=   169.4726
   Eigenvalues:   161.9492   173.7002   190.9093
     14  C    Isotropic =   176.2295   Anisotropy =    16.9098
   XX=   174.7975   YX=     0.3599   ZX=     2.7876
   XY=    -1.5446   YY=   169.6669   ZY=    -6.9643
   XZ=     3.7825   YZ=    -5.8836   ZZ=   184.2242
   Eigenvalues:   167.1852   174.0007   187.5027
     15  O    Isotropic =   229.7146   Anisotropy =    51.1288
   XX=   199.1432   YX=     0.5753   ZX=    18.6597
   XY=    -4.7654   YY=   246.7021   ZY=    18.1042
   XZ=     9.7272   YZ=    17.2306   ZZ=   243.2984
   Eigenvalues:   193.9514   231.3918   263.8004
     16  Si   Isotropic =   333.2316   Anisotropy =    42.0116
   XX=   351.7998   YX=     3.7950   ZX=   -20.2219
   XY=   -13.3556   YY=   325.8160   ZY=     9.8638
   XZ=   -15.0256   YZ=     1.0253   ZZ=   322.0788
   Eigenvalues:   313.1579   325.2974   361.2393
     17  C    Isotropic =   186.5811   Anisotropy =    12.2059
   XX=   187.7377   YX=    -1.4429   ZX=    -2.7469
   XY=    -0.6140   YY=   194.3456   ZY=     1.8518
   XZ=    -2.6471   YZ=     1.1188   ZZ=   177.6600
   Eigenvalues:   176.9016   188.1232   194.7184
     18  C    Isotropic =   186.0360   Anisotropy =     8.8011
   XX=   186.6466   YX=    -0.8455   ZX=    -2.4618
   XY=    -2.0904   YY=   181.4232   ZY=    -3.8686
   XZ=    -0.5728   YZ=    -4.5611   ZZ=   190.0383
   Eigenvalues:   179.1989   187.0057   191.9035
     19  C    Isotropic =   184.7341   Anisotropy =    12.8498
   XX=   189.9245   YX=     2.6222   ZX=     3.9842
   XY=     1.6717   YY=   179.5173   ZY=     5.6853
   XZ=     2.9002   YZ=     5.7442   ZZ=   184.7603
   Eigenvalues:   175.8513   185.0503   193.3006
     20  H    Isotropic =    32.1551   Anisotropy =    10.5598
   XX=    36.2644   YX=    -0.5314   ZX=    -4.8742
   XY=    -0.8254   YY=    28.4471   ZY=    -0.2820
   XZ=    -4.4382   YZ=    -0.5217   ZZ=    31.7538
   Eigenvalues:    27.9068    29.3636    39.1950
     21  H    Isotropic =    31.8903   Anisotropy =     7.1942
   XX=    31.9179   YX=     1.3950   ZX=     1.9269
   XY=     0.9876   YY=    28.8768   ZY=     1.6194
   XZ=     2.6049   YZ=     1.9429   ZZ=    34.8764
   Eigenvalues:    28.2785    30.7060    36.6865
     22  H    Isotropic =    31.8263   Anisotropy =     7.1564
   XX=    29.5452   YX=    -0.9826   ZX=    -1.8356
   XY=    -1.5545   YY=    36.1097   ZY=    -1.1336
   XZ=    -1.3122   YZ=    -2.0137   ZZ=    29.8240
   Eigenvalues:    27.6321    31.2496    36.5973
     23  H    Isotropic =    31.9105   Anisotropy =     7.8740
   XX=    30.5445   YX=    -0.0461   ZX=     1.6390
   XY=     0.0366   YY=    28.8536   ZY=    -1.8561
   XZ=     0.8932   YZ=    -2.5470   ZZ=    36.3336
   Eigenvalues:    28.2040    30.3677    37.1599
     24  H    Isotropic =    32.2694   Anisotropy =    10.3701
   XX=    39.0461   YX=    -0.6067   ZX=    -0.8921
   XY=    -0.7343   YY=    28.6989   ZY=     0.6718
   XZ=    -0.9722   YZ=     0.5955   ZZ=    29.0633
   Eigenvalues:    28.2217    29.4038    39.1829
     25  H    Isotropic =    31.9390   Anisotropy =     6.6259
   XX=    31.4707   YX=     0.4139   ZX=     1.1382
   XY=    -0.3466   YY=    35.9782   ZY=     1.5114
   XZ=     1.0001   YZ=     1.8973   ZZ=    28.3682
   Eigenvalues:    27.7161    31.7447    36.3563
     26  H    Isotropic =    32.0104   Anisotropy =     7.8673
   XX=    32.0465   YX=     1.4214   ZX=     2.4028
   XY=     2.1112   YY=    33.1574   ZY=     3.7218
   XZ=     2.3649   YZ=     3.3041   ZZ=    30.8271
   Eigenvalues:    28.0203    30.7555    37.2552
     27  H    Isotropic =    32.3576   Anisotropy =    10.4375
   XX=    36.7256   YX=    -3.5831   ZX=    -2.8992
   XY=    -3.2773   YY=    31.2638   ZY=     1.0976
   XZ=    -2.8583   YZ=     1.2147   ZZ=    29.0833
   Eigenvalues:    28.1202    29.6365    39.3159
     28  H    Isotropic =    31.8976   Anisotropy =     8.0060
   XX=    29.1959   YX=    -0.9967   ZX=    -0.8157
   XY=    -0.7233   YY=    33.0929   ZY=    -4.3584
   XZ=    -0.7754   YZ=    -3.6083   ZZ=    33.4041
   Eigenvalues:    28.0572    30.4008    37.2350
     29  H    Isotropic =    31.3671   Anisotropy =    10.9090
   XX=    30.9145   YX=     1.5958   ZX=    -3.6190
   XY=     1.8381   YY=    27.4006   ZY=    -2.6465
   XZ=    -3.9006   YZ=    -2.3499   ZZ=    35.7863
   Eigenvalues:    26.5518    28.9097    38.6398
     30  H    Isotropic =    30.8367   Anisotropy =     5.6932
   XX=    29.9779   YX=    -3.0721   ZX=    -0.5923
   XY=    -3.1224   YY=    32.2786   ZY=    -1.3023
   XZ=    -0.2147   YZ=    -1.4886   ZZ=    30.2536
   Eigenvalues:    27.3650    30.5130    34.6322
     31  H    Isotropic =    30.9493   Anisotropy =     8.4833
   XX=    29.7532   YX=     3.3446   ZX=     2.7859
   XY=     2.7769   YY=    28.8161   ZY=     1.2549
   XZ=     2.9758   YZ=     1.5226   ZZ=    34.2787
   Eigenvalues:    26.0868    30.1564    36.6049
     32  H    Isotropic =    30.4291   Anisotropy =     4.9716
   XX=    29.7929   YX=     0.6372   ZX=     4.2674
   XY=     0.8453   YY=    32.5567   ZY=    -1.3576
   XZ=     4.2320   YZ=    -1.2282   ZZ=    28.9376
   Eigenvalues:    24.8196    32.7241    33.7435
     33  H    Isotropic =    30.1582   Anisotropy =     8.7115
   XX=    33.2673   YX=     3.7842   ZX=    -3.2384
   XY=     3.5162   YY=    29.9965   ZY=     1.9792
   XZ=    -3.1865   YZ=     2.1999   ZZ=    27.2107
   Eigenvalues:    23.8042    30.7044    35.9659
     34  H    Isotropic =    31.2455   Anisotropy =    10.3331
   XX=    34.1546   YX=     4.0641   ZX=    -3.7031
   XY=     4.5594   YY=    29.7367   ZY=    -1.1389
   XZ=    -2.7919   YZ=    -0.9915   ZZ=    29.8453
   Eigenvalues:    26.7856    28.8167    38.1342
     35  H    Isotropic =    30.7699   Anisotropy =     7.8874
   XX=    30.5796   YX=     0.8607   ZX=     5.0713
   XY=     1.6786   YY=    30.3305   ZY=    -0.8960
   XZ=     4.9319   YZ=    -0.5385   ZZ=    31.3997
   Eigenvalues:    25.5488    30.7328    36.0282
     36  H    Isotropic =    30.9970   Anisotropy =    10.7799
   XX=    29.0237   YX=     1.1841   ZX=     0.4578
   XY=     0.5228   YY=    36.2401   ZY=     4.0443
   XZ=     0.1045   YZ=     4.7294   ZZ=    27.7272
   Eigenvalues:    25.8694    28.9379    38.1836
     37  C    Isotropic =   138.4014   Anisotropy =    27.3955
   XX=   143.1721   YX=    -0.5492   ZX=    -5.7055
   XY=    -4.2136   YY=   152.7120   ZY=    10.1964
   XZ=     3.2922   YZ=    12.3169   ZZ=   119.3202
   Eigenvalues:   115.8722   142.6669   156.6651
     38  C    Isotropic =    48.0628   Anisotropy =   170.8814
   XX=    27.3926   YX=    64.1845   ZX=    98.4575
   XY=    67.9860   YY=    63.1441   ZY=     4.2385
   XZ=    93.6159   YZ=     4.2673   ZZ=    53.6518
   Eigenvalues:   -73.8428    56.0476   161.9838
     39  C    Isotropic =    62.2624   Anisotropy =   143.7031
   XX=    36.6246   YX=    61.1446   ZX=    82.3049
   XY=    65.3641   YY=    74.5522   ZY=    -6.5633
   XZ=    80.5535   YZ=    -3.2075   ZZ=    75.6104
   Eigenvalues:   -50.9489    79.6717   158.0645
     40  H    Isotropic =    30.0550   Anisotropy =     4.3830
   XX=    32.1625   YX=    -0.1172   ZX=    -3.1290
   XY=    -0.5728   YY=    31.9234   ZY=     0.1908
   XZ=    -1.1750   YZ=     0.0829   ZZ=    26.0789
   Eigenvalues:    25.3946    31.7934    32.9769
     41  H    Isotropic =    29.3636   Anisotropy =     3.2282
   XX=    29.1158   YX=    -0.4827   ZX=     2.0951
   XY=     0.9844   YY=    29.2513   ZY=     1.4221
   XZ=     1.5257   YZ=     0.1535   ZZ=    29.7235
   Eigenvalues:    27.5200    29.0550    31.5157
     42  H    Isotropic =    26.1617   Anisotropy =     6.6964
   XX=    23.1090   YX=    -1.1993   ZX=     0.3821
   XY=    -0.4093   YY=    30.5280   ZY=    -0.2147
   XZ=    -0.1945   YZ=     0.7600   ZZ=    24.8481
   Eigenvalues:    23.0147    24.8444    30.6260
     43  H    Isotropic =    26.7423   Anisotropy =     6.3569
   XX=    24.3361   YX=     0.1276   ZX=     0.5752
   XY=    -0.7909   YY=    30.4417   ZY=    -1.0626
   XZ=     1.5968   YZ=    -2.1722   ZZ=    25.4490
   Eigenvalues:    23.6186    25.6280    30.9802
     44  H    Isotropic =    26.6775   Anisotropy =     7.1926
   XX=    23.9717   YX=     0.5430   ZX=     1.4581
   XY=     2.0964   YY=    30.3782   ZY=    -3.4043
   XZ=     0.4279   YZ=    -1.3500   ZZ=    25.6827
   Eigenvalues:    22.8515    25.7085    31.4726
 End of Minotr F.D. properties file   721 does not exist.
 End of Minotr F.D. properties file   722 does not exist.
 End of Minotr F.D. properties file   788 does not exist.

 **********************************************************************

            Population analysis using the SCF density.

 **********************************************************************

 Orbital symmetries:
       Occupied  (A) (A) (A) (A) (A) (A) (A) (A) (A) (A) (A) (A)
                 (A) (A) (A) (A) (A) (A) (A) (A) (A) (A) (A) (A)
                 (A) (A) (A) (A) (A) (A) (A) (A) (A) (A) (A) (A)
                 (A) (A) (A) (A) (A) (A) (A) (A) (A) (A) (A) (A)
                 (A) (A) (A) (A) (A) (A) (A) (A) (A) (A) (A) (A)
                 (A) (A) (A) (A) (A) (A) (A) (A) (A) (A) (A) (A)
                 (A) (A)
       Virtual   (A) (A) (A) (A) (A) (A) (A) (A) (A) (A) (A) (A)
                 (A) (A) (A) (A) (A) (A) (A) (A) (A) (A) (A) (A)
                 (A) (A) (A) (A) (A) (A) (A) (A) (A) (A) (A) (A)
                 (A) (A) (A) (A) (A) (A) (A) (A) (A) (A) (A) (A)
                 (A) (A) (A) (A) (A) (A) (A) (A) (A) (A) (A) (A)
                 (A) (A) (A) (A) (A) (A) (A) (A) (A) (A) (A) (A)
                 (A) (A) (A) (A) (A) (A) (A) (A) (A) (A) (A) (A)
                 (A) (A) (A) (A) (A) (A) (A) (A) (A) (A) (A) (A)
                 (A) (A) (A) (A) (A) (A) (A) (A) (A) (A) (A) (A)
                 (A) (A) (A) (A) (A) (A) (A) (A) (A) (A) (A) (A)
                 (A) (A) (A) (A) (A) (A) (A) (A) (A) (A) (A) (A)
                 (A) (A) (A) (A) (A) (A) (A) (A) (A) (A) (A) (A)
                 (A) (A) (A) (A) (A) (A) (A) (A) (A) (A) (A) (A)
                 (A) (A) (A) (A) (A) (A) (A) (A) (A) (A) (A) (A)
                 (A) (A) (A) (A) (A) (A) (A) (A) (A) (A) (A) (A)
                 (A) (A) (A) (A) (A) (A) (A) (A) (A) (A) (A) (A)
                 (A) (A) (A) (A) (A) (A) (A) (A) (A) (A) (A) (A)
                 (A) (A) (A) (A) (A) (A) (A) (A) (A) (A) (A) (A)
                 (A) (A) (A) (A) (A) (A) (A) (A) (A) (A) (A) (A)
                 (A) (A) (A) (A) (A) (A) (A) (A) (A) (A) (A) (A)
                 (A) (A) (A) (A) (A) (A) (A) (A) (A) (A) (A) (A)
                 (A) (A) (A) (A) (A) (A) (A) (A) (A) (A) (A) (A)
                 (A) (A) (A) (A) (A) (A) (A) (A) (A) (A) (A) (A)
                 (A) (A) (A) (A) (A) (A) (A) (A) (A) (A) (A) (A)
                 (A) (A) (A) (A) (A) (A) (A) (A) (A) (A) (A) (A)
                 (A) (A) (A) (A) (A) (A) (A) (A) (A) (A) (A) (A)
                 (A) (A) (A) (A) (A) (A) (A) (A) (A) (A) (A) (A)
                 (A) (A) (A) (A) (A) (A) (A) (A) (A) (A) (A) (A)
 The electronic state is 1-A.
 Alpha  occ. eigenvalues --  -66.27443 -19.25534 -19.20577 -19.19262 -10.36505
 Alpha  occ. eigenvalues --  -10.31951 -10.30081 -10.25151 -10.24830 -10.24515
 Alpha  occ. eigenvalues --  -10.24459 -10.23484 -10.23241 -10.22592 -10.22045
 Alpha  occ. eigenvalues --  -10.21098 -10.20828 -10.20727  -5.33178  -3.67064
 Alpha  occ. eigenvalues --   -3.66775  -3.66757  -1.12898  -1.04539  -1.03868
 Alpha  occ. eigenvalues --   -0.85605  -0.82935  -0.80020  -0.78039  -0.73882
 Alpha  occ. eigenvalues --   -0.73017  -0.71716  -0.70400  -0.70158  -0.66323
 Alpha  occ. eigenvalues --   -0.63983  -0.62404  -0.58067  -0.54534  -0.53910
 Alpha  occ. eigenvalues --   -0.51689  -0.50876  -0.49538  -0.48416  -0.46975
 Alpha  occ. eigenvalues --   -0.46086  -0.45608  -0.45169  -0.43836  -0.43444
 Alpha  occ. eigenvalues --   -0.42616  -0.42527  -0.41913  -0.41725  -0.41034
 Alpha  occ. eigenvalues --   -0.40782  -0.40299  -0.39798  -0.39515  -0.39393
 Alpha  occ. eigenvalues --   -0.38363  -0.38080  -0.37525  -0.36307  -0.35555
 Alpha  occ. eigenvalues --   -0.35119  -0.34613  -0.33568  -0.32099  -0.30668
 Alpha  occ. eigenvalues --   -0.30031  -0.29704  -0.28365  -0.26890
 Alpha virt. eigenvalues --   -0.00256   0.01739   0.03731   0.05066   0.06308
 Alpha virt. eigenvalues --    0.06391   0.07276   0.07785   0.08199   0.08897
 Alpha virt. eigenvalues --    0.09112   0.10254   0.10625   0.11396   0.11422
 Alpha virt. eigenvalues --    0.11926   0.12393   0.12961   0.13114   0.13647
 Alpha virt. eigenvalues --    0.14335   0.14492   0.14911   0.15497   0.15923
 Alpha virt. eigenvalues --    0.16167   0.17033   0.17112   0.17794   0.18378
 Alpha virt. eigenvalues --    0.18895   0.19754   0.20162   0.20542   0.21664
 Alpha virt. eigenvalues --    0.22265   0.23012   0.23277   0.24138   0.24576
 Alpha virt. eigenvalues --    0.25125   0.26073   0.26917   0.27306   0.27987
 Alpha virt. eigenvalues --    0.29418   0.30361   0.30612   0.31898   0.32272
 Alpha virt. eigenvalues --    0.32635   0.34018   0.34496   0.34946   0.35620
 Alpha virt. eigenvalues --    0.36428   0.38207   0.38838   0.39663   0.40487
 Alpha virt. eigenvalues --    0.41356   0.42320   0.42834   0.43890   0.44397
 Alpha virt. eigenvalues --    0.45173   0.45428   0.46700   0.48187   0.48518
 Alpha virt. eigenvalues --    0.50243   0.50988   0.51789   0.52119   0.52757
 Alpha virt. eigenvalues --    0.53508   0.53685   0.54987   0.55389   0.55924
 Alpha virt. eigenvalues --    0.56292   0.57059   0.57687   0.57945   0.58940
 Alpha virt. eigenvalues --    0.59410   0.59674   0.59772   0.60928   0.61008
 Alpha virt. eigenvalues --    0.61681   0.62025   0.62467   0.63077   0.63113
 Alpha virt. eigenvalues --    0.63394   0.63879   0.63989   0.65197   0.65669
 Alpha virt. eigenvalues --    0.66275   0.66394   0.67398   0.68001   0.68383
 Alpha virt. eigenvalues --    0.68638   0.69445   0.70348   0.71023   0.71514
 Alpha virt. eigenvalues --    0.72416   0.72685   0.73109   0.74072   0.75510
 Alpha virt. eigenvalues --    0.76281   0.77653   0.78402   0.79713   0.81094
 Alpha virt. eigenvalues --    0.82030   0.82630   0.84252   0.86289   0.86712
 Alpha virt. eigenvalues --    0.89361   0.89770   0.90885   0.93874   0.94263
 Alpha virt. eigenvalues --    0.94962   0.95206   0.97353   0.98110   1.00452
 Alpha virt. eigenvalues --    1.01863   1.03953   1.05776   1.07687   1.11109
 Alpha virt. eigenvalues --    1.12390   1.15064   1.17379   1.19312   1.19866
 Alpha virt. eigenvalues --    1.22081   1.23257   1.25338   1.26843   1.27661
 Alpha virt. eigenvalues --    1.29497   1.29874   1.31591   1.32076   1.33257
 Alpha virt. eigenvalues --    1.35540   1.37236   1.40212   1.40678   1.41182
 Alpha virt. eigenvalues --    1.42259   1.43709   1.45750   1.47197   1.49369
 Alpha virt. eigenvalues --    1.50760   1.52177   1.52816   1.53279   1.54128
 Alpha virt. eigenvalues --    1.54373   1.55482   1.55851   1.57402   1.57817
 Alpha virt. eigenvalues --    1.58606   1.59648   1.60178   1.60463   1.60700
 Alpha virt. eigenvalues --    1.61423   1.62090   1.62365   1.64490   1.65134
 Alpha virt. eigenvalues --    1.65706   1.66431   1.67260   1.67562   1.68294
 Alpha virt. eigenvalues --    1.69291   1.71396   1.73654   1.74403   1.75290
 Alpha virt. eigenvalues --    1.76342   1.76904   1.78389   1.80894   1.81849
 Alpha virt. eigenvalues --    1.82409   1.83558   1.84644   1.85513   1.86799
 Alpha virt. eigenvalues --    1.88554   1.91435   1.93102   1.93717   1.97040
 Alpha virt. eigenvalues --    2.01525   2.04871   2.06182   2.08266   2.10943
 Alpha virt. eigenvalues --    2.15359   2.17954   2.18873   2.22077   2.24591
 Alpha virt. eigenvalues --    2.26290   2.29571   2.32604   2.35446   2.40057
 Alpha virt. eigenvalues --    2.40880   2.41914   2.42304   2.42644   2.43246
 Alpha virt. eigenvalues --    2.44886   2.45163   2.45737   2.46768   2.47113
 Alpha virt. eigenvalues --    2.48035   2.48237   2.49674   2.51867   2.51941
 Alpha virt. eigenvalues --    2.54354   2.55563   2.57649   2.58233   2.62438
 Alpha virt. eigenvalues --    2.62716   2.63071   2.63761   2.72696   2.79986
 Alpha virt. eigenvalues --    2.83161   2.87543   2.87610   2.90216   2.91371
 Alpha virt. eigenvalues --    2.91740   2.92835   2.93144   2.94788   2.97034
 Alpha virt. eigenvalues --    2.98999   3.00672   3.01393   3.04159   3.07745
 Alpha virt. eigenvalues --    3.08837   3.11460   3.13405   3.14482   3.16035
 Alpha virt. eigenvalues --    3.16289   3.16736   3.18879   3.20715   3.21429
 Alpha virt. eigenvalues --    3.22393   3.22996   3.23371   3.24151   3.25462
 Alpha virt. eigenvalues --    3.26807   3.27258   3.27956   3.29225   3.31260
 Alpha virt. eigenvalues --    3.34058   3.34719   3.36349   3.38566   3.43136
 Alpha virt. eigenvalues --    3.44354   3.52402   3.56255   3.57688   3.61533
 Alpha virt. eigenvalues --    3.78430   3.86853   3.91137   3.98382   4.00559
 Alpha virt. eigenvalues --    4.11581   4.12713   4.15694   4.17819   4.26762
 Alpha virt. eigenvalues --    4.95537   5.01038   5.02562   5.11129   5.17857
 Alpha virt. eigenvalues --    5.24213   5.53651   5.55190   5.76806   5.84426
 Alpha virt. eigenvalues --   11.52721  11.53517  11.57168  23.41237  23.48721
 Alpha virt. eigenvalues --   23.54291  23.54345  23.57520  23.61013  23.71191
 Alpha virt. eigenvalues --   23.75807  23.79316  23.80527  23.82980  23.85175
 Alpha virt. eigenvalues --   23.91303  24.28906  49.99544  50.05489  50.12478
 Alpha virt. eigenvalues --  141.28460
          Condensed to atoms (all electrons):
               1          2          3          4          5          6
     1  C    5.188107   0.376617  -0.054294  -0.018269  -0.052072   0.404657
     2  C    0.376617   5.489275   0.270039  -0.060912  -0.018827  -0.037328
     3  C   -0.054294   0.270039   5.160016   0.193588  -0.018581   0.007180
     4  C   -0.018269  -0.060912   0.193588   5.918262   0.243137  -0.000367
     5  C   -0.052072  -0.018827  -0.018581   0.243137   4.385252   0.002571
     6  H    0.404657  -0.037328   0.007180  -0.000367   0.002571   0.468205
     7  H   -0.066135   0.410036  -0.052313   0.004361  -0.001238  -0.010571
     8  H   -0.000227   0.004690  -0.036327   0.359249  -0.025524   0.000159
     9  H   -0.000603  -0.000787  -0.032141   0.363233  -0.026436  -0.000043
    10  O    0.198720  -0.030685   0.000741  -0.104494   0.336895  -0.027537
    11  O    0.003581  -0.001584   0.005877  -0.099488   0.684040  -0.000216
    12  C    0.288506  -0.072583  -0.013106  -0.000506  -0.010234  -0.053156
    13  C   -0.077270   0.008124  -0.000508   0.000221   0.000629  -0.006629
    14  C   -0.071932   0.286151  -0.069568   0.006328   0.000440  -0.005020
    15  O   -0.003756  -0.066797   0.207829  -0.041512   0.001000  -0.000373
    16  Si  -0.000338   0.005277  -0.044038  -0.011721   0.001065  -0.000035
    17  C    0.000016   0.000082   0.002385  -0.000276  -0.000004   0.000000
    18  C   -0.000009  -0.000389   0.001246  -0.003980  -0.000072  -0.000001
    19  C    0.000003  -0.000143   0.000831  -0.000351  -0.000001   0.000000
    20  H    0.000000   0.000006  -0.000085   0.000173   0.000002   0.000000
    21  H   -0.000001  -0.000079   0.000062   0.000499  -0.000063   0.000000
    22  H   -0.000001  -0.000050   0.000542   0.000223  -0.000075   0.000000
    23  H    0.000003   0.000051   0.000470  -0.000030   0.000000   0.000000
    24  H    0.000000   0.000008  -0.000074   0.000003   0.000000   0.000000
    25  H    0.000000  -0.000019   0.000185  -0.000035   0.000001   0.000000
    26  H   -0.000016  -0.000004  -0.000026   0.000012  -0.000001   0.000002
    27  H   -0.000001   0.000004  -0.000062  -0.000003   0.000000   0.000000
    28  H   -0.000002   0.000073  -0.000101  -0.000028   0.000001   0.000002
    29  H   -0.004153  -0.040667   0.008428  -0.000236   0.000007   0.005105
    30  H   -0.008073  -0.032545  -0.010483   0.000386  -0.000034  -0.000657
    31  H    0.006899  -0.030976  -0.006182   0.000037  -0.000062  -0.000178
    32  H   -0.037162  -0.005086   0.000432  -0.000176   0.000348  -0.001337
    33  H   -0.035044  -0.004550   0.000407  -0.000261   0.000110   0.006409
    34  H   -0.003484  -0.000134   0.000020  -0.000008  -0.000023   0.005479
    35  H   -0.010975   0.000215  -0.000078   0.000489   0.000898  -0.000253
    36  H    0.007543  -0.000240   0.000009   0.000021  -0.000047  -0.000146
    37  C    0.006490  -0.099235   0.346922  -0.063845   0.000785  -0.000440
    38  C   -0.000342  -0.002294  -0.057306  -0.010850  -0.000558   0.000045
    39  C   -0.000090   0.001123  -0.004561   0.001296   0.000475   0.000004
    40  H   -0.000153   0.005722  -0.029095  -0.008847   0.000093   0.000008
    41  H   -0.000022  -0.009452  -0.047858   0.008047  -0.000255  -0.000006
    42  H    0.000391  -0.000311  -0.001289  -0.000829   0.000063   0.000044
    43  H   -0.000004   0.000045  -0.000225   0.000044   0.000053   0.000001
    44  H    0.000002   0.000021  -0.000154  -0.000129   0.000050   0.000000
               7          8          9         10         11         12
     1  C   -0.066135  -0.000227  -0.000603   0.198720   0.003581   0.288506
     2  C    0.410036   0.004690  -0.000787  -0.030685  -0.001584  -0.072583
     3  C   -0.052313  -0.036327  -0.032141   0.000741   0.005877  -0.013106
     4  C    0.004361   0.359249   0.363233  -0.104494  -0.099488  -0.000506
     5  C   -0.001238  -0.025524  -0.026436   0.336895   0.684040  -0.010234
     6  H   -0.010571   0.000159  -0.000043  -0.027537  -0.000216  -0.053156
     7  H    0.475698  -0.000748   0.000105   0.004661  -0.000753   0.011043
     8  H   -0.000748   0.419472  -0.013914   0.005143   0.010367   0.000051
     9  H    0.000105  -0.013914   0.407664   0.000593   0.001029   0.000935
    10  O    0.004661   0.005143   0.000593   8.047953  -0.078018  -0.044552
    11  O   -0.000753   0.010367   0.001029  -0.078018   7.859496  -0.000261
    12  C    0.011043   0.000051   0.000935  -0.044552  -0.000261   5.370286
    13  C   -0.000313  -0.000035   0.000259  -0.003047   0.000012   0.303474
    14  C   -0.028777  -0.000197  -0.000285   0.004325  -0.000004   0.003481
    15  O    0.003726   0.001428  -0.005339  -0.000015  -0.000020   0.006376
    16  Si  -0.000208   0.000875  -0.000317  -0.000252  -0.000149  -0.000697
    17  C    0.000004   0.000013  -0.000357   0.000000   0.000000   0.000012
    18  C    0.000009  -0.001286   0.000522  -0.000001  -0.000001   0.000016
    19  C    0.000003  -0.000022   0.000042   0.000000   0.000000   0.000003
    20  H    0.000000   0.000053   0.000070   0.000000   0.000000  -0.000001
    21  H    0.000001  -0.000424   0.002336   0.000002   0.000004  -0.000014
    22  H    0.000002   0.000549  -0.000533  -0.000001  -0.000011   0.000001
    23  H    0.000000   0.000001  -0.000004   0.000000   0.000000   0.000000
    24  H    0.000000  -0.000001   0.000001   0.000000   0.000000   0.000000
    25  H    0.000001  -0.000003   0.000004   0.000000   0.000000   0.000000
    26  H   -0.000001   0.000005  -0.000017   0.000001   0.000000   0.000208
    27  H    0.000000  -0.000001   0.000006   0.000000   0.000000   0.000002
    28  H    0.000000   0.000001  -0.000019   0.000000   0.000000   0.000052
    29  H   -0.005399   0.000018   0.000014   0.000062   0.000001  -0.001057
    30  H    0.006449  -0.000025   0.000004  -0.000011  -0.000001   0.003083
    31  H   -0.005576   0.000003  -0.000005  -0.000156   0.000000  -0.000084
    32  H   -0.000396   0.000003   0.000096   0.003699   0.000005   0.385781
    33  H   -0.000477   0.000647   0.003051   0.000375  -0.000139   0.385008
    34  H   -0.000043   0.000003  -0.000018  -0.000324   0.000000  -0.039760
    35  H   -0.000025  -0.000017   0.000047   0.010096  -0.000122  -0.036431
    36  H    0.000023  -0.000001  -0.000007  -0.000043   0.000000  -0.037148
    37  C   -0.009530  -0.005478   0.003360   0.000121  -0.000249   0.000195
    38  C    0.005831   0.000473   0.000577  -0.000255  -0.000120  -0.000035
    39  C    0.000865   0.004918   0.000031  -0.000045   0.000040   0.000000
    40  H    0.000308   0.000602   0.000026  -0.000002  -0.000018   0.000004
    41  H    0.000435   0.000742  -0.000177   0.000017  -0.000002  -0.000005
    42  H    0.001841   0.000068  -0.000002  -0.000126   0.000121  -0.000027
    43  H   -0.000030   0.000106  -0.000002  -0.000002   0.000064   0.000000
    44  H    0.000005   0.000473  -0.000003  -0.000002   0.000024   0.000000
              13         14         15         16         17         18
     1  C   -0.077270  -0.071932  -0.003756  -0.000338   0.000016  -0.000009
     2  C    0.008124   0.286151  -0.066797   0.005277   0.000082  -0.000389
     3  C   -0.000508  -0.069568   0.207829  -0.044038   0.002385   0.001246
     4  C    0.000221   0.006328  -0.041512  -0.011721  -0.000276  -0.003980
     5  C    0.000629   0.000440   0.001000   0.001065  -0.000004  -0.000072
     6  H   -0.006629  -0.005020  -0.000373  -0.000035   0.000000  -0.000001
     7  H   -0.000313  -0.028777   0.003726  -0.000208   0.000004   0.000009
     8  H   -0.000035  -0.000197   0.001428   0.000875   0.000013  -0.001286
     9  H    0.000259  -0.000285  -0.005339  -0.000317  -0.000357   0.000522
    10  O   -0.003047   0.004325  -0.000015  -0.000252   0.000000  -0.000001
    11  O    0.000012  -0.000004  -0.000020  -0.000149   0.000000  -0.000001
    12  C    0.303474   0.003481   0.006376  -0.000697   0.000012   0.000016
    13  C    5.358652  -0.000376   0.000275   0.000310  -0.000006   0.000000
    14  C   -0.000376   5.378172   0.001228  -0.000672  -0.000081   0.000022
    15  O    0.000275   0.001228   8.297474   0.343119  -0.029941  -0.023909
    16  Si   0.000310  -0.000672   0.343119  11.506725   0.333707   0.312993
    17  C   -0.000006  -0.000081  -0.029941   0.333707   5.722762  -0.043469
    18  C    0.000000   0.000022  -0.023909   0.312993  -0.043469   5.780725
    19  C    0.000000   0.000000  -0.024038   0.315294  -0.047844  -0.053700
    20  H    0.000000   0.000000   0.000863  -0.011949  -0.000248   0.363396
    21  H   -0.000001   0.000002  -0.002092  -0.025771  -0.000333   0.368919
    22  H    0.000000   0.000003  -0.001107  -0.028284   0.002393   0.368722
    23  H    0.000000   0.000097  -0.002049  -0.024892  -0.000487   0.002059
    24  H    0.000000  -0.000001   0.000934  -0.012135  -0.000088   0.000467
    25  H    0.000000  -0.000023  -0.001525  -0.028133   0.002284  -0.001358
    26  H   -0.000012   0.000001  -0.001697  -0.024084   0.369616  -0.000633
    27  H    0.000000  -0.000003   0.001168  -0.014115   0.361087  -0.000062
    28  H   -0.000005   0.000045  -0.001705  -0.023555   0.370339   0.002089
    29  H   -0.000165   0.387947   0.000465   0.000276  -0.000002   0.000001
    30  H    0.000143   0.385795   0.005557  -0.000176   0.000275   0.000015
    31  H    0.000018   0.383929  -0.000762  -0.000860  -0.000005   0.000003
    32  H   -0.039113  -0.000247  -0.000203  -0.000377   0.000018   0.000000
    33  H   -0.044062  -0.000179   0.002692   0.000325   0.000162  -0.000138
    34  H    0.383448   0.000000  -0.000007  -0.000012   0.000000   0.000000
    35  H    0.384783  -0.000066   0.000002  -0.000001   0.000000   0.000000
    36  H    0.392415   0.000005  -0.000003  -0.000010   0.000002   0.000000
    37  C    0.000015  -0.001421  -0.035980  -0.001377  -0.000089  -0.003197
    38  C   -0.000001   0.000327   0.004538   0.002132   0.000003   0.000053
    39  C    0.000000  -0.000066  -0.000035  -0.000186   0.000000  -0.000044
    40  H    0.000000  -0.000019  -0.004312   0.008021  -0.000030   0.002530
    41  H    0.000000   0.002796   0.000069  -0.002733  -0.000044   0.000204
    42  H    0.000000   0.000394  -0.000095  -0.000027   0.000000  -0.000003
    43  H    0.000000   0.000000   0.000004   0.000030   0.000000  -0.000001
    44  H    0.000000  -0.000003  -0.000027  -0.000197   0.000000  -0.000006
              19         20         21         22         23         24
     1  C    0.000003   0.000000  -0.000001  -0.000001   0.000003   0.000000
     2  C   -0.000143   0.000006  -0.000079  -0.000050   0.000051   0.000008
     3  C    0.000831  -0.000085   0.000062   0.000542   0.000470  -0.000074
     4  C   -0.000351   0.000173   0.000499   0.000223  -0.000030   0.000003
     5  C   -0.000001   0.000002  -0.000063  -0.000075   0.000000   0.000000
     6  H    0.000000   0.000000   0.000000   0.000000   0.000000   0.000000
     7  H    0.000003   0.000000   0.000001   0.000002   0.000000   0.000000
     8  H   -0.000022   0.000053  -0.000424   0.000549   0.000001  -0.000001
     9  H    0.000042   0.000070   0.002336  -0.000533  -0.000004   0.000001
    10  O    0.000000   0.000000   0.000002  -0.000001   0.000000   0.000000
    11  O    0.000000   0.000000   0.000004  -0.000011   0.000000   0.000000
    12  C    0.000003  -0.000001  -0.000014   0.000001   0.000000   0.000000
    13  C    0.000000   0.000000  -0.000001   0.000000   0.000000   0.000000
    14  C    0.000000   0.000000   0.000002   0.000003   0.000097  -0.000001
    15  O   -0.024038   0.000863  -0.002092  -0.001107  -0.002049   0.000934
    16  Si   0.315294  -0.011949  -0.025771  -0.028284  -0.024892  -0.012135
    17  C   -0.047844  -0.000248  -0.000333   0.002393  -0.000487  -0.000088
    18  C   -0.053700   0.363396   0.368919   0.368722   0.002059   0.000467
    19  C    5.767565   0.000114   0.002056  -0.001168   0.370952   0.361715
    20  H    0.000114   0.446638  -0.021301  -0.020650  -0.000057   0.000526
    21  H    0.002056  -0.021301   0.447650  -0.019162  -0.000086  -0.000042
    22  H   -0.001168  -0.020650  -0.019162   0.445188  -0.000032   0.000085
    23  H    0.370952  -0.000057  -0.000086  -0.000032   0.451639  -0.021630
    24  H    0.361715   0.000526  -0.000042   0.000085  -0.021630   0.455965
    25  H    0.372322   0.000035  -0.000037   0.000604  -0.019431  -0.022762
    26  H    0.002165  -0.000074   0.001301  -0.000082  -0.000071  -0.000039
    27  H    0.000896   0.000569  -0.000041  -0.000084   0.000017   0.000734
    28  H   -0.000544  -0.000081  -0.000059  -0.000087   0.001218  -0.000119
    29  H   -0.000006   0.000000   0.000000   0.000000  -0.000009   0.000000
    30  H    0.000060  -0.000001   0.000000   0.000000   0.000122  -0.000004
    31  H    0.000233   0.000000   0.000000   0.000000   0.000250  -0.000006
    32  H   -0.000002   0.000000   0.000001   0.000000  -0.000002   0.000000
    33  H    0.000009   0.000001  -0.000059  -0.000006   0.000002   0.000000
    34  H    0.000000   0.000000   0.000000   0.000000   0.000000   0.000000
    35  H    0.000000   0.000000   0.000000   0.000000   0.000000   0.000000
    36  H    0.000000   0.000000   0.000000   0.000000   0.000000   0.000000
    37  C   -0.003302   0.000075   0.000264  -0.000270  -0.000128   0.000182
    38  C    0.000105   0.000001   0.000004   0.000058  -0.000056  -0.000002
    39  C   -0.000002   0.000000  -0.000002   0.000064   0.000002   0.000000
    40  H    0.000139  -0.000028  -0.000252   0.004327  -0.000077  -0.000018
    41  H   -0.001438  -0.000008  -0.000008   0.000049   0.000031   0.000170
    42  H   -0.000009   0.000000   0.000001   0.000004   0.000000   0.000000
    43  H    0.000000   0.000000   0.000000  -0.000006   0.000000   0.000000
    44  H   -0.000012   0.000001   0.000005   0.000221   0.000000   0.000001
              25         26         27         28         29         30
     1  C    0.000000  -0.000016  -0.000001  -0.000002  -0.004153  -0.008073
     2  C   -0.000019  -0.000004   0.000004   0.000073  -0.040667  -0.032545
     3  C    0.000185  -0.000026  -0.000062  -0.000101   0.008428  -0.010483
     4  C   -0.000035   0.000012  -0.000003  -0.000028  -0.000236   0.000386
     5  C    0.000001  -0.000001   0.000000   0.000001   0.000007  -0.000034
     6  H    0.000000   0.000002   0.000000   0.000002   0.005105  -0.000657
     7  H    0.000001  -0.000001   0.000000   0.000000  -0.005399   0.006449
     8  H   -0.000003   0.000005  -0.000001   0.000001   0.000018  -0.000025
     9  H    0.000004  -0.000017   0.000006  -0.000019   0.000014   0.000004
    10  O    0.000000   0.000001   0.000000   0.000000   0.000062  -0.000011
    11  O    0.000000   0.000000   0.000000   0.000000   0.000001  -0.000001
    12  C    0.000000   0.000208   0.000002   0.000052  -0.001057   0.003083
    13  C    0.000000  -0.000012   0.000000  -0.000005  -0.000165   0.000143
    14  C   -0.000023   0.000001  -0.000003   0.000045   0.387947   0.385795
    15  O   -0.001525  -0.001697   0.001168  -0.001705   0.000465   0.005557
    16  Si  -0.028133  -0.024084  -0.014115  -0.023555   0.000276  -0.000176
    17  C    0.002284   0.369616   0.361087   0.370339  -0.000002   0.000275
    18  C   -0.001358  -0.000633  -0.000062   0.002089   0.000001   0.000015
    19  C    0.372322   0.002165   0.000896  -0.000544  -0.000006   0.000060
    20  H    0.000035  -0.000074   0.000569  -0.000081   0.000000  -0.000001
    21  H   -0.000037   0.001301  -0.000041  -0.000059   0.000000   0.000000
    22  H    0.000604  -0.000082  -0.000084  -0.000087   0.000000   0.000000
    23  H   -0.019431  -0.000071   0.000017   0.001218  -0.000009   0.000122
    24  H   -0.022762  -0.000039   0.000734  -0.000119   0.000000  -0.000004
    25  H    0.450289  -0.000096  -0.000068  -0.000088  -0.000001   0.000000
    26  H   -0.000096   0.454495  -0.021968  -0.019290   0.000001  -0.000038
    27  H   -0.000068  -0.021968   0.460978  -0.021681   0.000000  -0.000010
    28  H   -0.000088  -0.019290  -0.021681   0.453003  -0.000002   0.000421
    29  H   -0.000001   0.000001   0.000000  -0.000002   0.470580  -0.026707
    30  H    0.000000  -0.000038  -0.000010   0.000421  -0.026707   0.446502
    31  H   -0.000004  -0.000001   0.000000  -0.000009  -0.025972  -0.024357
    32  H    0.000000   0.000023   0.000001   0.000061   0.000337   0.000930
    33  H    0.000000   0.000642   0.000017  -0.000020   0.000077   0.000030
    34  H    0.000000   0.000000   0.000000   0.000000   0.000002   0.000016
    35  H    0.000000   0.000000   0.000000   0.000000  -0.000006  -0.000009
    36  H    0.000000   0.000010   0.000000   0.000001   0.000001   0.000013
    37  C    0.000139  -0.000009   0.000007  -0.000024  -0.000365   0.000418
    38  C    0.000082   0.000001   0.000000   0.000000   0.000012  -0.000051
    39  C    0.000022   0.000000   0.000000   0.000000   0.000003   0.000002
    40  H    0.001935   0.000000   0.000012   0.000005   0.000012  -0.000023
    41  H   -0.000331  -0.000001  -0.000001  -0.000012   0.000005  -0.000027
    42  H   -0.000005   0.000000   0.000000   0.000000   0.000036  -0.000032
    43  H   -0.000001   0.000000   0.000000   0.000000   0.000000   0.000000
    44  H   -0.000009   0.000000   0.000000   0.000000   0.000000   0.000000
              31         32         33         34         35         36
     1  C    0.006899  -0.037162  -0.035044  -0.003484  -0.010975   0.007543
     2  C   -0.030976  -0.005086  -0.004550  -0.000134   0.000215  -0.000240
     3  C   -0.006182   0.000432   0.000407   0.000020  -0.000078   0.000009
     4  C    0.000037  -0.000176  -0.000261  -0.000008   0.000489   0.000021
     5  C   -0.000062   0.000348   0.000110  -0.000023   0.000898  -0.000047
     6  H   -0.000178  -0.001337   0.006409   0.005479  -0.000253  -0.000146
     7  H   -0.005576  -0.000396  -0.000477  -0.000043  -0.000025   0.000023
     8  H    0.000003   0.000003   0.000647   0.000003  -0.000017  -0.000001
     9  H   -0.000005   0.000096   0.003051  -0.000018   0.000047  -0.000007
    10  O   -0.000156   0.003699   0.000375  -0.000324   0.010096  -0.000043
    11  O    0.000000   0.000005  -0.000139   0.000000  -0.000122   0.000000
    12  C   -0.000084   0.385781   0.385008  -0.039760  -0.036431  -0.037148
    13  C    0.000018  -0.039113  -0.044062   0.383448   0.384783   0.392415
    14  C    0.383929  -0.000247  -0.000179   0.000000  -0.000066   0.000005
    15  O   -0.000762  -0.000203   0.002692  -0.000007   0.000002  -0.000003
    16  Si  -0.000860  -0.000377   0.000325  -0.000012  -0.000001  -0.000010
    17  C   -0.000005   0.000018   0.000162   0.000000   0.000000   0.000002
    18  C    0.000003   0.000000  -0.000138   0.000000   0.000000   0.000000
    19  C    0.000233  -0.000002   0.000009   0.000000   0.000000   0.000000
    20  H    0.000000   0.000000   0.000001   0.000000   0.000000   0.000000
    21  H    0.000000   0.000001  -0.000059   0.000000   0.000000   0.000000
    22  H    0.000000   0.000000  -0.000006   0.000000   0.000000   0.000000
    23  H    0.000250  -0.000002   0.000002   0.000000   0.000000   0.000000
    24  H   -0.000006   0.000000   0.000000   0.000000   0.000000   0.000000
    25  H   -0.000004   0.000000   0.000000   0.000000   0.000000   0.000000
    26  H   -0.000001   0.000023   0.000642   0.000000   0.000000   0.000010
    27  H    0.000000   0.000001   0.000017   0.000000   0.000000   0.000000
    28  H   -0.000009   0.000061  -0.000020   0.000000   0.000000   0.000001
    29  H   -0.025972   0.000337   0.000077   0.000002  -0.000006   0.000001
    30  H   -0.024357   0.000930   0.000030   0.000016  -0.000009   0.000013
    31  H    0.461049   0.000317  -0.000092  -0.000004   0.000004  -0.000001
    32  H    0.000317   0.480239  -0.026157  -0.004741   0.006888  -0.004242
    33  H   -0.000092  -0.026157   0.467399   0.007060  -0.004671  -0.004729
    34  H   -0.000004  -0.004741   0.007060   0.485207  -0.028130  -0.027460
    35  H    0.000004   0.006888  -0.004671  -0.028130   0.466394  -0.025502
    36  H   -0.000001  -0.004242  -0.004729  -0.027460  -0.025502   0.471218
    37  C    0.002887  -0.000050   0.000177   0.000000  -0.000001  -0.000001
    38  C   -0.000219   0.000006  -0.000012   0.000000   0.000000   0.000000
    39  C   -0.000033   0.000000   0.000000   0.000000   0.000000   0.000000
    40  H    0.000125  -0.000001   0.000010   0.000000   0.000000   0.000000
    41  H    0.002721  -0.000004  -0.000010   0.000000   0.000000   0.000000
    42  H    0.000451   0.000002   0.000003   0.000000   0.000000   0.000000
    43  H   -0.000001   0.000000   0.000000   0.000000   0.000000   0.000000
    44  H    0.000002   0.000000   0.000000   0.000000   0.000000   0.000000
              37         38         39         40         41         42
     1  C    0.006490  -0.000342  -0.000090  -0.000153  -0.000022   0.000391
     2  C   -0.099235  -0.002294   0.001123   0.005722  -0.009452  -0.000311
     3  C    0.346922  -0.057306  -0.004561  -0.029095  -0.047858  -0.001289
     4  C   -0.063845  -0.010850   0.001296  -0.008847   0.008047  -0.000829
     5  C    0.000785  -0.000558   0.000475   0.000093  -0.000255   0.000063
     6  H   -0.000440   0.000045   0.000004   0.000008  -0.000006   0.000044
     7  H   -0.009530   0.005831   0.000865   0.000308   0.000435   0.001841
     8  H   -0.005478   0.000473   0.004918   0.000602   0.000742   0.000068
     9  H    0.003360   0.000577   0.000031   0.000026  -0.000177  -0.000002
    10  O    0.000121  -0.000255  -0.000045  -0.000002   0.000017  -0.000126
    11  O   -0.000249  -0.000120   0.000040  -0.000018  -0.000002   0.000121
    12  C    0.000195  -0.000035   0.000000   0.000004  -0.000005  -0.000027
    13  C    0.000015  -0.000001   0.000000   0.000000   0.000000   0.000000
    14  C   -0.001421   0.000327  -0.000066  -0.000019   0.002796   0.000394
    15  O   -0.035980   0.004538  -0.000035  -0.004312   0.000069  -0.000095
    16  Si  -0.001377   0.002132  -0.000186   0.008021  -0.002733  -0.000027
    17  C   -0.000089   0.000003   0.000000  -0.000030  -0.000044   0.000000
    18  C   -0.003197   0.000053  -0.000044   0.002530   0.000204  -0.000003
    19  C   -0.003302   0.000105  -0.000002   0.000139  -0.001438  -0.000009
    20  H    0.000075   0.000001   0.000000  -0.000028  -0.000008   0.000000
    21  H    0.000264   0.000004  -0.000002  -0.000252  -0.000008   0.000001
    22  H   -0.000270   0.000058   0.000064   0.004327   0.000049   0.000004
    23  H   -0.000128  -0.000056   0.000002  -0.000077   0.000031   0.000000
    24  H    0.000182  -0.000002   0.000000  -0.000018   0.000170   0.000000
    25  H    0.000139   0.000082   0.000022   0.001935  -0.000331  -0.000005
    26  H   -0.000009   0.000001   0.000000   0.000000  -0.000001   0.000000
    27  H    0.000007   0.000000   0.000000   0.000012  -0.000001   0.000000
    28  H   -0.000024   0.000000   0.000000   0.000005  -0.000012   0.000000
    29  H   -0.000365   0.000012   0.000003   0.000012   0.000005   0.000036
    30  H    0.000418  -0.000051   0.000002  -0.000023  -0.000027  -0.000032
    31  H    0.002887  -0.000219  -0.000033   0.000125   0.002721   0.000451
    32  H   -0.000050   0.000006   0.000000  -0.000001  -0.000004   0.000002
    33  H    0.000177  -0.000012   0.000000   0.000010  -0.000010   0.000003
    34  H    0.000000   0.000000   0.000000   0.000000   0.000000   0.000000
    35  H   -0.000001   0.000000   0.000000   0.000000   0.000000   0.000000
    36  H   -0.000001   0.000000   0.000000   0.000000   0.000000   0.000000
    37  C    5.430068   0.301672  -0.052115   0.388524   0.401319  -0.050613
    38  C    0.301672   5.087247   0.627262  -0.049354  -0.038844   0.396638
    39  C   -0.052115   0.627262   5.121022   0.000342   0.001176  -0.034742
    40  H    0.388524  -0.049354   0.000342   0.446547  -0.025578   0.005112
    41  H    0.401319  -0.038844   0.001176  -0.025578   0.447193  -0.003254
    42  H   -0.050613   0.396638  -0.034742   0.005112  -0.003254   0.465924
    43  H    0.005774  -0.035051   0.389879   0.000082  -0.000321  -0.008066
    44  H   -0.008040  -0.043825   0.390344   0.004979   0.000067   0.006006
              43         44
     1  C   -0.000004   0.000002
     2  C    0.000045   0.000021
     3  C   -0.000225  -0.000154
     4  C    0.000044  -0.000129
     5  C    0.000053   0.000050
     6  H    0.000001   0.000000
     7  H   -0.000030   0.000005
     8  H    0.000106   0.000473
     9  H   -0.000002  -0.000003
    10  O   -0.000002  -0.000002
    11  O    0.000064   0.000024
    12  C    0.000000   0.000000
    13  C    0.000000   0.000000
    14  C    0.000000  -0.000003
    15  O    0.000004  -0.000027
    16  Si   0.000030  -0.000197
    17  C    0.000000   0.000000
    18  C   -0.000001  -0.000006
    19  C    0.000000  -0.000012
    20  H    0.000000   0.000001
    21  H    0.000000   0.000005
    22  H   -0.000006   0.000221
    23  H    0.000000   0.000000
    24  H    0.000000   0.000001
    25  H   -0.000001  -0.000009
    26  H    0.000000   0.000000
    27  H    0.000000   0.000000
    28  H    0.000000   0.000000
    29  H    0.000000   0.000000
    30  H    0.000000   0.000000
    31  H   -0.000001   0.000002
    32  H    0.000000   0.000000
    33  H    0.000000   0.000000
    34  H    0.000000   0.000000
    35  H    0.000000   0.000000
    36  H    0.000000   0.000000
    37  C    0.005774  -0.008040
    38  C   -0.035051  -0.043825
    39  C    0.389879   0.390344
    40  H    0.000082   0.004979
    41  H   -0.000321   0.000067
    42  H   -0.008066   0.006006
    43  H    0.448371  -0.032929
    44  H   -0.032929   0.460516
 Mulliken charges:
               1
     1  C   -0.037109
     2  C   -0.341880
     3  C    0.271246
     4  C   -0.672454
     5  C    0.496192
     6  H    0.244423
     7  H    0.257128
     8  H    0.274119
     9  H    0.297002
    10  O   -0.323838
    11  O   -0.383503
    12  C   -0.448859
    13  C   -0.661236
    14  C   -0.662546
    15  O   -0.631447
    16  Si   1.427153
    17  C   -1.041858
    18  C   -1.071734
    19  C   -1.061929
    20  H    0.241962
    21  H    0.246720
    22  H    0.248574
    23  H    0.242131
    24  H    0.236129
    25  H    0.246027
    26  H    0.239677
    27  H    0.232602
    28  H    0.240121
    29  H    0.231358
    30  H    0.253040
    31  H    0.236617
    32  H    0.240109
    33  H    0.245995
    34  H    0.222912
    35  H    0.236473
    36  H    0.228320
    37  C   -0.553634
    38  C   -0.187892
    39  C   -0.446948
    40  H    0.248342
    41  H    0.265352
    42  H    0.222330
    43  H    0.232189
    44  H    0.222623
 Sum of Mulliken charges =   0.00000
 Mulliken charges with hydrogens summed into heavy atoms:
               1
     1  C    0.207314
     2  C   -0.084752
     3  C    0.271246
     4  C   -0.101333
     5  C    0.496192
    10  O   -0.323838
    11  O   -0.383503
    12  C    0.037246
    13  C    0.026468
    14  C    0.058468
    15  O   -0.631447
    16  Si   1.427153
    17  C   -0.329457
    18  C   -0.334478
    19  C   -0.337642
    37  C   -0.039940
    38  C    0.034438
    39  C    0.007864
 Electronic spatial extent (au):  <R**2>=           5242.9176
 Charge=              0.0000 electrons
 Dipole moment (field-independent basis, Debye):
    X=              4.5083    Y=             -1.7496    Z=              2.9312  Tot=              5.6549
 Quadrupole moment (field-independent basis, Debye-Ang):
   XX=           -129.8151   YY=           -117.8142   ZZ=           -120.2496
   XY=              7.2101   XZ=            -13.9449   YZ=              4.0295
 Traceless Quadrupole moment (field-independent basis, Debye-Ang):
   XX=             -7.1888   YY=              4.8121   ZZ=              2.3767
   XY=              7.2101   XZ=            -13.9449   YZ=              4.0295
 Octapole moment (field-independent basis, Debye-Ang**2):
  XXX=             55.1211  YYY=              6.4681  ZZZ=             13.2389  XYY=             -7.4626
  XXY=            -27.0524  XXZ=             27.9746  XZZ=              6.1767  YZZ=            -14.2616
  YYZ=              1.2682  XYZ=            -16.6440
 Hexadecapole moment (field-independent basis, Debye-Ang**3):
 XXXX=          -3629.9546 YYYY=          -2389.6478 ZZZZ=          -1179.0330 XXXY=             25.6018
 XXXZ=           -132.6669 YYYX=            -21.7718 YYYZ=            -36.5055 ZZZX=            -19.2119
 ZZZY=             17.4450 XXYY=          -1020.8793 XXZZ=           -820.1699 YYZZ=           -612.9411
 XXYZ=             32.8420 YYXZ=            -37.4781 ZZXY=             22.6088
 N-N= 1.638932572427D+03 E-N=-5.773172011217D+03  KE= 1.060528489904D+03
 1\1\GINC-CPU-E-611\SP\RmPW1PW91\6-311G(d)\C14H26O3Si1\KE291\06-Feb-201
 9\0\\# mPW1PW91/6-311g(d) geom=checkpoint nmr=giao scrf=(solvent=chlor
 oform)\\P_ng_4ginp006\\0,1\C,0,0.7160254446,1.7973192876,-0.0162573125
 \C,0,-0.3979671106,0.8987556056,0.5498401946\C,0,-1.3902225237,1.67740
 11151,1.4604333796\C,0,-1.5069160238,3.152553824,0.969895013\C,0,-1.01
 60144498,3.4572962157,-0.4321559534\H,0,1.2766229065,1.2060968667,-0.7
 48916513\H,0,-0.9668120418,0.6019418564,-0.3394144035\H,0,-2.530299322
 9,3.5246958912,1.0335164519\H,0,-0.8960023452,3.7688528259,1.636952542
 \O,0,0.1088007821,2.8348684628,-0.8482055077\O,0,-1.5449370884,4.26882
 85663,-1.1629770297\C,0,1.7237355382,2.4023477113,0.9657578424\C,0,2.8
 219007087,3.2123978476,0.2689705413\C,0,0.1590228769,-0.3780818821,1.1
 888954355\O,0,-0.8556092522,1.6692723499,2.7846987358\Si,0,-1.46181685
 ,2.0126535108,4.319144543\C,0,0.0845609176,2.2435194338,5.365343778\C,
 0,-2.5035363361,3.588012493,4.3475256262\C,0,-2.4695896643,0.567391920
 4,4.9960160261\H,0,-2.8094708485,3.8019770018,5.3784589313\H,0,-1.9408
 350302,4.454825981,3.985643814\H,0,-3.4163964943,3.5060484618,3.748555
 5549\H,0,-1.8960946896,-0.3648368052,4.9546515395\H,0,-2.7271839481,0.
 7508332254,6.0458243275\H,0,-3.4046166108,0.4111953691,4.4494757079\H,
 0,0.6842040743,3.0876598901,5.0093007611\H,0,-0.1781519381,2.435981415
 8,6.4115517042\H,0,0.7159956987,1.3493117097,5.3387966847\H,0,0.812590
 4628,-0.9003306729,0.4823400047\H,0,0.7266911224,-0.1606829638,2.09478
 58429\H,0,-0.6474549398,-1.0655937086,1.4591085752\H,0,2.1765601588,1.
 5731533708,1.5209186411\H,0,1.2112621414,3.0174438419,1.7105824547\H,0
 ,3.3816697046,2.5922931652,-0.4403251467\H,0,2.4022110917,4.0558230947
 ,-0.2862795873\H,0,3.5333901264,3.6080522861,0.9999710155\C,0,-2.79361
 55584,1.0014298387,1.4627258586\C,0,-3.507491704,0.9578880047,0.138321
 8628\C,0,-4.6015100262,1.6635095006,-0.1551870155\H,0,-3.418784932,1.5
 45570669,2.1790143786\H,0,-2.6701151398,-0.016124882,1.8525903518\H,0,
 -3.1012591798,0.2892877711,-0.6196548298\H,0,-5.0809483517,1.593032377
 4,-1.1268332064\H,0,-5.0607523555,2.3345681557,0.567289385\\Version=ES
 64L-G09RevD.01\State=1-A\HF=-1064.3807813\RMSD=8.519e-09\Dipole=0.1226
 711,-1.3709888,1.7478731\Quadrupole=6.3225145,-1.1777024,-5.1448122,-0
 .2769257,-2.2197702,11.3368705\PG=C01 [X(C14H26O3Si1)]\\@


 EVERYTHING'S GOT A MORAL, IF ONLY YOU CAN FIND IT.

                                    -- LEWIS CARROL, ALICE IN WONDERLAND
 Job cpu time:       0 days  0 hours 20 minutes 48.1 seconds.
 File lengths (MBytes):  RWF=    240 Int=      0 D2E=      0 Chk=     19 Scr=      1
 Normal termination of Gaussian 09 at Wed Feb  6 11:33:15 2019.
