 Entering Gaussian System, Link 0=/usr/local/Cluster-Apps/gaussian/g09/g09
 Initial command:
 /usr/local/Cluster-Apps/gaussian/g09/l1.exe "/home/ke291/rds/hpc-work/06Feb0927IP1/Gau-176873.inp" -scrdir="/home/ke291/rds/hpc-work/06Feb0927IP1/"
 Entering Link 1 = /usr/local/Cluster-Apps/gaussian/g09/l1.exe PID=    176878.
  
 Copyright (c) 1988,1990,1992,1993,1995,1998,2003,2009,2013,
            Gaussian, Inc.  All Rights Reserved.
  
 This is part of the Gaussian(R) 09 program.  It is based on
 the Gaussian(R) 03 system (copyright 2003, Gaussian, Inc.),
 the Gaussian(R) 98 system (copyright 1998, Gaussian, Inc.),
 the Gaussian(R) 94 system (copyright 1995, Gaussian, Inc.),
 the Gaussian 92(TM) system (copyright 1992, Gaussian, Inc.),
 the Gaussian 90(TM) system (copyright 1990, Gaussian, Inc.),
 the Gaussian 88(TM) system (copyright 1988, Gaussian, Inc.),
 the Gaussian 86(TM) system (copyright 1986, Carnegie Mellon
 University), and the Gaussian 82(TM) system (copyright 1983,
 Carnegie Mellon University). Gaussian is a federally registered
 trademark of Gaussian, Inc.
  
 This software contains proprietary and confidential information,
 including trade secrets, belonging to Gaussian, Inc.
  
 This software is provided under written license and may be
 used, copied, transmitted, or stored only in accord with that
 written license.
  
 The following legend is applicable only to US Government
 contracts under FAR:
  
                    RESTRICTED RIGHTS LEGEND
  
 Use, reproduction and disclosure by the US Government is
 subject to restrictions as set forth in subparagraphs (a)
 and (c) of the Commercial Computer Software - Restricted
 Rights clause in FAR 52.227-19.
  
 Gaussian, Inc.
 340 Quinnipiac St., Bldg. 40, Wallingford CT 06492
  
  
 ---------------------------------------------------------------
 Warning -- This program may not be used in any manner that
 competes with the business of Gaussian, Inc. or will provide
 assistance to any competitor of Gaussian, Inc.  The licensee
 of this program is prohibited from giving any competitor of
 Gaussian, Inc. access to this program.  By using this program,
 the user acknowledges that Gaussian, Inc. is engaged in the
 business of creating and licensing software in the field of
 computational chemistry and represents and warrants to the
 licensee that it is not a competitor of Gaussian, Inc. and that
 it will not use this program in any manner prohibited above.
 ---------------------------------------------------------------
  

 Cite this work as:
 Gaussian 09, Revision D.01,
 M. J. Frisch, G. W. Trucks, H. B. Schlegel, G. E. Scuseria, 
 M. A. Robb, J. R. Cheeseman, G. Scalmani, V. Barone, B. Mennucci, 
 G. A. Petersson, H. Nakatsuji, M. Caricato, X. Li, H. P. Hratchian, 
 A. F. Izmaylov, J. Bloino, G. Zheng, J. L. Sonnenberg, M. Hada, 
 M. Ehara, K. Toyota, R. Fukuda, J. Hasegawa, M. Ishida, T. Nakajima, 
 Y. Honda, O. Kitao, H. Nakai, T. Vreven, J. A. Montgomery, Jr., 
 J. E. Peralta, F. Ogliaro, M. Bearpark, J. J. Heyd, E. Brothers, 
 K. N. Kudin, V. N. Staroverov, T. Keith, R. Kobayashi, J. Normand, 
 K. Raghavachari, A. Rendell, J. C. Burant, S. S. Iyengar, J. Tomasi, 
 M. Cossi, N. Rega, J. M. Millam, M. Klene, J. E. Knox, J. B. Cross, 
 V. Bakken, C. Adamo, J. Jaramillo, R. Gomperts, R. E. Stratmann, 
 O. Yazyev, A. J. Austin, R. Cammi, C. Pomelli, J. W. Ochterski, 
 R. L. Martin, K. Morokuma, V. G. Zakrzewski, G. A. Voth, 
 P. Salvador, J. J. Dannenberg, S. Dapprich, A. D. Daniels, 
 O. Farkas, J. B. Foresman, J. V. Ortiz, J. Cioslowski, 
 and D. J. Fox, Gaussian, Inc., Wallingford CT, 2013.
 
 ******************************************
 Gaussian 09:  ES64L-G09RevD.01 24-Apr-2013
                 6-Feb-2019 
 ******************************************
 %nprocshared=2
 Will use up to    2 processors via shared memory.
 %mem=6000MB
 %chk=/home/ke291/rds/hpc-work/06Feb0927IP1/P_ng_2ginp006.chk
 ----------------------------------------------------------------------
 # mPW1PW91/6-311g(d) geom=checkpoint nmr=giao scrf=(solvent=chloroform
 )
 ----------------------------------------------------------------------
 1/29=2,38=1/1;
 2/12=2,40=1/2;
 3/5=4,6=6,7=1,11=2,14=-4,16=1,25=1,30=1,70=2201,72=7,74=-7/1,2,8,3;
 4//1;
 5/5=2,38=5,53=7/2;
 8/6=1,10=90,11=11/1;
 10/13=100,45=16/2;
 6/7=2,8=2,9=2,10=2,28=1/1;
 99/9=1/99;
 -------------
 P_ng_2ginp006
 -------------
 Structure from the checkpoint file:  "/home/ke291/rds/hpc-work/06Feb0927IP1/P_ng_2ginp006.chk"
 Charge =  0 Multiplicity = 1
 Redundant internal coordinates found in file.
 C,0,-0.0867396911,0.0552284448,1.342254012
 C,0,-1.028304049,0.9078969627,0.4732025628
 C,0,-2.3721071488,1.178376648,1.2349560572
 C,0,-2.119983238,1.1066991474,2.7696640883
 C,0,-0.7194413923,1.4697661651,3.1972841665
 H,0,-0.6038035022,-0.8544841348,1.6779755074
 H,0,-0.5437834416,1.8862137999,0.3886251706
 H,0,-2.8361918015,1.7219276026,3.3109678605
 H,0,-2.28151159,0.0722424578,3.0979899722
 O,0,0.2682494296,0.834232852,2.5283849656
 O,0,-0.4371823256,2.2375505898,4.095119421
 C,0,1.245841675,-0.3589077205,0.7140215317
 C,0,2.1387354583,0.7973897983,0.251848103
 C,0,-1.2144890151,0.3637872237,-0.9487464128
 O,0,-2.8838063825,2.448178658,0.8356328219
 Si,0,-2.5918915939,4.0694455229,1.1954943837
 C,0,-3.0798503511,4.4893676446,2.9681087992
 C,0,-0.7905225194,4.5646470726,0.9205735943
 C,0,-3.6960879797,4.984915768,-0.0214969468
 H,0,-0.4567460595,4.3515614403,-0.1005243931
 H,0,-0.6880593246,5.6447002185,1.0812910551
 H,0,-0.1055564393,4.0693328738,1.6161477205
 H,0,-3.4179025495,4.7600551148,-1.0563764189
 H,0,-4.7478577307,4.7106276728,0.1106997863
 H,0,-3.6126983336,6.0683755283,0.1199852078
 H,0,-3.0402694339,5.5758067273,3.1113344005
 H,0,-4.1004467018,4.1631014207,3.1955252954
 H,0,-2.4011714506,4.0346962893,3.6964103486
 H,0,-1.9358836741,0.9771043208,-1.4954257158
 H,0,-0.2735138162,0.3945529322,-1.5030852173
 H,0,-1.571790987,-0.670493744,-0.9578839804
 H,0,1.0304875724,-1.0361975226,-0.1195029072
 H,0,1.7816163228,-0.9549369473,1.461586657
 H,0,2.3589343475,1.4748262945,1.0810117979
 H,0,3.0883535392,0.4115098425,-0.1304320094
 H,0,1.6758957387,1.3835143459,-0.5482229895
 C,0,-3.4778670942,0.1522311275,0.8709097497
 C,0,-4.7452415043,0.3115760652,1.6641185142
 C,0,-5.308189921,-0.6460798282,2.402681777
 H,0,-3.0868559678,-0.8643500794,0.9977759752
 H,0,-3.7069137897,0.2852203091,-0.1920354275
 H,0,-5.2219402792,1.2883979314,1.600319616
 H,0,-6.2353683482,-0.47886878,2.9431260609
 H,0,-4.8672206564,-1.6370180561,2.4880594385
 Recover connectivity data from disk.
                          Input orientation:                          
 ---------------------------------------------------------------------
 Center     Atomic      Atomic             Coordinates (Angstroms)
 Number     Number       Type             X           Y           Z
 ---------------------------------------------------------------------
      1          6           0       -0.086740    0.055228    1.342254
      2          6           0       -1.028304    0.907897    0.473203
      3          6           0       -2.372107    1.178377    1.234956
      4          6           0       -2.119983    1.106699    2.769664
      5          6           0       -0.719441    1.469766    3.197284
      6          1           0       -0.603804   -0.854484    1.677976
      7          1           0       -0.543783    1.886214    0.388625
      8          1           0       -2.836192    1.721928    3.310968
      9          1           0       -2.281512    0.072242    3.097990
     10          8           0        0.268249    0.834233    2.528385
     11          8           0       -0.437182    2.237551    4.095119
     12          6           0        1.245842   -0.358908    0.714022
     13          6           0        2.138735    0.797390    0.251848
     14          6           0       -1.214489    0.363787   -0.948746
     15          8           0       -2.883806    2.448179    0.835633
     16         14           0       -2.591892    4.069446    1.195494
     17          6           0       -3.079850    4.489368    2.968109
     18          6           0       -0.790523    4.564647    0.920574
     19          6           0       -3.696088    4.984916   -0.021497
     20          1           0       -0.456746    4.351561   -0.100524
     21          1           0       -0.688059    5.644700    1.081291
     22          1           0       -0.105556    4.069333    1.616148
     23          1           0       -3.417903    4.760055   -1.056376
     24          1           0       -4.747858    4.710628    0.110700
     25          1           0       -3.612698    6.068376    0.119985
     26          1           0       -3.040269    5.575807    3.111334
     27          1           0       -4.100447    4.163101    3.195525
     28          1           0       -2.401171    4.034696    3.696410
     29          1           0       -1.935884    0.977104   -1.495426
     30          1           0       -0.273514    0.394553   -1.503085
     31          1           0       -1.571791   -0.670494   -0.957884
     32          1           0        1.030488   -1.036198   -0.119503
     33          1           0        1.781616   -0.954937    1.461587
     34          1           0        2.358934    1.474826    1.081012
     35          1           0        3.088354    0.411510   -0.130432
     36          1           0        1.675896    1.383514   -0.548223
     37          6           0       -3.477867    0.152231    0.870910
     38          6           0       -4.745242    0.311576    1.664119
     39          6           0       -5.308190   -0.646080    2.402682
     40          1           0       -3.086856   -0.864350    0.997776
     41          1           0       -3.706914    0.285220   -0.192035
     42          1           0       -5.221940    1.288398    1.600320
     43          1           0       -6.235368   -0.478869    2.943126
     44          1           0       -4.867221   -1.637018    2.488059
 ---------------------------------------------------------------------
                    Distance matrix (angstroms):
                    1          2          3          4          5
     1  C    0.000000
     2  C    1.539103   0.000000
     3  C    2.548701   1.568195   0.000000
     4  C    2.697623   2.550494   1.556931   0.000000
     5  C    2.417099   2.798520   2.582043   1.508706   0.000000
     6  H    1.098927   2.176618   2.730510   2.708657   2.779174
     7  H    2.114428   1.094997   2.135434   2.959965   2.844793
     8  H    3.770041   3.461794   2.195597   1.088334   2.134746
     9  H    2.810680   3.026278   2.168556   1.097265   2.098332
    10  O    1.462796   2.431101   2.960216   2.415804   1.351615
    11  O    3.530384   3.903292   3.611969   2.422287   1.214607
    12  C    1.530346   2.614293   3.965371   4.207428   3.656908
    13  C    2.586992   3.176688   4.632424   4.956990   4.158949
    14  C    2.572102   1.533838   2.602344   3.898514   4.319471
    15  O    3.715704   2.438588   1.426076   2.474565   3.349502
    16  Si   4.734054   3.600264   2.899680   3.388004   3.777772
    17  C    5.591396   4.822897   3.803601   3.521814   3.839537
    18  C    4.583446   3.691680   3.750610   4.140532   3.842753
    19  C    6.260114   4.897334   4.221533   5.031426   5.619364
    20  H    4.547196   3.537607   3.939698   4.640417   4.387402
    21  H    5.627778   4.787781   4.775738   5.049204   4.680650
    22  H    4.023482   3.486038   3.693262   3.763737   3.103964
    23  H    6.243834   4.784236   4.378620   5.447035   6.016753
    24  H    6.701902   5.331721   4.402833   5.192698   6.021489
    25  H    7.077024   5.782248   5.166654   5.819556   6.244030
    26  H    6.506133   5.726877   4.827487   4.575652   4.717330
    27  H    6.034822   5.238841   3.967313   3.666768   4.322644
    28  H    5.170572   4.695818   3.770698   3.084006   3.107444
    29  H    3.510216   2.168868   2.772325   4.271028   4.872779
    30  H    2.871582   2.176912   3.537703   4.708820   4.842356
    31  H    2.832434   2.198796   2.977814   4.165759   4.751067
    32  H    2.139192   2.892996   4.279784   4.781711   4.510342
    33  H    2.127305   3.513219   4.675019   4.602596   3.891930
    34  H    2.839864   3.487725   4.742819   4.800809   3.735643
    35  H    3.518090   4.190184   5.680581   6.001718   5.166518
    36  H    2.906051   2.929542   4.428108   5.049128   4.446786
    37  C    3.425101   2.594140   1.551841   2.521929   3.841462
    38  C    4.676639   3.948355   2.562672   2.957437   4.460837
    39  C    5.374001   4.945216   3.648672   3.656716   5.115155
    40  H    3.156737   2.766527   2.177120   2.821252   3.986300
    41  H    3.938604   2.829349   2.148428   3.459023   4.670720
    42  H    5.287494   4.359101   2.875264   3.320018   4.780762
    43  H    6.376024   5.927661   4.537521   4.413673   5.855529
    44  H    5.198997   5.027278   3.965136   3.892891   5.230600
                    6          7          8          9         10
     6  H    0.000000
     7  H    3.029431   0.000000
     8  H    3.779963   3.717824   0.000000
     9  H    2.385365   3.694706   1.753423   0.000000
    10  O    2.082171   2.518856   3.322348   2.721463   0.000000
    11  O    3.928234   3.724634   2.576045   3.014030   2.218466
    12  C    2.143826   2.889500   5.266593   4.279184   2.381425
    13  C    3.504860   2.898302   5.912942   5.307066   2.946641
    14  C    2.959187   2.134524   4.756010   4.195189   3.809235
    15  O    4.100675   2.447719   2.580115   3.335580   3.925008
    16  Si   5.332013   3.100369   3.169503   4.437731   4.519248
    17  C    6.029262   4.456656   2.799222   4.490569   4.976258
    18  C    5.474989   2.741871   4.240260   5.210172   4.197862
    19  C    6.822684   4.439277   4.742556   5.988872   6.280608
    20  H    5.503417   2.514912   4.920875   5.645603   4.450661
    21  H    6.527061   3.824503   4.997407   6.136648   5.113629
    22  H    4.949348   2.542610   3.979836   4.786164   3.381979
    23  H    6.849736   4.313647   5.351850   6.365982   6.469182
    24  H    7.113368   5.072356   4.777919   6.043292   6.784760
    25  H    7.707579   5.194313   5.447655   6.825993   6.946826
    26  H    7.024210   5.220985   3.864439   5.555638   5.811080
    27  H    6.301241   5.070775   2.751544   4.478076   5.532807
    28  H    5.586474   4.359737   2.384682   4.009173   4.328170
    29  H    3.898670   2.512781   4.946386   4.694433   4.590171
    30  H    3.433414   2.424184   5.612874   5.030490   4.091403
    31  H    2.814002   3.067025   5.054254   4.183954   4.219481
    32  H    2.436156   3.358126   5.858890   4.748709   3.330289
    33  H    2.397320   3.825032   5.648891   4.499102   2.574775
    34  H    3.815740   3.012376   5.658896   5.250636   2.622253
    35  H    4.301756   3.954313   6.975720   6.274812   3.898845
    36  H    3.893793   2.461172   5.947000   5.538536   3.427637
    37  C    3.150408   3.442113   2.971461   2.529338   4.152799
    38  C    4.302487   4.664613   2.888888   2.860635   5.114217
    39  C    4.764439   5.759210   3.541641   3.187510   5.770945
    40  H    2.574552   3.795245   3.478868   2.436531   4.060133
    41  H    3.798047   3.592456   3.885012   3.591852   4.848095
    42  H    5.091676   4.869367   2.967501   3.516841   5.586569
    43  H    5.784135   6.671824   4.066105   3.995083   6.647803
    44  H    4.409685   5.959270   4.010583   3.159031   5.699277
                   11         12         13         14         15
    11  O    0.000000
    12  C    4.583229   0.000000
    13  C    4.845632   1.532282   0.000000
    14  C    5.436523   3.056192   3.587973   0.000000
    15  O    4.081003   4.994849   5.319007   3.211747   0.000000
    16  Si   4.050486   5.879653   5.828863   4.497434   1.686185
    17  C    3.650278   6.877376   6.945676   5.986797   2.958435
    18  C    3.951958   5.332057   4.818711   4.617502   2.978001
    19  C    5.925792   7.315744   7.187159   5.326627   2.798126
    20  H    4.698175   5.074526   4.415068   4.146806   3.223333
    21  H    4.555740   6.318083   5.672315   5.682097   3.885795
    22  H    3.100113   4.716929   4.195685   4.641065   3.309987
    23  H    6.464181   7.147629   6.949129   4.918718   3.034754
    24  H    6.369744   7.873285   7.922027   5.701065   3.019750
    25  H    6.368737   8.078877   7.802542   6.279803   3.761550
    26  H    4.346015   7.703161   7.604737   6.854406   3.871092
    27  H    4.235153   7.428945   7.675978   6.319694   3.160738
    28  H    2.691831   6.441980   6.554076   6.038317   3.306663
    29  H    5.923599   4.097556   4.437092   1.093356   2.914867
    30  H    5.896043   2.791363   3.010152   1.092553   4.062094
    31  H    5.939436   3.291110   4.169669   1.094297   3.829387
    32  H    5.534846   1.095382   2.174433   2.772638   5.326806
    33  H    4.695800   1.095974   2.159086   4.065143   5.808544
    34  H    4.181490   2.176290   1.093124   4.257192   5.337973
    35  H    5.798199   2.168293   1.093991   4.380225   6.383416
    36  H    5.172534   2.194138   1.094475   3.091049   4.882566
    37  C    4.897943   4.753872   5.687327   2.911835   2.371819
    38  C    5.308344   6.102894   7.044122   4.392722   2.952355
    39  C    5.908163   6.774169   7.884566   5.386120   4.231751
    40  H    5.122118   4.371299   5.533949   2.966990   3.322705
    41  H    5.734321   5.075985   5.884808   2.605948   2.532192
    42  H    5.478944   6.732856   7.499267   4.838627   2.719689
    43  H    6.505765   7.807163   8.888050   6.408274   4.923627
    44  H    6.100833   6.492327   7.746638   5.399750   4.832523
                   16         17         18         19         20
    16  Si   0.000000
    17  C    1.885895   0.000000
    18  C    1.888316   3.072310   0.000000
    19  C    1.881064   3.092420   3.083250   0.000000
    20  H    2.513583   4.039329   1.095196   3.301624   0.000000
    21  H    2.473671   3.258150   1.096742   3.271039   1.767032
    22  H    2.521668   3.294033   1.094686   4.051184   1.774810
    23  H    2.496028   4.047719   3.293879   1.094954   3.138307
    24  H    2.497215   3.316020   4.041993   1.094956   4.311286
    25  H    2.488873   3.299849   3.296486   1.095836   3.599460
    26  H    2.478025   1.096554   3.298975   3.254824   4.299931
    27  H    2.506917   1.095347   4.036365   3.344864   4.916911
    28  H    2.508418   1.094420   3.252738   4.050007   4.277605
    29  H    4.151382   5.793772   4.474301   4.618803   3.939614
    30  H    5.114884   6.680914   4.850887   5.914436   4.202222
    31  H    5.305155   6.656713   5.616554   6.113355   5.215307
    32  H    6.396752   7.547191   5.980577   7.655320   5.589291
    33  H    6.666543   7.452779   6.113461   8.215025   5.967360
    34  H    5.590692   6.498382   4.414953   7.085164   4.195198
    35  H    6.885039   8.017270   5.779173   8.182699   5.300248
    36  H    5.335615   6.680422   4.284879   6.488894   3.682105
    37  C    4.029253   4.833985   5.166595   4.919233   5.263576
    38  C    4.356387   4.682719   5.855021   5.077610   6.150337
    39  C    5.574205   5.626547   7.053909   6.339056   7.401281
    40  H    4.962502   5.704783   5.895177   5.968584   5.943860
    41  H    4.181970   5.296657   5.296860   4.702801   5.206447
    42  H    3.849060   4.087249   5.552776   4.315409   5.914636
    43  H    6.084102   5.885685   7.692471   6.714900   8.123382
    44  H    6.277864   6.399824   7.585323   7.177704   7.875032
                   21         22         23         24         25
    21  H    0.000000
    22  H    1.762715   0.000000
    23  H    3.578305   4.311742   0.000000
    24  H    4.277441   4.922255   1.770110   0.000000
    25  H    3.107591   4.305197   1.770162   1.769789   0.000000
    26  H    3.107847   3.621821   4.263551   3.559242   3.085202
    27  H    4.278961   4.296787   4.347515   3.199230   3.650605
    28  H    3.516492   3.098151   4.914150   4.338334   4.288877
    29  H    5.475672   4.753300   4.086546   4.942270   5.598420
    30  H    5.866421   4.823052   5.398550   6.422815   6.780618
    31  H    6.694841   5.589404   5.736610   6.339222   7.123164
    32  H    7.002121   5.510855   7.366305   8.152807   8.490671
    33  H    7.056850   5.369227   8.126270   8.749717   8.956866
    34  H    5.164496   3.618225   6.980903   7.868825   7.595042
    35  H    6.566266   5.160549   7.880266   8.941296   8.773080
    36  H    5.138220   3.882228   6.132375   7.264191   7.096735
    37  C    6.163968   5.222216   4.995004   4.792679   5.965135
    38  C    6.726264   5.970738   5.380696   4.665273   6.066938
    39  C    7.916160   7.065490   6.690633   5.853330   7.291729
    40  H    6.937502   5.797565   5.996922   5.884404   7.007832
    41  H    6.281629   5.528002   4.566701   4.556253   5.792333
    42  H    6.308949   5.823335   4.729164   3.762363   5.256352
    43  H    8.469779   7.747361   7.168016   6.096409   7.597034
    44  H    8.512803   7.483055   7.455608   6.779284   8.158106
                   26         27         28         29         30
    26  H    0.000000
    27  H    1.768276   0.000000
    28  H    1.767988   1.776207   0.000000
    29  H    6.602270   6.069673   6.043221   0.000000
    30  H    7.469484   7.136127   6.694201   1.761505   0.000000
    31  H    7.598107   6.856278   6.670018   1.770902   1.765529
    32  H    8.409992   8.021758   7.214669   3.840040   2.379447
    33  H    8.283892   7.987461   6.883792   5.128012   3.851488
    34  H    7.077546   7.309008   6.004319   5.033013   3.843739
    35  H    8.645174   8.764433   7.609671   5.236990   3.631338
    36  H    7.294511   7.423469   6.455088   3.755970   2.385373
    37  C    5.884400   4.677448   4.921002   2.942392   3.995304
    38  C    5.719571   4.194665   4.846287   4.279970   5.480366
    39  C    6.660144   5.021501   5.659872   5.403926   6.456462
    40  H    6.778268   5.579672   5.635020   3.306319   3.969136
    41  H    6.272716   5.164145   5.557296   2.305228   3.676825
    42  H    5.042294   3.473665   4.460100   4.525341   5.909061
    43  H    6.848069   5.115612   5.969989   6.348714   7.488349
    44  H    7.466663   5.893203   6.301576   5.594151   6.415501
                   31         32         33         34         35
    31  H    0.000000
    32  H    2.758347   0.000000
    33  H    4.144887   1.752325   0.000000
    34  H    4.920376   3.084031   2.526239   0.000000
    35  H    4.855137   2.516106   2.471692   1.769263   0.000000
    36  H    3.864484   2.540740   3.085266   1.768979   1.764760
    37  C    2.766675   4.766397   5.407114   5.988460   6.647192
    38  C    4.232038   6.193290   6.651688   7.222360   8.037139
    39  C    5.025403   6.833187   7.158659   8.064109   8.833861
    40  H    2.481453   4.269703   4.891354   5.927504   6.405770
    41  H    2.461435   4.918778   5.864846   6.311127   6.796720
    42  H    4.868804   6.888715   7.355379   7.600927   8.533781
    43  H    6.083055   7.904617   8.166618   9.008131   9.857552
    44  H    4.865034   6.476367   6.762094   7.992539   8.622304
                   36         37         38         39         40
    36  H    0.000000
    37  C    5.485551   0.000000
    38  C    6.875646   1.503599   0.000000
    39  C    7.848856   2.516686   1.333976   0.000000
    40  H    5.488790   1.096550   2.139406   2.637371   0.000000
    41  H    5.505248   1.095446   2.126999   3.188097   1.766815
    42  H    7.225332   2.205608   1.088803   2.096051   3.091273
    43  H    8.845682   3.506591   2.116871   1.086140   3.721037
    44  H    7.820166   2.783323   2.119145   1.087981   2.446969
                   41         42         43         44
    41  H    0.000000
    42  H    2.552294   0.000000
    43  H    4.099531   2.439958   0.000000
    44  H    3.496315   3.077656   1.849385   0.000000
 Stoichiometry    C14H26O3Si
 Framework group  C1[X(C14H26O3Si)]
 Deg. of freedom   126
 Full point group                 C1      NOp   1
 Largest Abelian subgroup         C1      NOp   1
 Largest concise Abelian subgroup C1      NOp   1
                         Standard orientation:                         
 ---------------------------------------------------------------------
 Center     Atomic      Atomic             Coordinates (Angstroms)
 Number     Number       Type             X           Y           Z
 ---------------------------------------------------------------------
      1          6           0       -2.356946    0.415601    0.118053
      2          6           0       -1.182014    0.203283   -0.853180
      3          6           0        0.126069    0.840925   -0.268746
      4          6           0        0.029220    0.887679    1.284466
      5          6           0       -0.834657   -0.187423    1.896075
      6          1           0       -2.450333    1.481190    0.369925
      7          1           0       -0.997846   -0.876098   -0.859273
      8          1           0        1.018544    0.860214    1.737187
      9          1           0       -0.423139    1.844699    1.573385
     10          8           0       -2.065373   -0.314088    1.351872
     11          8           0       -0.519231   -0.891147    2.834451
     12          6           0       -3.728378   -0.087872   -0.337633
     13          6           0       -3.801559   -1.583581   -0.662263
     14          6           0       -1.492011    0.623851   -2.295291
     15          8           0        1.249497    0.082608   -0.712095
     16         14           0        2.011375   -1.362068   -0.292960
     17          6           0        2.820564   -1.256267    1.407222
     18          6           0        0.837832   -2.841118   -0.323706
     19          6           0        3.320201   -1.560661   -1.629350
     20          1           0        0.346638   -2.956145   -1.295791
     21          1           0        1.411377   -3.756652   -0.134791
     22          1           0        0.063244   -2.781667    0.447538
     23          1           0        2.865165   -1.634852   -2.622507
     24          1           0        4.011481   -0.711565   -1.639253
     25          1           0        3.909173   -2.469474   -1.461935
     26          1           0        3.446504   -2.141648    1.570710
     27          1           0        3.465246   -0.375094    1.494992
     28          1           0        2.078230   -1.222945    2.210704
     29          1           0       -0.604070    0.503989   -2.921886
     30          1           0       -2.279508   -0.001820   -2.721973
     31          1           0       -1.820079    1.665388   -2.366397
     32          1           0       -4.037510    0.509495   -1.202186
     33          1           0       -4.438348    0.144761    0.464229
     34          1           0       -3.496633   -2.184294    0.198600
     35          1           0       -4.826373   -1.863441   -0.923512
     36          1           0       -3.160825   -1.855663   -1.506838
     37          6           0        0.367340    2.282931   -0.788954
     38          6           0        1.551458    2.968085   -0.165064
     39          6           0        1.505009    4.135083    0.479489
     40          1           0       -0.535646    2.883767   -0.627607
     41          1           0        0.527336    2.215325   -1.870542
     42          1           0        2.505461    2.455109   -0.275634
     43          1           0        2.397465    4.591992    0.897170
     44          1           0        0.573284    4.682291    0.606591
 ---------------------------------------------------------------------
 Rotational constants (GHZ):      0.4173991      0.3187646      0.2633252
 Standard basis: 6-311G(d) (5D, 7F)
 There are   428 symmetry adapted cartesian basis functions of A   symmetry.
 There are   410 symmetry adapted basis functions of A   symmetry.
   410 basis functions,   720 primitive gaussians,   428 cartesian basis functions
    74 alpha electrons       74 beta electrons
       nuclear repulsion energy      1647.5273305024 Hartrees.
 NAtoms=   44 NActive=   44 NUniq=   44 SFac= 1.00D+00 NAtFMM=   60 NAOKFM=F Big=F
 Integral buffers will be    131072 words long.
 Raffenetti 2 integral format.
 Two-electron integral symmetry is turned on.
 ------------------------------------------------------------------------------
 Polarizable Continuum Model (PCM)
 =================================
 Model                : PCM (using non-symmetric T matrix).
 Atomic radii         : UFF (Universal Force Field).
 Polarization charges : Total charges.
 Charge compensation  : None.
 Solution method      : On-the-fly selection.
 Cavity type          : Scaled VdW (van der Waals Surface) (Alpha=1.100).
 Cavity algorithm     : GePol (No added spheres)
                        Default sphere list used, NSphG=   44.
                        Lebedev-Laikov grids with approx.  5.0 points / Ang**2.
                        Smoothing algorithm: Karplus/York (Gamma=1.0000).
                        Polarization charges: spherical gaussians, with
                                              point-specific exponents (IZeta= 3).
                        Self-potential: point-specific (ISelfS= 7).
                        Self-field    : sphere-specific E.n sum rule (ISelfD= 2).
 Solvent              : Chloroform, Eps=   4.711300 Eps(inf)=   2.090627
 ------------------------------------------------------------------------------
 One-electron integrals computed using PRISM.
 NBasis=   410 RedAO= T EigKep=  5.78D-04  NBF=   410
 NBsUse=   410 1.00D-06 EigRej= -1.00D+00 NBFU=   410
 ExpMin= 6.54D-02 ExpMax= 6.94D+04 ExpMxC= 2.33D+03 IAcc=2 IRadAn=         4 AccDes= 0.00D+00
 Harris functional with IExCor=  908 and IRadAn=       4 diagonalized for initial guess.
 HarFok:  IExCor=  908 AccDes= 0.00D+00 IRadAn=         4 IDoV= 1 UseB2=F ITyADJ=14
 ICtDFT=  3500011 ScaDFX=  1.000000  1.000000  1.000000  1.000000
 FoFCou: FMM=F IPFlag=           0 FMFlag=      100000 FMFlg1=           0
         NFxFlg=           0 DoJE=T BraDBF=F KetDBF=T FulRan=T
         wScrn=  0.000000 ICntrl=     500 IOpCl=  0 I1Cent=   200000004 NGrid=           0
         NMat0=    1 NMatS0=      1 NMatT0=    0 NMatD0=    1 NMtDS0=    0 NMtDT0=    0
 Petite list used in FoFCou.
 Requested convergence on RMS density matrix=1.00D-08 within 128 cycles.
 Requested convergence on MAX density matrix=1.00D-06.
 Requested convergence on             energy=1.00D-06.
 No special actions if energy rises.
 Inv3:  Mode=1 IEnd=    24265008.
 Iteration    1 A*A^-1 deviation from unit magnitude is 7.11D-15 for   2831.
 Iteration    1 A*A^-1 deviation from orthogonality  is 4.01D-15 for   2838   1532.
 Iteration    1 A^-1*A deviation from unit magnitude is 7.11D-15 for   2831.
 Iteration    1 A^-1*A deviation from orthogonality  is 2.50D-14 for   2532   2489.
 Error on total polarization charges =  0.01127
 SCF Done:  E(RmPW1PW91) =  -1064.38377413     A.U. after   12 cycles
            NFock= 12  Conv=0.91D-08     -V/T= 2.0036
 DoSCS=F DFT=T ScalE2(SS,OS)=  1.000000  1.000000
 Range of M.O.s used for correlation:     1   410
 NBasis=   410 NAE=    74 NBE=    74 NFC=     0 NFV=     0
 NROrb=    410 NOA=    74 NOB=    74 NVA=   336 NVB=   336
 NEqPCM:  Using equilibrium solvation (IEInf=0, Eps=   4.7113, EpsInf=   2.0906)
          Differentiating once with respect to magnetic field using GIAOs.
          Electric field/nuclear overlap derivatives assumed to be zero.
 FoFJK:  IHMeth= 1 ICntrl=    6127 DoSepK=F KAlg= 0 I1Cent=   0 FoldK=F
 IRaf=         1 NMat=   1 IRICut=       1 DoRegI=T DoRafI=F ISym2E= 0.
          There are     3 degrees of freedom in the 1st order CPHF.  IDoFFX=0 NUNeed=     3.
      3 vectors produced by pass  0 Test12= 8.29D-13 3.33D-08 XBig12= 3.50D+01 1.02D+00.
 AX will form     3 AO Fock derivatives at one time.
      3 vectors produced by pass  1 Test12= 8.29D-13 3.33D-08 XBig12= 6.02D-02 8.72D-02.
      3 vectors produced by pass  2 Test12= 8.29D-13 3.33D-08 XBig12= 4.28D-04 6.26D-03.
      3 vectors produced by pass  3 Test12= 8.29D-13 3.33D-08 XBig12= 1.76D-06 2.82D-04.
      3 vectors produced by pass  4 Test12= 8.29D-13 3.33D-08 XBig12= 5.20D-09 2.56D-05.
      3 vectors produced by pass  5 Test12= 8.29D-13 3.33D-08 XBig12= 2.41D-11 7.95D-07.
      2 vectors produced by pass  6 Test12= 8.29D-13 3.33D-08 XBig12= 8.06D-14 5.67D-08.
 InvSVY:  IOpt=1 It=  1 EMax= 1.78D-15
 Solved reduced A of dimension    20 with     3 vectors.
 Calculating GIAO nuclear magnetic shielding tensors.
 SCF GIAO Magnetic shielding tensor (ppm):
      1  C    Isotropic =   105.8450   Anisotropy =    55.2444
   XX=   101.1527   YX=     0.0192   ZX=     5.7346
   XY=    -4.0844   YY=    86.6129   ZY=   -24.3950
   XZ=    11.3700   YZ=   -24.7126   ZZ=   129.7693
   Eigenvalues:    75.3893    99.4711   142.6745
      2  C    Isotropic =   139.8304   Anisotropy =    19.9779
   XX=   152.4976   YX=    -1.2389   ZX=    -4.5387
   XY=    -5.0261   YY=   137.2271   ZY=    -4.7939
   XZ=     6.3051   YZ=     4.5634   ZZ=   129.7665
   Eigenvalues:   129.7322   136.6100   153.1490
      3  C    Isotropic =   105.5295   Anisotropy =    54.7821
   XX=   124.5756   YX=   -24.6955   ZX=    -9.2100
   XY=   -21.0236   YY=   104.4696   ZY=     8.6166
   XZ=    -6.8755   YZ=     9.8455   ZZ=    87.5435
   Eigenvalues:    83.2961    91.2416   142.0510
      4  C    Isotropic =   142.5600   Anisotropy =    20.9816
   XX=   144.2507   YX=     6.4760   ZX=    -5.9874
   XY=     5.7486   YY=   134.5960   ZY=    -7.5331
   XZ=    -7.1578   YZ=    -3.7614   ZZ=   148.8334
   Eigenvalues:   131.2617   139.8707   156.5477
      5  C    Isotropic =     8.2112   Anisotropy =   100.9461
   XX=   -64.3933   YX=   -52.1242   ZX=   -20.8640
   XY=   -41.9400   YY=    40.5845   ZY=    14.2229
   XZ=   -30.8172   YZ=     9.6869   ZZ=    48.4423
   Eigenvalues:   -85.3955    34.5205    75.5086
      6  H    Isotropic =    28.0398   Anisotropy =     3.0582
   XX=    29.5890   YX=    -0.6487   ZX=     0.2723
   XY=    -0.5203   YY=    29.1864   ZY=     1.5466
   XZ=    -0.0450   YZ=     0.6383   ZZ=    25.3439
   Eigenvalues:    25.0401    29.0007    30.0786
      7  H    Isotropic =    30.0988   Anisotropy =     6.2219
   XX=    32.0544   YX=    -2.0098   ZX=     1.0505
   XY=    -1.8990   YY=    32.3325   ZY=    -0.0767
   XZ=     1.1919   YZ=    -0.2348   ZZ=    25.9095
   Eigenvalues:    25.7055    30.3441    34.2467
      8  H    Isotropic =    29.6712   Anisotropy =     4.3559
   XX=    30.3739   YX=    -1.3741   ZX=     2.5961
   XY=    -0.2424   YY=    28.8254   ZY=    -0.1961
   XZ=     1.5593   YZ=    -1.6018   ZZ=    29.8144
   Eigenvalues:    27.9580    28.4805    32.5752
      9  H    Isotropic =    29.7042   Anisotropy =     5.5315
   XX=    27.4923   YX=    -0.0553   ZX=    -1.8805
   XY=     0.1285   YY=    31.8462   ZY=     1.9461
   XZ=    -1.4753   YZ=     2.4808   ZZ=    29.7742
   Eigenvalues:    26.3571    29.3637    33.3919
     10  O    Isotropic =    79.9480   Anisotropy =   183.9997
   XX=   172.2626   YX=    21.6514   ZX=   -59.8716
   XY=    -6.0431   YY=    67.2426   ZY=   152.2446
   XZ=   -27.6926   YZ=   142.6953   ZZ=     0.3387
   Eigenvalues:  -122.6311   159.8605   202.6145
     11  O    Isotropic =  -105.0512   Anisotropy =   577.4315
   XX=  -242.8160   YX=   -68.0517   ZX=  -221.0183
   XY=   -91.4090   YY=    11.3595   ZY=   234.3139
   XZ=  -188.3087   YZ=   242.4210   ZZ=   -83.6972
   Eigenvalues:  -399.5776  -195.4792   279.9031
     12  C    Isotropic =   161.5194   Anisotropy =    18.9819
   XX=   169.4345   YX=     3.2000   ZX=     6.2612
   XY=     9.0113   YY=   160.5915   ZY=     4.2633
   XZ=     5.0200   YZ=    -1.6017   ZZ=   154.5323
   Eigenvalues:   152.5602   157.8240   174.1740
     13  C    Isotropic =   180.9867   Anisotropy =    12.4725
   XX=   180.0132   YX=     1.5024   ZX=    -0.6678
   XY=     1.7644   YY=   188.1296   ZY=     3.3003
   XZ=     0.5432   YZ=     3.8816   ZZ=   174.8174
   Eigenvalues:   173.8751   179.7834   189.3017
     14  C    Isotropic =   177.3452   Anisotropy =    11.1757
   XX=   175.5481   YX=     1.4136   ZX=     3.6307
   XY=     3.0058   YY=   173.7141   ZY=    -3.9252
   XZ=     1.9179   YZ=    -4.4881   ZZ=   182.7734
   Eigenvalues:   170.2165   177.0234   184.7956
     15  O    Isotropic =   239.2786   Anisotropy =    23.5150
   XX=   235.3117   YX=    14.8134   ZX=    -5.6861
   XY=     1.7776   YY=   238.1802   ZY=    14.4654
   XZ=    -9.1986   YZ=    12.1585   ZZ=   244.3440
   Eigenvalues:   219.6762   243.2044   254.9553
     16  Si   Isotropic =   332.7837   Anisotropy =    41.5881
   XX=   329.5319   YX=   -27.5585   ZX=     4.0055
   XY=   -15.4876   YY=   345.0838   ZY=   -11.0407
   XZ=    -6.1037   YZ=     1.2626   ZZ=   323.7354
   Eigenvalues:   313.1254   324.7166   360.5091
     17  C    Isotropic =   185.8733   Anisotropy =    10.7836
   XX=   183.1189   YX=    -2.3606   ZX=     6.6486
   XY=    -3.3812   YY=   185.5323   ZY=     1.1192
   XZ=     6.0001   YZ=     3.9152   ZZ=   188.9686
   Eigenvalues:   177.3335   187.2239   193.0624
     18  C    Isotropic =   185.9049   Anisotropy =     8.6151
   XX=   188.9604   YX=     1.0349   ZX=     2.5426
   XY=     3.1770   YY=   189.3276   ZY=     0.8983
   XZ=     3.1521   YZ=    -0.3907   ZZ=   179.4268
   Eigenvalues:   178.6314   187.4350   191.6483
     19  C    Isotropic =   186.5787   Anisotropy =    13.2238
   XX=   186.9638   YX=    -4.2529   ZX=    -7.6660
   XY=    -4.8524   YY=   184.5049   ZY=    -2.8977
   XZ=    -7.6220   YZ=    -2.7836   ZZ=   188.2672
   Eigenvalues:   176.4622   187.8793   195.3945
     20  H    Isotropic =    32.0560   Anisotropy =     7.2546
   XX=    31.7118   YX=     0.0853   ZX=     3.6159
   XY=     0.5950   YY=    30.9484   ZY=     2.7269
   XZ=     3.1862   YZ=     2.0499   ZZ=    33.5077
   Eigenvalues:    28.3845    30.8910    36.8924
     21  H    Isotropic =    32.2539   Anisotropy =    10.5392
   XX=    30.8305   YX=    -3.5414   ZX=     0.5964
   XY=    -3.1664   YY=    37.7945   ZY=    -0.9929
   XZ=     0.5511   YZ=    -1.1692   ZZ=    28.1368
   Eigenvalues:    27.9930    29.4888    39.2800
     22  H    Isotropic =    31.8690   Anisotropy =     7.1903
   XX=    33.6651   YX=    -1.1258   ZX=    -4.3726
   XY=    -0.2115   YY=    31.1031   ZY=     0.0654
   XZ=    -3.8315   YZ=     0.2360   ZZ=    30.8387
   Eigenvalues:    27.8910    31.0535    36.6625
     23  H    Isotropic =    31.9741   Anisotropy =     8.2729
   XX=    30.6182   YX=    -0.5118   ZX=     0.3722
   XY=    -0.7903   YY=    28.0264   ZY=     1.1828
   XZ=     1.1493   YZ=     1.1514   ZZ=    37.2776
   Eigenvalues:    27.6914    30.7414    37.4893
     24  H    Isotropic =    31.9133   Anisotropy =     8.7413
   XX=    34.3982   YX=     3.9826   ZX=    -2.0457
   XY=     3.4966   YY=    32.4263   ZY=    -0.0234
   XZ=    -2.4266   YZ=    -0.7315   ZZ=    28.9155
   Eigenvalues:    27.8293    30.1698    37.7409
     25  H    Isotropic =    32.3718   Anisotropy =    10.2100
   XX=    33.5144   YX=    -5.0203   ZX=    -1.0274
   XY=    -5.3287   YY=    34.3534   ZY=     0.2146
   XZ=    -0.9172   YZ=    -0.0372   ZZ=    29.2474
   Eigenvalues:    28.2775    29.6594    39.1784
     26  H    Isotropic =    32.2959   Anisotropy =    10.4213
   XX=    32.9326   YX=    -4.6535   ZX=     2.6358
   XY=    -5.0721   YY=    33.5883   ZY=    -2.1517
   XZ=     2.2788   YZ=    -1.8364   ZZ=    30.3669
   Eigenvalues:    28.2236    29.4207    39.2435
     27  H    Isotropic =    31.9702   Anisotropy =     8.2975
   XX=    33.3253   YX=     3.6820   ZX=     2.3202
   XY=     3.1774   YY=    33.1185   ZY=     0.8494
   XZ=     2.5493   YZ=     1.5910   ZZ=    29.4666
   Eigenvalues:    28.2339    30.1748    37.5018
     28  H    Isotropic =    31.4071   Anisotropy =     7.6427
   XX=    32.9140   YX=    -1.2975   ZX=    -2.0357
   XY=    -2.0746   YY=    27.1178   ZY=    -0.3825
   XZ=    -3.5710   YZ=    -0.1996   ZZ=    34.1895
   Eigenvalues:    26.5098    31.2093    36.5022
     29  H    Isotropic =    30.8030   Anisotropy =     7.7793
   XX=    31.7717   YX=    -0.4742   ZX=    -2.1069
   XY=    -0.2512   YY=    25.9943   ZY=     0.1888
   XZ=    -2.6315   YZ=     0.1835   ZZ=    34.6430
   Eigenvalues:    25.9714    30.4484    35.9892
     30  H    Isotropic =    31.1827   Anisotropy =     8.7967
   XX=    31.9766   YX=     3.9337   ZX=     3.0732
   XY=     3.8690   YY=    28.4436   ZY=     0.8194
   XZ=     3.0725   YZ=     1.2413   ZZ=    33.1281
   Eigenvalues:    25.8238    30.6772    37.0472
     31  H    Isotropic =    31.3877   Anisotropy =     8.6373
   XX=    29.6676   YX=    -1.9245   ZX=     2.6602
   XY=    -1.6415   YY=    34.3840   ZY=    -3.1643
   XZ=     2.3383   YZ=    -3.2561   ZZ=    30.1115
   Eigenvalues:    27.2258    29.7914    37.1459
     32  H    Isotropic =    30.5058   Anisotropy =     7.3684
   XX=    32.2478   YX=    -1.3131   ZX=     2.5183
   XY=    -1.5997   YY=    29.9065   ZY=    -3.3549
   XZ=     2.4542   YZ=    -3.2779   ZZ=    29.3631
   Eigenvalues:    26.1647    29.9347    35.4180
     33  H    Isotropic =    30.1464   Anisotropy =     9.8198
   XX=    33.8804   YX=    -1.1980   ZX=    -4.1875
   XY=    -1.4691   YY=    28.3478   ZY=     3.0658
   XZ=    -3.5850   YZ=     3.0477   ZZ=    28.2109
   Eigenvalues:    24.7415    29.0047    36.6929
     34  H    Isotropic =    30.8225   Anisotropy =     7.3767
   XX=    28.8203   YX=     1.5417   ZX=     1.7558
   XY=     1.0723   YY=    33.3122   ZY=    -3.8992
   XZ=     1.8168   YZ=    -3.3435   ZZ=    30.3350
   Eigenvalues:    26.1059    30.6213    35.7403
     35  H    Isotropic =    31.2248   Anisotropy =    12.0599
   XX=    36.2316   YX=     4.1220   ZX=     2.2274
   XY=     4.6808   YY=    30.5172   ZY=     1.6925
   XZ=     2.4314   YZ=     1.5282   ZZ=    26.9256
   Eigenvalues:    26.2368    28.1729    39.2647
     36  H    Isotropic =    31.2548   Anisotropy =     5.9598
   XX=    31.2987   YX=     1.1274   ZX=    -2.5289
   XY=     0.7267   YY=    31.1210   ZY=     3.8838
   XZ=    -2.5099   YZ=     3.2441   ZZ=    31.3447
   Eigenvalues:    26.4252    32.1112    35.2279
     37  C    Isotropic =   140.2941   Anisotropy =    14.1201
   XX=   136.7108   YX=     7.2641   ZX=    -0.9742
   XY=    -1.5960   YY=   148.3923   ZY=    -7.1088
   XZ=     5.8460   YZ=    -0.0829   ZZ=   135.7793
   Eigenvalues:   132.4507   138.7242   149.7075
     38  C    Isotropic =    45.2876   Anisotropy =   180.5027
   XX=   -71.8781   YX=    26.6838   ZX=   -28.3681
   XY=    21.9045   YY=    76.3268   ZY=   -48.4726
   XZ=   -31.5676   YZ=   -48.1860   ZZ=   131.4142
   Eigenvalues:   -78.2684    48.5085   165.6228
     39  C    Isotropic =    65.8841   Anisotropy =   138.7838
   XX=   -41.9971   YX=    13.7420   ZX=   -30.3798
   XY=    15.5942   YY=   105.3863   ZY=   -27.1956
   XZ=   -33.3607   YZ=   -31.0959   ZZ=   134.2631
   Eigenvalues:   -48.1803    87.4260   158.4066
     40  H    Isotropic =    30.1703   Anisotropy =     6.4427
   XX=    30.2478   YX=    -1.2182   ZX=     1.2203
   XY=    -0.1310   YY=    34.3572   ZY=     0.3529
   XZ=     1.7673   YZ=     0.2195   ZZ=    25.9059
   Eigenvalues:    25.4163    30.6292    34.4654
     41  H    Isotropic =    29.4882   Anisotropy =     3.7327
   XX=    27.6756   YX=     2.7721   ZX=     0.3378
   XY=     2.8413   YY=    29.1167   ZY=    -1.8857
   XZ=     1.0250   YZ=     0.0972   ZZ=    31.6722
   Eigenvalues:    25.3124    31.1754    31.9767
     42  H    Isotropic =    25.6766   Anisotropy =     7.4015
   XX=    24.6154   YX=     3.6495   ZX=     0.4663
   XY=     2.2473   YY=    29.0105   ZY=     1.1173
   XZ=    -0.4479   YZ=     0.9568   ZZ=    23.4039
   Eigenvalues:    22.7502    23.6686    30.6110
     43  H    Isotropic =    26.7356   Anisotropy =     6.8936
   XX=    24.1202   YX=     0.8787   ZX=    -0.0759
   XY=     3.0716   YY=    30.0376   ZY=     2.1600
   XZ=     0.8954   YZ=     1.5948   ZZ=    26.0491
   Eigenvalues:    23.5100    25.3656    31.3314
     44  H    Isotropic =    26.8154   Anisotropy =     7.3674
   XX=    23.1865   YX=     1.3667   ZX=     0.3334
   XY=    -0.5131   YY=    31.1936   ZY=     1.4592
   XZ=    -1.0150   YZ=     1.9761   ZZ=    26.0663
   Eigenvalues:    23.0927    25.6266    31.7270
 End of Minotr F.D. properties file   721 does not exist.
 End of Minotr F.D. properties file   722 does not exist.
 End of Minotr F.D. properties file   788 does not exist.

 **********************************************************************

            Population analysis using the SCF density.

 **********************************************************************

 Orbital symmetries:
       Occupied  (A) (A) (A) (A) (A) (A) (A) (A) (A) (A) (A) (A)
                 (A) (A) (A) (A) (A) (A) (A) (A) (A) (A) (A) (A)
                 (A) (A) (A) (A) (A) (A) (A) (A) (A) (A) (A) (A)
                 (A) (A) (A) (A) (A) (A) (A) (A) (A) (A) (A) (A)
                 (A) (A) (A) (A) (A) (A) (A) (A) (A) (A) (A) (A)
                 (A) (A) (A) (A) (A) (A) (A) (A) (A) (A) (A) (A)
                 (A) (A)
       Virtual   (A) (A) (A) (A) (A) (A) (A) (A) (A) (A) (A) (A)
                 (A) (A) (A) (A) (A) (A) (A) (A) (A) (A) (A) (A)
                 (A) (A) (A) (A) (A) (A) (A) (A) (A) (A) (A) (A)
                 (A) (A) (A) (A) (A) (A) (A) (A) (A) (A) (A) (A)
                 (A) (A) (A) (A) (A) (A) (A) (A) (A) (A) (A) (A)
                 (A) (A) (A) (A) (A) (A) (A) (A) (A) (A) (A) (A)
                 (A) (A) (A) (A) (A) (A) (A) (A) (A) (A) (A) (A)
                 (A) (A) (A) (A) (A) (A) (A) (A) (A) (A) (A) (A)
                 (A) (A) (A) (A) (A) (A) (A) (A) (A) (A) (A) (A)
                 (A) (A) (A) (A) (A) (A) (A) (A) (A) (A) (A) (A)
                 (A) (A) (A) (A) (A) (A) (A) (A) (A) (A) (A) (A)
                 (A) (A) (A) (A) (A) (A) (A) (A) (A) (A) (A) (A)
                 (A) (A) (A) (A) (A) (A) (A) (A) (A) (A) (A) (A)
                 (A) (A) (A) (A) (A) (A) (A) (A) (A) (A) (A) (A)
                 (A) (A) (A) (A) (A) (A) (A) (A) (A) (A) (A) (A)
                 (A) (A) (A) (A) (A) (A) (A) (A) (A) (A) (A) (A)
                 (A) (A) (A) (A) (A) (A) (A) (A) (A) (A) (A) (A)
                 (A) (A) (A) (A) (A) (A) (A) (A) (A) (A) (A) (A)
                 (A) (A) (A) (A) (A) (A) (A) (A) (A) (A) (A) (A)
                 (A) (A) (A) (A) (A) (A) (A) (A) (A) (A) (A) (A)
                 (A) (A) (A) (A) (A) (A) (A) (A) (A) (A) (A) (A)
                 (A) (A) (A) (A) (A) (A) (A) (A) (A) (A) (A) (A)
                 (A) (A) (A) (A) (A) (A) (A) (A) (A) (A) (A) (A)
                 (A) (A) (A) (A) (A) (A) (A) (A) (A) (A) (A) (A)
                 (A) (A) (A) (A) (A) (A) (A) (A) (A) (A) (A) (A)
                 (A) (A) (A) (A) (A) (A) (A) (A) (A) (A) (A) (A)
                 (A) (A) (A) (A) (A) (A) (A) (A) (A) (A) (A) (A)
                 (A) (A) (A) (A) (A) (A) (A) (A) (A) (A) (A) (A)
 The electronic state is 1-A.
 Alpha  occ. eigenvalues --  -66.27216 -19.26058 -19.20581 -19.20069 -10.36897
 Alpha  occ. eigenvalues --  -10.32124 -10.30677 -10.25376 -10.25157 -10.24131
 Alpha  occ. eigenvalues --  -10.24078 -10.24050 -10.23047 -10.22856 -10.22266
 Alpha  occ. eigenvalues --  -10.20694 -10.20535 -10.20373  -5.32949  -3.66841
 Alpha  occ. eigenvalues --   -3.66541  -3.66524  -1.13489  -1.05127  -1.03875
 Alpha  occ. eigenvalues --   -0.85857  -0.83271  -0.80413  -0.77657  -0.73974
 Alpha  occ. eigenvalues --   -0.72515  -0.72367  -0.70080  -0.69899  -0.67205
 Alpha  occ. eigenvalues --   -0.62755  -0.62175  -0.58416  -0.56016  -0.54667
 Alpha  occ. eigenvalues --   -0.52408  -0.51117  -0.49168  -0.48504  -0.46298
 Alpha  occ. eigenvalues --   -0.45893  -0.45435  -0.44913  -0.44361  -0.43057
 Alpha  occ. eigenvalues --   -0.42896  -0.42622  -0.42235  -0.42027  -0.41059
 Alpha  occ. eigenvalues --   -0.40792  -0.40324  -0.39735  -0.39389  -0.38946
 Alpha  occ. eigenvalues --   -0.38279  -0.38015  -0.37709  -0.36535  -0.36186
 Alpha  occ. eigenvalues --   -0.35509  -0.35039  -0.33357  -0.32398  -0.31143
 Alpha  occ. eigenvalues --   -0.30211  -0.28804  -0.28380  -0.27226
 Alpha virt. eigenvalues --    0.00178   0.01193   0.03956   0.05070   0.05789
 Alpha virt. eigenvalues --    0.06861   0.07582   0.08259   0.08418   0.08777
 Alpha virt. eigenvalues --    0.10025   0.10430   0.10603   0.10897   0.11454
 Alpha virt. eigenvalues --    0.11981   0.12440   0.12634   0.13108   0.13473
 Alpha virt. eigenvalues --    0.14167   0.14550   0.15216   0.15313   0.15846
 Alpha virt. eigenvalues --    0.16250   0.16659   0.17179   0.17319   0.18137
 Alpha virt. eigenvalues --    0.18710   0.19029   0.19330   0.20046   0.20573
 Alpha virt. eigenvalues --    0.20852   0.22155   0.23683   0.24214   0.24913
 Alpha virt. eigenvalues --    0.25768   0.26320   0.26633   0.27424   0.27832
 Alpha virt. eigenvalues --    0.29959   0.31080   0.31355   0.32298   0.32884
 Alpha virt. eigenvalues --    0.32959   0.33880   0.34767   0.35389   0.36207
 Alpha virt. eigenvalues --    0.36951   0.38147   0.38684   0.40012   0.40379
 Alpha virt. eigenvalues --    0.41815   0.42986   0.43820   0.44489   0.44807
 Alpha virt. eigenvalues --    0.45045   0.45323   0.46816   0.47539   0.48017
 Alpha virt. eigenvalues --    0.49423   0.50129   0.51293   0.52315   0.52579
 Alpha virt. eigenvalues --    0.52924   0.54025   0.54559   0.55658   0.55955
 Alpha virt. eigenvalues --    0.56777   0.57460   0.57920   0.58171   0.58831
 Alpha virt. eigenvalues --    0.59349   0.59515   0.59749   0.60847   0.60978
 Alpha virt. eigenvalues --    0.61123   0.62307   0.62586   0.62801   0.63207
 Alpha virt. eigenvalues --    0.63664   0.63940   0.64501   0.65412   0.65989
 Alpha virt. eigenvalues --    0.66190   0.66788   0.67447   0.67830   0.67872
 Alpha virt. eigenvalues --    0.68789   0.69380   0.69789   0.70210   0.70973
 Alpha virt. eigenvalues --    0.71502   0.73032   0.73100   0.73685   0.74439
 Alpha virt. eigenvalues --    0.75700   0.76457   0.79606   0.81216   0.81904
 Alpha virt. eigenvalues --    0.83090   0.83990   0.85271   0.87833   0.88273
 Alpha virt. eigenvalues --    0.89495   0.90763   0.92968   0.93581   0.94298
 Alpha virt. eigenvalues --    0.95843   0.96792   0.97593   0.98629   1.01294
 Alpha virt. eigenvalues --    1.02895   1.03845   1.05682   1.07689   1.10955
 Alpha virt. eigenvalues --    1.14166   1.15103   1.16838   1.19357   1.21024
 Alpha virt. eigenvalues --    1.22779   1.23546   1.26831   1.27566   1.28442
 Alpha virt. eigenvalues --    1.29310   1.30830   1.30945   1.33738   1.34929
 Alpha virt. eigenvalues --    1.37386   1.37834   1.38808   1.41175   1.41568
 Alpha virt. eigenvalues --    1.43364   1.44354   1.45775   1.48032   1.48458
 Alpha virt. eigenvalues --    1.50403   1.50909   1.52287   1.53214   1.53935
 Alpha virt. eigenvalues --    1.55729   1.55873   1.56098   1.57650   1.58256
 Alpha virt. eigenvalues --    1.58797   1.59560   1.59647   1.60521   1.60903
 Alpha virt. eigenvalues --    1.61342   1.62503   1.62705   1.63675   1.64467
 Alpha virt. eigenvalues --    1.65010   1.66533   1.67031   1.68608   1.70344
 Alpha virt. eigenvalues --    1.70888   1.71297   1.72338   1.74175   1.74634
 Alpha virt. eigenvalues --    1.75702   1.78776   1.78890   1.80208   1.80579
 Alpha virt. eigenvalues --    1.81710   1.83309   1.84428   1.84715   1.87382
 Alpha virt. eigenvalues --    1.88721   1.91383   1.94251   1.95982   1.96826
 Alpha virt. eigenvalues --    2.00922   2.01925   2.03154   2.08602   2.12005
 Alpha virt. eigenvalues --    2.15858   2.16270   2.19464   2.22018   2.24033
 Alpha virt. eigenvalues --    2.28708   2.30813   2.35309   2.36347   2.40122
 Alpha virt. eigenvalues --    2.41214   2.42249   2.42687   2.42871   2.44267
 Alpha virt. eigenvalues --    2.44736   2.44913   2.45790   2.46794   2.47439
 Alpha virt. eigenvalues --    2.47695   2.49226   2.49522   2.51221   2.52118
 Alpha virt. eigenvalues --    2.53427   2.53694   2.55869   2.57067   2.58660
 Alpha virt. eigenvalues --    2.61672   2.65429   2.67553   2.72797   2.80063
 Alpha virt. eigenvalues --    2.81508   2.87489   2.88598   2.90752   2.91161
 Alpha virt. eigenvalues --    2.91519   2.92880   2.93208   2.94823   2.97037
 Alpha virt. eigenvalues --    2.98625   2.99834   3.02043   3.04170   3.07245
 Alpha virt. eigenvalues --    3.10168   3.11158   3.12029   3.13220   3.15208
 Alpha virt. eigenvalues --    3.16902   3.17307   3.17623   3.20615   3.21877
 Alpha virt. eigenvalues --    3.22943   3.23049   3.23458   3.24000   3.25092
 Alpha virt. eigenvalues --    3.26990   3.27965   3.28278   3.29953   3.32157
 Alpha virt. eigenvalues --    3.34454   3.35121   3.36185   3.39523   3.42390
 Alpha virt. eigenvalues --    3.46057   3.51554   3.57024   3.59695   3.61931
 Alpha virt. eigenvalues --    3.75764   3.88030   3.92461   3.96688   4.05119
 Alpha virt. eigenvalues --    4.07007   4.12734   4.18525   4.24445   4.25577
 Alpha virt. eigenvalues --    4.97084   5.01346   5.04034   5.10940   5.16773
 Alpha virt. eigenvalues --    5.26081   5.52990   5.53685   5.75973   5.84918
 Alpha virt. eigenvalues --   11.52269  11.53649  11.57867  23.42172  23.49626
 Alpha virt. eigenvalues --   23.54200  23.55296  23.57430  23.61580  23.72490
 Alpha virt. eigenvalues --   23.74833  23.77765  23.80949  23.83286  23.87052
 Alpha virt. eigenvalues --   23.91324  24.29369  49.99494  50.06173  50.12716
 Alpha virt. eigenvalues --  141.27032
          Condensed to atoms (all electrons):
               1          2          3          4          5          6
     1  C    5.250490   0.273004  -0.064630  -0.030333  -0.068001   0.391231
     2  C    0.273004   5.495566   0.362862  -0.058200  -0.013575  -0.053667
     3  C   -0.064630   0.362862   5.084356   0.224529  -0.029441  -0.010514
     4  C   -0.030333  -0.058200   0.224529   5.930651   0.251551   0.003894
     5  C   -0.068001  -0.013575  -0.029441   0.251551   4.404654  -0.006861
     6  H    0.391231  -0.053667  -0.010514   0.003894  -0.006861   0.486844
     7  H   -0.051039   0.398621  -0.054964  -0.001260  -0.000265   0.008586
     8  H    0.000483   0.004782  -0.023103   0.375986  -0.024801  -0.000110
     9  H   -0.001074   0.001806  -0.035269   0.358497  -0.025729   0.001302
    10  O    0.197499  -0.030297  -0.000469  -0.104249   0.343691  -0.027811
    11  O    0.004145  -0.001700   0.003961  -0.094265   0.647636  -0.000233
    12  C    0.337980  -0.046623   0.006453  -0.000808   0.002955  -0.046057
    13  C   -0.077839  -0.006012  -0.000198  -0.000080  -0.000094   0.007746
    14  C   -0.056599   0.271959  -0.052661   0.006661   0.000185   0.003222
    15  O    0.004426  -0.049552   0.224206  -0.044342   0.001941   0.000091
    16  Si   0.002841  -0.009315  -0.041193  -0.023887   0.001567  -0.000179
    17  C    0.000050  -0.000296  -0.000512   0.002035  -0.000452   0.000000
    18  C    0.000096  -0.000030   0.001527  -0.000166   0.000473  -0.000012
    19  C    0.000000  -0.000237   0.002417  -0.000262  -0.000008   0.000000
    20  H    0.000014   0.000117   0.000314   0.000060   0.000015  -0.000011
    21  H   -0.000017   0.000237  -0.000082   0.000029   0.000001   0.000001
    22  H   -0.000423   0.000077   0.000200   0.001194   0.003447  -0.000003
    23  H   -0.000001   0.000023  -0.000010  -0.000035   0.000003   0.000000
    24  H    0.000001  -0.000024  -0.000049  -0.000060   0.000003   0.000000
    25  H    0.000000   0.000003  -0.000053  -0.000001   0.000002   0.000000
    26  H    0.000000   0.000004  -0.000058   0.000292  -0.000037   0.000000
    27  H    0.000006  -0.000050   0.000406  -0.000121   0.000148   0.000000
    28  H   -0.000005  -0.000037   0.000711  -0.004792   0.000645  -0.000004
    29  H    0.006738  -0.040771  -0.003122   0.000711  -0.000080  -0.000433
    30  H   -0.008258  -0.030057   0.006573  -0.000250  -0.000022  -0.000476
    31  H   -0.003491  -0.038101  -0.009209  -0.000188   0.000015   0.002551
    32  H   -0.038158  -0.008445  -0.000204   0.000081  -0.000054  -0.000389
    33  H   -0.046821   0.008662  -0.000144   0.000082  -0.000195  -0.007766
    34  H   -0.008669  -0.000547  -0.000237   0.000436   0.000357   0.000459
    35  H    0.008108  -0.000251   0.000003   0.000000   0.000010  -0.000162
    36  H   -0.007968   0.005732   0.000384  -0.000017  -0.000040  -0.000445
    37  C   -0.000037  -0.076594   0.305060  -0.079947   0.004333   0.004170
    38  C   -0.000411   0.008394  -0.052057  -0.024680   0.000342  -0.000252
    39  C   -0.000023  -0.000055  -0.003340   0.001986   0.000026  -0.000055
    40  H    0.000616  -0.001187  -0.042888   0.000568  -0.000402   0.003978
    41  H    0.000616  -0.012223  -0.040603   0.008102  -0.000144  -0.000140
    42  H   -0.000017   0.000063  -0.001871  -0.000449  -0.000023   0.000003
    43  H   -0.000001   0.000017  -0.000354   0.000088   0.000000  -0.000003
    44  H   -0.000004  -0.000047   0.000162  -0.000109  -0.000003   0.000003
               7          8          9         10         11         12
     1  C   -0.051039   0.000483  -0.001074   0.197499   0.004145   0.337980
     2  C    0.398621   0.004782   0.001806  -0.030297  -0.001700  -0.046623
     3  C   -0.054964  -0.023103  -0.035269  -0.000469   0.003961   0.006453
     4  C   -0.001260   0.375986   0.358497  -0.104249  -0.094265  -0.000808
     5  C   -0.000265  -0.024801  -0.025729   0.343691   0.647636   0.002955
     6  H    0.008586  -0.000110   0.001302  -0.027811  -0.000233  -0.046057
     7  H    0.463080  -0.000295  -0.000187   0.004501  -0.001234  -0.010220
     8  H   -0.000295   0.390995  -0.016418   0.003635   0.002359   0.000075
     9  H   -0.000187  -0.016418   0.419980  -0.000281   0.001224   0.000161
    10  O    0.004501   0.003635  -0.000281   8.043778  -0.073163  -0.053957
    11  O   -0.001234   0.002359   0.001224  -0.073163   7.870656  -0.000124
    12  C   -0.010220   0.000075   0.000161  -0.053957  -0.000124   5.299997
    13  C    0.003320   0.000004  -0.000007  -0.002214  -0.000030   0.295530
    14  C   -0.036124  -0.000076  -0.000369   0.004686  -0.000010  -0.007760
    15  O   -0.003646  -0.003970   0.003454  -0.000057   0.000014  -0.000087
    16  Si  -0.001955  -0.005685   0.002968  -0.002822   0.007574  -0.000060
    17  C   -0.000233  -0.002339  -0.000023  -0.000015  -0.006091   0.000000
    18  C   -0.006496   0.000287  -0.000030  -0.000043  -0.001541  -0.000044
    19  C   -0.000400  -0.000199   0.000012   0.000000   0.000002   0.000000
    20  H   -0.002240  -0.000006   0.000006  -0.000071   0.000049   0.000010
    21  H    0.000963   0.000008  -0.000001   0.000002  -0.000011   0.000001
    22  H   -0.002630  -0.000059   0.000027   0.000059   0.002852  -0.000039
    23  H   -0.000045  -0.000011   0.000002   0.000000   0.000000   0.000000
    24  H   -0.000010  -0.000036   0.000002   0.000000   0.000001   0.000000
    25  H    0.000008   0.000005   0.000000   0.000000   0.000001   0.000000
    26  H    0.000005   0.000454  -0.000007   0.000000  -0.000021   0.000000
    27  H   -0.000008   0.000285  -0.000071  -0.000003  -0.000067   0.000000
    28  H   -0.000070   0.001189   0.000176   0.000354   0.019229   0.000004
    29  H   -0.005474  -0.000020  -0.000046  -0.000157   0.000001   0.000261
    30  H   -0.008134   0.000014   0.000025   0.000062   0.000000   0.001700
    31  H    0.007173  -0.000010  -0.000059   0.000013  -0.000001  -0.001864
    32  H    0.000285  -0.000005  -0.000009   0.003460   0.000007   0.389314
    33  H   -0.000578  -0.000010  -0.000029   0.002633  -0.000024   0.403862
    34  H    0.000249  -0.000011  -0.000006   0.011500   0.000086  -0.041753
    35  H    0.000277   0.000000   0.000000  -0.000086  -0.000001  -0.036146
    36  H   -0.002918   0.000000   0.000001  -0.000510   0.000003  -0.033575
    37  C    0.006038  -0.005180  -0.006757  -0.000249  -0.000092  -0.000487
    38  C   -0.000250   0.002726   0.001326  -0.000020  -0.000018   0.000011
    39  C   -0.000006   0.001321   0.003632   0.000000   0.000001   0.000000
    40  H    0.000457   0.000321  -0.001866  -0.000093   0.000004  -0.000037
    41  H   -0.000352  -0.000032   0.000910  -0.000017   0.000005   0.000003
    42  H    0.000016   0.000155  -0.000043   0.000001   0.000000   0.000001
    43  H   -0.000001   0.000067   0.000037   0.000000   0.000000   0.000000
    44  H    0.000001  -0.000021   0.000298   0.000001   0.000000   0.000000
              13         14         15         16         17         18
     1  C   -0.077839  -0.056599   0.004426   0.002841   0.000050   0.000096
     2  C   -0.006012   0.271959  -0.049552  -0.009315  -0.000296  -0.000030
     3  C   -0.000198  -0.052661   0.224206  -0.041193  -0.000512   0.001527
     4  C   -0.000080   0.006661  -0.044342  -0.023887   0.002035  -0.000166
     5  C   -0.000094   0.000185   0.001941   0.001567  -0.000452   0.000473
     6  H    0.007746   0.003222   0.000091  -0.000179   0.000000  -0.000012
     7  H    0.003320  -0.036124  -0.003646  -0.001955  -0.000233  -0.006496
     8  H    0.000004  -0.000076  -0.003970  -0.005685  -0.002339   0.000287
     9  H   -0.000007  -0.000369   0.003454   0.002968  -0.000023  -0.000030
    10  O   -0.002214   0.004686  -0.000057  -0.002822  -0.000015  -0.000043
    11  O   -0.000030  -0.000010   0.000014   0.007574  -0.006091  -0.001541
    12  C    0.295530  -0.007760  -0.000087  -0.000060   0.000000  -0.000044
    13  C    5.377973  -0.002547  -0.000002  -0.000182   0.000000   0.000090
    14  C   -0.002547   5.432327  -0.000521  -0.000643   0.000006   0.000392
    15  O   -0.000002  -0.000521   8.279038   0.359628  -0.025745  -0.024960
    16  Si  -0.000182  -0.000643   0.359628  11.529459   0.313798   0.311759
    17  C    0.000000   0.000006  -0.025745   0.313798   5.814663  -0.054591
    18  C    0.000090   0.000392  -0.024960   0.311759  -0.054591   5.806787
    19  C    0.000000  -0.000005  -0.031356   0.330232  -0.046212  -0.046408
    20  H    0.000152   0.000095  -0.002103  -0.025720   0.002264   0.369327
    21  H   -0.000002  -0.000011   0.000811  -0.010577   0.000257   0.363252
    22  H    0.000225   0.000108  -0.001387  -0.024109  -0.001394   0.364957
    23  H    0.000000  -0.000005  -0.001999  -0.024192   0.002092  -0.000970
    24  H    0.000000  -0.000004  -0.001937  -0.024275  -0.000816   0.002104
    25  H    0.000000  -0.000002   0.001149  -0.014855   0.000329   0.000141
    26  H    0.000000   0.000000   0.000840  -0.010731   0.361436   0.000492
    27  H    0.000000   0.000001  -0.002233  -0.026243   0.369097   0.002181
    28  H    0.000000  -0.000002  -0.001495  -0.025773   0.354253  -0.001374
    29  H   -0.000158   0.388682   0.005980   0.001863   0.000022  -0.000018
    30  H    0.000349   0.388954  -0.000265  -0.000244  -0.000001   0.000039
    31  H    0.000408   0.386630   0.000028  -0.000099   0.000000  -0.000004
    32  H   -0.036175   0.003131  -0.000003  -0.000018   0.000000  -0.000003
    33  H   -0.042686  -0.000402   0.000005   0.000038   0.000000  -0.000001
    34  H    0.384620   0.000380   0.000005  -0.000045   0.000001   0.000093
    35  H    0.391157   0.000077   0.000000  -0.000005   0.000000   0.000000
    36  H    0.382287  -0.000453  -0.000002  -0.000022   0.000001   0.000293
    37  C    0.000005  -0.019488  -0.078435   0.000289   0.000024  -0.000280
    38  C    0.000000  -0.000091   0.008340   0.001193  -0.000215   0.000028
    39  C    0.000000  -0.000035   0.000974   0.000506  -0.000025   0.000001
    40  H    0.000009  -0.001684   0.003897  -0.000037   0.000009   0.000010
    41  H   -0.000002   0.003144   0.002047   0.000307   0.000020  -0.000001
    42  H    0.000000  -0.000084   0.004212   0.001140   0.000258   0.000018
    43  H    0.000000   0.000000   0.000012   0.000005   0.000001   0.000000
    44  H    0.000000  -0.000013   0.000001   0.000001   0.000000   0.000000
              19         20         21         22         23         24
     1  C    0.000000   0.000014  -0.000017  -0.000423  -0.000001   0.000001
     2  C   -0.000237   0.000117   0.000237   0.000077   0.000023  -0.000024
     3  C    0.002417   0.000314  -0.000082   0.000200  -0.000010  -0.000049
     4  C   -0.000262   0.000060   0.000029   0.001194  -0.000035  -0.000060
     5  C   -0.000008   0.000015   0.000001   0.003447   0.000003   0.000003
     6  H    0.000000  -0.000011   0.000001  -0.000003   0.000000   0.000000
     7  H   -0.000400  -0.002240   0.000963  -0.002630  -0.000045  -0.000010
     8  H   -0.000199  -0.000006   0.000008  -0.000059  -0.000011  -0.000036
     9  H    0.000012   0.000006  -0.000001   0.000027   0.000002   0.000002
    10  O    0.000000  -0.000071   0.000002   0.000059   0.000000   0.000000
    11  O    0.000002   0.000049  -0.000011   0.002852   0.000000   0.000001
    12  C    0.000000   0.000010   0.000001  -0.000039   0.000000   0.000000
    13  C    0.000000   0.000152  -0.000002   0.000225   0.000000   0.000000
    14  C   -0.000005   0.000095  -0.000011   0.000108  -0.000005  -0.000004
    15  O   -0.031356  -0.002103   0.000811  -0.001387  -0.001999  -0.001937
    16  Si   0.330232  -0.025720  -0.010577  -0.024109  -0.024192  -0.024275
    17  C   -0.046212   0.002264   0.000257  -0.001394   0.002092  -0.000816
    18  C   -0.046408   0.369327   0.363252   0.364957  -0.000970   0.002104
    19  C    5.725141  -0.000408  -0.000471   0.002415   0.370098   0.371202
    20  H   -0.000408   0.455682  -0.021524  -0.019614   0.001207  -0.000063
    21  H   -0.000471  -0.021524   0.441866  -0.019839  -0.000022  -0.000089
    22  H    0.002415  -0.019614  -0.019839   0.436109  -0.000046  -0.000075
    23  H    0.370098   0.001207  -0.000022  -0.000046   0.455739  -0.019686
    24  H    0.371202  -0.000063  -0.000089  -0.000075  -0.019686   0.454447
    25  H    0.362753  -0.000028   0.000600  -0.000046  -0.021864  -0.021918
    26  H   -0.000646  -0.000051   0.000280   0.000066  -0.000044  -0.000058
    27  H   -0.000273  -0.000083  -0.000056  -0.000046  -0.000076   0.000971
    28  H    0.002189  -0.000016  -0.000039   0.000658  -0.000078  -0.000030
    29  H    0.000010   0.000088  -0.000004  -0.000005   0.000087   0.000001
    30  H    0.000001   0.000060  -0.000002   0.000013   0.000000   0.000000
    31  H    0.000000  -0.000007   0.000000  -0.000003  -0.000001   0.000000
    32  H    0.000000   0.000000   0.000000   0.000005   0.000000   0.000000
    33  H    0.000000   0.000000   0.000000  -0.000004   0.000000   0.000000
    34  H    0.000000  -0.000015   0.000002   0.000490   0.000000   0.000000
    35  H    0.000000  -0.000004   0.000000  -0.000001   0.000000   0.000000
    36  H    0.000000   0.000448  -0.000011   0.000023   0.000000   0.000000
    37  C    0.000058  -0.000062   0.000005  -0.000064   0.000009   0.000080
    38  C   -0.000079   0.000006   0.000000   0.000009   0.000006  -0.000008
    39  C   -0.000002   0.000000   0.000000   0.000000   0.000000  -0.000003
    40  H    0.000000   0.000000   0.000000   0.000001  -0.000002  -0.000002
    41  H   -0.000082   0.000000   0.000001  -0.000003  -0.000018  -0.000014
    42  H    0.000157   0.000001   0.000000   0.000001  -0.000018   0.000265
    43  H    0.000000   0.000000   0.000000   0.000000   0.000000  -0.000001
    44  H    0.000000   0.000000   0.000000   0.000000   0.000000   0.000000
              25         26         27         28         29         30
     1  C    0.000000   0.000000   0.000006  -0.000005   0.006738  -0.008258
     2  C    0.000003   0.000004  -0.000050  -0.000037  -0.040771  -0.030057
     3  C   -0.000053  -0.000058   0.000406   0.000711  -0.003122   0.006573
     4  C   -0.000001   0.000292  -0.000121  -0.004792   0.000711  -0.000250
     5  C    0.000002  -0.000037   0.000148   0.000645  -0.000080  -0.000022
     6  H    0.000000   0.000000   0.000000  -0.000004  -0.000433  -0.000476
     7  H    0.000008   0.000005  -0.000008  -0.000070  -0.005474  -0.008134
     8  H    0.000005   0.000454   0.000285   0.001189  -0.000020   0.000014
     9  H    0.000000  -0.000007  -0.000071   0.000176  -0.000046   0.000025
    10  O    0.000000   0.000000  -0.000003   0.000354  -0.000157   0.000062
    11  O    0.000001  -0.000021  -0.000067   0.019229   0.000001   0.000000
    12  C    0.000000   0.000000   0.000000   0.000004   0.000261   0.001700
    13  C    0.000000   0.000000   0.000000   0.000000  -0.000158   0.000349
    14  C   -0.000002   0.000000   0.000001  -0.000002   0.388682   0.388954
    15  O    0.001149   0.000840  -0.002233  -0.001495   0.005980  -0.000265
    16  Si  -0.014855  -0.010731  -0.026243  -0.025773   0.001863  -0.000244
    17  C    0.000329   0.361436   0.369097   0.354253   0.000022  -0.000001
    18  C    0.000141   0.000492   0.002181  -0.001374  -0.000018   0.000039
    19  C    0.362753  -0.000646  -0.000273   0.002189   0.000010   0.000001
    20  H   -0.000028  -0.000051  -0.000083  -0.000016   0.000088   0.000060
    21  H    0.000600   0.000280  -0.000056  -0.000039  -0.000004  -0.000002
    22  H   -0.000046   0.000066  -0.000046   0.000658  -0.000005   0.000013
    23  H   -0.021864  -0.000044  -0.000076  -0.000078   0.000087   0.000000
    24  H   -0.021918  -0.000058   0.000971  -0.000030   0.000001   0.000000
    25  H    0.460893   0.000767  -0.000036  -0.000034  -0.000002   0.000000
    26  H    0.000767   0.449713  -0.021116  -0.020642   0.000000   0.000000
    27  H   -0.000036  -0.021116   0.454645  -0.019159   0.000002   0.000000
    28  H   -0.000034  -0.020642  -0.019159   0.438772   0.000003   0.000000
    29  H   -0.000002   0.000000   0.000002   0.000003   0.442227  -0.023910
    30  H    0.000000   0.000000   0.000000   0.000000  -0.023910   0.449705
    31  H    0.000000   0.000000   0.000000   0.000000  -0.024670  -0.026657
    32  H    0.000000   0.000000   0.000000   0.000000   0.000298  -0.001792
    33  H    0.000000   0.000000   0.000000   0.000000   0.000036   0.000257
    34  H    0.000000   0.000000   0.000000  -0.000004   0.000024  -0.000129
    35  H    0.000000   0.000000   0.000000   0.000000  -0.000008  -0.000004
    36  H    0.000000   0.000000   0.000000   0.000000   0.000058   0.004555
    37  C    0.000002   0.000000   0.000088  -0.000043  -0.004794   0.000435
    38  C    0.000000   0.000000   0.000220  -0.000091  -0.000319   0.000017
    39  C    0.000000   0.000000   0.000011  -0.000008  -0.000009   0.000001
    40  H    0.000000   0.000000   0.000002   0.000001   0.000217  -0.000152
    41  H    0.000002   0.000000   0.000004   0.000008   0.002182   0.000337
    42  H   -0.000007  -0.000002   0.000467  -0.000002   0.000017   0.000000
    43  H    0.000000   0.000000  -0.000001   0.000000   0.000000   0.000000
    44  H    0.000000   0.000000   0.000001   0.000000   0.000001   0.000000
              31         32         33         34         35         36
     1  C   -0.003491  -0.038158  -0.046821  -0.008669   0.008108  -0.007968
     2  C   -0.038101  -0.008445   0.008662  -0.000547  -0.000251   0.005732
     3  C   -0.009209  -0.000204  -0.000144  -0.000237   0.000003   0.000384
     4  C   -0.000188   0.000081   0.000082   0.000436   0.000000  -0.000017
     5  C    0.000015  -0.000054  -0.000195   0.000357   0.000010  -0.000040
     6  H    0.002551  -0.000389  -0.007766   0.000459  -0.000162  -0.000445
     7  H    0.007173   0.000285  -0.000578   0.000249   0.000277  -0.002918
     8  H   -0.000010  -0.000005  -0.000010  -0.000011   0.000000   0.000000
     9  H   -0.000059  -0.000009  -0.000029  -0.000006   0.000000   0.000001
    10  O    0.000013   0.003460   0.002633   0.011500  -0.000086  -0.000510
    11  O   -0.000001   0.000007  -0.000024   0.000086  -0.000001   0.000003
    12  C   -0.001864   0.389314   0.403862  -0.041753  -0.036146  -0.033575
    13  C    0.000408  -0.036175  -0.042686   0.384620   0.391157   0.382287
    14  C    0.386630   0.003131  -0.000402   0.000380   0.000077  -0.000453
    15  O    0.000028  -0.000003   0.000005   0.000005   0.000000  -0.000002
    16  Si  -0.000099  -0.000018   0.000038  -0.000045  -0.000005  -0.000022
    17  C    0.000000   0.000000   0.000000   0.000001   0.000000   0.000001
    18  C   -0.000004  -0.000003  -0.000001   0.000093   0.000000   0.000293
    19  C    0.000000   0.000000   0.000000   0.000000   0.000000   0.000000
    20  H   -0.000007   0.000000   0.000000  -0.000015  -0.000004   0.000448
    21  H    0.000000   0.000000   0.000000   0.000002   0.000000  -0.000011
    22  H   -0.000003   0.000005  -0.000004   0.000490  -0.000001   0.000023
    23  H   -0.000001   0.000000   0.000000   0.000000   0.000000   0.000000
    24  H    0.000000   0.000000   0.000000   0.000000   0.000000   0.000000
    25  H    0.000000   0.000000   0.000000   0.000000   0.000000   0.000000
    26  H    0.000000   0.000000   0.000000   0.000000   0.000000   0.000000
    27  H    0.000000   0.000000   0.000000   0.000000   0.000000   0.000000
    28  H    0.000000   0.000000   0.000000  -0.000004   0.000000   0.000000
    29  H   -0.024670   0.000298   0.000036   0.000024  -0.000008   0.000058
    30  H   -0.026657  -0.001792   0.000257  -0.000129  -0.000004   0.004555
    31  H    0.464985   0.000519  -0.000153  -0.000011   0.000006  -0.000145
    32  H    0.000519   0.475322  -0.026596   0.006823  -0.003929  -0.005502
    33  H   -0.000153  -0.026596   0.469600  -0.003486  -0.005337   0.006357
    34  H   -0.000011   0.006823  -0.003486   0.458895  -0.025121  -0.027247
    35  H    0.000006  -0.003929  -0.005337  -0.025121   0.464817  -0.027379
    36  H   -0.000145  -0.005502   0.006357  -0.027247  -0.027379   0.478398
    37  C    0.002863  -0.000011   0.000012   0.000004   0.000000  -0.000008
    38  C    0.000293  -0.000001  -0.000001   0.000000   0.000000   0.000000
    39  C   -0.000011   0.000000   0.000000   0.000000   0.000000   0.000000
    40  H    0.001162   0.000005  -0.000019   0.000001   0.000000  -0.000002
    41  H   -0.002289  -0.000007   0.000002   0.000000   0.000000   0.000001
    42  H   -0.000003   0.000000   0.000000   0.000000   0.000000   0.000000
    43  H    0.000000   0.000000   0.000000   0.000000   0.000000   0.000000
    44  H   -0.000009   0.000000   0.000000   0.000000   0.000000   0.000000
              37         38         39         40         41         42
     1  C   -0.000037  -0.000411  -0.000023   0.000616   0.000616  -0.000017
     2  C   -0.076594   0.008394  -0.000055  -0.001187  -0.012223   0.000063
     3  C    0.305060  -0.052057  -0.003340  -0.042888  -0.040603  -0.001871
     4  C   -0.079947  -0.024680   0.001986   0.000568   0.008102  -0.000449
     5  C    0.004333   0.000342   0.000026  -0.000402  -0.000144  -0.000023
     6  H    0.004170  -0.000252  -0.000055   0.003978  -0.000140   0.000003
     7  H    0.006038  -0.000250  -0.000006   0.000457  -0.000352   0.000016
     8  H   -0.005180   0.002726   0.001321   0.000321  -0.000032   0.000155
     9  H   -0.006757   0.001326   0.003632  -0.001866   0.000910  -0.000043
    10  O   -0.000249  -0.000020   0.000000  -0.000093  -0.000017   0.000001
    11  O   -0.000092  -0.000018   0.000001   0.000004   0.000005   0.000000
    12  C   -0.000487   0.000011   0.000000  -0.000037   0.000003   0.000001
    13  C    0.000005   0.000000   0.000000   0.000009  -0.000002   0.000000
    14  C   -0.019488  -0.000091  -0.000035  -0.001684   0.003144  -0.000084
    15  O   -0.078435   0.008340   0.000974   0.003897   0.002047   0.004212
    16  Si   0.000289   0.001193   0.000506  -0.000037   0.000307   0.001140
    17  C    0.000024  -0.000215  -0.000025   0.000009   0.000020   0.000258
    18  C   -0.000280   0.000028   0.000001   0.000010  -0.000001   0.000018
    19  C    0.000058  -0.000079  -0.000002   0.000000  -0.000082   0.000157
    20  H   -0.000062   0.000006   0.000000   0.000000   0.000000   0.000001
    21  H    0.000005   0.000000   0.000000   0.000000   0.000001   0.000000
    22  H   -0.000064   0.000009   0.000000   0.000001  -0.000003   0.000001
    23  H    0.000009   0.000006   0.000000  -0.000002  -0.000018  -0.000018
    24  H    0.000080  -0.000008  -0.000003  -0.000002  -0.000014   0.000265
    25  H    0.000002   0.000000   0.000000   0.000000   0.000002  -0.000007
    26  H    0.000000   0.000000   0.000000   0.000000   0.000000  -0.000002
    27  H    0.000088   0.000220   0.000011   0.000002   0.000004   0.000467
    28  H   -0.000043  -0.000091  -0.000008   0.000001   0.000008  -0.000002
    29  H   -0.004794  -0.000319  -0.000009   0.000217   0.002182   0.000017
    30  H    0.000435   0.000017   0.000001  -0.000152   0.000337   0.000000
    31  H    0.002863   0.000293  -0.000011   0.001162  -0.002289  -0.000003
    32  H   -0.000011  -0.000001   0.000000   0.000005  -0.000007   0.000000
    33  H    0.000012  -0.000001   0.000000  -0.000019   0.000002   0.000000
    34  H    0.000004   0.000000   0.000000   0.000001   0.000000   0.000000
    35  H    0.000000   0.000000   0.000000   0.000000   0.000000   0.000000
    36  H   -0.000008   0.000000   0.000000  -0.000002   0.000001   0.000000
    37  C    5.450887   0.330047  -0.064684   0.388017   0.390429  -0.047917
    38  C    0.330047   5.065933   0.614541  -0.048448  -0.040170   0.398254
    39  C   -0.064684   0.614541   5.153629   0.001993   0.000785  -0.040750
    40  H    0.388017  -0.048448   0.001993   0.466426  -0.020973   0.005364
    41  H    0.390429  -0.040170   0.000785  -0.020973   0.448252  -0.001746
    42  H   -0.047917   0.398254  -0.040750   0.005364  -0.001746   0.459733
    43  H    0.006310  -0.038442   0.392476   0.000138  -0.000313  -0.007780
    44  H   -0.009062  -0.039529   0.386689   0.004863   0.000180   0.005953
              43         44
     1  C   -0.000001  -0.000004
     2  C    0.000017  -0.000047
     3  C   -0.000354   0.000162
     4  C    0.000088  -0.000109
     5  C    0.000000  -0.000003
     6  H   -0.000003   0.000003
     7  H   -0.000001   0.000001
     8  H    0.000067  -0.000021
     9  H    0.000037   0.000298
    10  O    0.000000   0.000001
    11  O    0.000000   0.000000
    12  C    0.000000   0.000000
    13  C    0.000000   0.000000
    14  C    0.000000  -0.000013
    15  O    0.000012   0.000001
    16  Si   0.000005   0.000001
    17  C    0.000001   0.000000
    18  C    0.000000   0.000000
    19  C    0.000000   0.000000
    20  H    0.000000   0.000000
    21  H    0.000000   0.000000
    22  H    0.000000   0.000000
    23  H    0.000000   0.000000
    24  H   -0.000001   0.000000
    25  H    0.000000   0.000000
    26  H    0.000000   0.000000
    27  H   -0.000001   0.000001
    28  H    0.000000   0.000000
    29  H    0.000000   0.000001
    30  H    0.000000   0.000000
    31  H    0.000000  -0.000009
    32  H    0.000000   0.000000
    33  H    0.000000   0.000000
    34  H    0.000000   0.000000
    35  H    0.000000   0.000000
    36  H    0.000000   0.000000
    37  C    0.006310  -0.009062
    38  C   -0.038442  -0.039529
    39  C    0.392476   0.386689
    40  H    0.000138   0.004863
    41  H   -0.000313   0.000180
    42  H   -0.007780   0.005953
    43  H    0.454761  -0.034315
    44  H   -0.034315   0.466544
 Mulliken charges:
               1
     1  C   -0.014523
     2  C   -0.354037
     3  C    0.243108
     4  C   -0.698930
     5  C    0.506228
     6  H    0.241504
     7  H    0.297453
     8  H    0.297243
     9  H    0.292433
    10  O   -0.319291
    11  O   -0.381184
    12  C   -0.458675
    13  C   -0.675647
    14  C   -0.711052
    15  O   -0.626997
    16  Si   1.407700
    17  C   -1.081654
    18  C   -1.087373
    19  C   -1.039639
    20  H    0.242112
    21  H    0.244444
    22  H    0.256855
    23  H    0.239859
    24  H    0.240084
    25  H    0.232194
    26  H    0.239067
    27  H    0.241106
    28  H    0.255501
    29  H    0.254495
    30  H    0.247254
    31  H    0.240339
    32  H    0.242051
    33  H    0.242708
    34  H    0.242859
    35  H    0.233978
    36  H    0.227704
    37  C   -0.494975
    38  C   -0.186602
    39  C   -0.449568
    40  H    0.239735
    41  H    0.261791
    42  H    0.224633
    43  H    0.227298
    44  H    0.218413
 Sum of Mulliken charges =   0.00000
 Mulliken charges with hydrogens summed into heavy atoms:
               1
     1  C    0.226981
     2  C   -0.056584
     3  C    0.243108
     4  C   -0.109253
     5  C    0.506228
    10  O   -0.319291
    11  O   -0.381184
    12  C    0.026083
    13  C    0.028893
    14  C    0.031036
    15  O   -0.626997
    16  Si   1.407700
    17  C   -0.345980
    18  C   -0.343963
    19  C   -0.327502
    37  C    0.006550
    38  C    0.038032
    39  C   -0.003857
 Electronic spatial extent (au):  <R**2>=           5139.4093
 Charge=              0.0000 electrons
 Dipole moment (field-independent basis, Debye):
    X=             -1.0687    Y=              2.3754    Z=             -3.8002  Tot=              4.6072
 Quadrupole moment (field-independent basis, Debye-Ang):
   XX=           -112.1557   YY=           -116.1330   ZZ=           -131.8581
   XY=             -6.0152   XZ=              6.5862   YZ=              8.0478
 Traceless Quadrupole moment (field-independent basis, Debye-Ang):
   XX=              7.8932   YY=              3.9160   ZZ=            -11.8092
   XY=             -6.0152   XZ=              6.5862   YZ=              8.0478
 Octapole moment (field-independent basis, Debye-Ang**2):
  XXX=            -21.5558  YYY=              0.2202  ZZZ=            -34.5675  XYY=              1.3720
  XXY=              1.9571  XXZ=             -0.8969  XZZ=             -2.5045  YZZ=             14.9137
  YYZ=              8.8784  XYZ=             -2.2948
 Hexadecapole moment (field-independent basis, Debye-Ang**3):
 XXXX=          -3232.4977 YYYY=          -2336.5072 ZZZZ=          -1414.8434 XXXY=             12.4563
 XXXZ=             26.4472 YYYX=            -50.0802 YYYZ=             42.5290 ZZZX=              3.5041
 ZZZY=             40.3262 XXYY=           -911.8930 XXZZ=           -803.7381 YYZZ=           -631.3488
 XXYZ=             10.9659 YYXZ=             19.2712 ZZXY=             -7.0488
 N-N= 1.647527330502D+03 E-N=-5.790477014704D+03  KE= 1.060521741988D+03
 1\1\GINC-CPU-E-609\SP\RmPW1PW91\6-311G(d)\C14H26O3Si1\KE291\06-Feb-201
 9\0\\# mPW1PW91/6-311g(d) geom=checkpoint nmr=giao scrf=(solvent=chlor
 oform)\\P_ng_2ginp006\\0,1\C,0,-0.0867396911,0.0552284448,1.342254012\
 C,0,-1.028304049,0.9078969627,0.4732025628\C,0,-2.3721071488,1.1783766
 48,1.2349560572\C,0,-2.119983238,1.1066991474,2.7696640883\C,0,-0.7194
 413923,1.4697661651,3.1972841665\H,0,-0.6038035022,-0.8544841348,1.677
 9755074\H,0,-0.5437834416,1.8862137999,0.3886251706\H,0,-2.8361918015,
 1.7219276026,3.3109678605\H,0,-2.28151159,0.0722424578,3.0979899722\O,
 0,0.2682494296,0.834232852,2.5283849656\O,0,-0.4371823256,2.2375505898
 ,4.095119421\C,0,1.245841675,-0.3589077205,0.7140215317\C,0,2.13873545
 83,0.7973897983,0.251848103\C,0,-1.2144890151,0.3637872237,-0.94874641
 28\O,0,-2.8838063825,2.448178658,0.8356328219\Si,0,-2.5918915939,4.069
 4455229,1.1954943837\C,0,-3.0798503511,4.4893676446,2.9681087992\C,0,-
 0.7905225194,4.5646470726,0.9205735943\C,0,-3.6960879797,4.984915768,-
 0.0214969468\H,0,-0.4567460595,4.3515614403,-0.1005243931\H,0,-0.68805
 93246,5.6447002185,1.0812910551\H,0,-0.1055564393,4.0693328738,1.61614
 77205\H,0,-3.4179025495,4.7600551148,-1.0563764189\H,0,-4.7478577307,4
 .7106276728,0.1106997863\H,0,-3.6126983336,6.0683755283,0.1199852078\H
 ,0,-3.0402694339,5.5758067273,3.1113344005\H,0,-4.1004467018,4.1631014
 207,3.1955252954\H,0,-2.4011714506,4.0346962893,3.6964103486\H,0,-1.93
 58836741,0.9771043208,-1.4954257158\H,0,-0.2735138162,0.3945529322,-1.
 5030852173\H,0,-1.571790987,-0.670493744,-0.9578839804\H,0,1.030487572
 4,-1.0361975226,-0.1195029072\H,0,1.7816163228,-0.9549369473,1.4615866
 57\H,0,2.3589343475,1.4748262945,1.0810117979\H,0,3.0883535392,0.41150
 98425,-0.1304320094\H,0,1.6758957387,1.3835143459,-0.5482229895\C,0,-3
 .4778670942,0.1522311275,0.8709097497\C,0,-4.7452415043,0.3115760652,1
 .6641185142\C,0,-5.308189921,-0.6460798282,2.402681777\H,0,-3.08685596
 78,-0.8643500794,0.9977759752\H,0,-3.7069137897,0.2852203091,-0.192035
 4275\H,0,-5.2219402792,1.2883979314,1.600319616\H,0,-6.2353683482,-0.4
 7886878,2.9431260609\H,0,-4.8672206564,-1.6370180561,2.4880594385\\Ver
 sion=ES64L-G09RevD.01\State=1-A\HF=-1064.3837741\RMSD=9.077e-09\Dipole
 =-0.4059781,-1.0243197,-1.4392882\Quadrupole=-1.518913,8.1584256,-6.63
 95127,-3.112466,-8.3929166,-1.7819952\PG=C01 [X(C14H26O3Si1)]\\@


 "A LITTLE BIT GOES A LONG WAY"
 R.S. MULLIKEN AS QUOTED BY K. RUEDENBERG
 Job cpu time:       0 days  0 hours 22 minutes  7.7 seconds.
 File lengths (MBytes):  RWF=    233 Int=      0 D2E=      0 Chk=     19 Scr=      1
 Normal termination of Gaussian 09 at Wed Feb  6 11:20:50 2019.
