 Entering Gaussian System, Link 0=/usr/local/shared/gaussian/em64t/09-D01/g09/g09
 Initial command:
 /usr/local/shared/gaussian/em64t/09-D01/g09/l1.exe "/scratch/ke291/P_ng_2ginp007/Gau-10387.inp" -scrdir="/scratch/ke291/P_ng_2ginp007/"
 Entering Link 1 = /usr/local/shared/gaussian/em64t/09-D01/g09/l1.exe PID=     10390.
  
 Copyright (c) 1988,1990,1992,1993,1995,1998,2003,2009,2013,
            Gaussian, Inc.  All Rights Reserved.
  
 This is part of the Gaussian(R) 09 program.  It is based on
 the Gaussian(R) 03 system (copyright 2003, Gaussian, Inc.),
 the Gaussian(R) 98 system (copyright 1998, Gaussian, Inc.),
 the Gaussian(R) 94 system (copyright 1995, Gaussian, Inc.),
 the Gaussian 92(TM) system (copyright 1992, Gaussian, Inc.),
 the Gaussian 90(TM) system (copyright 1990, Gaussian, Inc.),
 the Gaussian 88(TM) system (copyright 1988, Gaussian, Inc.),
 the Gaussian 86(TM) system (copyright 1986, Carnegie Mellon
 University), and the Gaussian 82(TM) system (copyright 1983,
 Carnegie Mellon University). Gaussian is a federally registered
 trademark of Gaussian, Inc.
  
 This software contains proprietary and confidential information,
 including trade secrets, belonging to Gaussian, Inc.
  
 This software is provided under written license and may be
 used, copied, transmitted, or stored only in accord with that
 written license.
  
 The following legend is applicable only to US Government
 contracts under FAR:
  
                    RESTRICTED RIGHTS LEGEND
  
 Use, reproduction and disclosure by the US Government is
 subject to restrictions as set forth in subparagraphs (a)
 and (c) of the Commercial Computer Software - Restricted
 Rights clause in FAR 52.227-19.
  
 Gaussian, Inc.
 340 Quinnipiac St., Bldg. 40, Wallingford CT 06492
  
  
 ---------------------------------------------------------------
 Warning -- This program may not be used in any manner that
 competes with the business of Gaussian, Inc. or will provide
 assistance to any competitor of Gaussian, Inc.  The licensee
 of this program is prohibited from giving any competitor of
 Gaussian, Inc. access to this program.  By using this program,
 the user acknowledges that Gaussian, Inc. is engaged in the
 business of creating and licensing software in the field of
 computational chemistry and represents and warrants to the
 licensee that it is not a competitor of Gaussian, Inc. and that
 it will not use this program in any manner prohibited above.
 ---------------------------------------------------------------
  

 Cite this work as:
 Gaussian 09, Revision D.01,
 M. J. Frisch, G. W. Trucks, H. B. Schlegel, G. E. Scuseria, 
 M. A. Robb, J. R. Cheeseman, G. Scalmani, V. Barone, B. Mennucci, 
 G. A. Petersson, H. Nakatsuji, M. Caricato, X. Li, H. P. Hratchian, 
 A. F. Izmaylov, J. Bloino, G. Zheng, J. L. Sonnenberg, M. Hada, 
 M. Ehara, K. Toyota, R. Fukuda, J. Hasegawa, M. Ishida, T. Nakajima, 
 Y. Honda, O. Kitao, H. Nakai, T. Vreven, J. A. Montgomery, Jr., 
 J. E. Peralta, F. Ogliaro, M. Bearpark, J. J. Heyd, E. Brothers, 
 K. N. Kudin, V. N. Staroverov, T. Keith, R. Kobayashi, J. Normand, 
 K. Raghavachari, A. Rendell, J. C. Burant, S. S. Iyengar, J. Tomasi, 
 M. Cossi, N. Rega, J. M. Millam, M. Klene, J. E. Knox, J. B. Cross, 
 V. Bakken, C. Adamo, J. Jaramillo, R. Gomperts, R. E. Stratmann, 
 O. Yazyev, A. J. Austin, R. Cammi, C. Pomelli, J. W. Ochterski, 
 R. L. Martin, K. Morokuma, V. G. Zakrzewski, G. A. Voth, 
 P. Salvador, J. J. Dannenberg, S. Dapprich, A. D. Daniels, 
 O. Farkas, J. B. Foresman, J. V. Ortiz, J. Cioslowski, 
 and D. J. Fox, Gaussian, Inc., Wallingford CT, 2013.
 
 ******************************************
 Gaussian 09:  EM64L-G09RevD.01 24-Apr-2013
                 6-Feb-2019 
 ******************************************
 %nprocshared=2
 Will use up to    2 processors via shared memory.
 %mem=6000MB
 %chk=P_ng_2ginp007.chk
 ----------------------------------------------------------------------
 # mPW1PW91/6-311g(d) geom=checkpoint nmr=giao scrf=(solvent=chloroform
 )
 ----------------------------------------------------------------------
 1/29=2,38=1/1;
 2/12=2,40=1/2;
 3/5=4,6=6,7=1,11=2,14=-4,16=1,25=1,30=1,70=2201,72=7,74=-7/1,2,8,3;
 4//1;
 5/5=2,38=5,53=7/2;
 8/6=1,10=90,11=11/1;
 10/13=100,45=16/2;
 6/7=2,8=2,9=2,10=2,28=1/1;
 99/9=1/99;
 -------------
 P_ng_2ginp007
 -------------
 Structure from the checkpoint file:  "P_ng_2ginp007.chk"
 Charge =  0 Multiplicity = 1
 Redundant internal coordinates found in file.
 C,0,-0.2610198379,-0.0848231626,1.2925421509
 C,0,-0.7926227514,1.190842595,0.6258742513
 C,0,-1.9010861,1.8425642184,1.5025002324
 C,0,-1.2098273098,2.2181073184,2.8254389398
 C,0,-0.4229570308,1.0988463383,3.481609639
 H,0,-1.0333324694,-0.8636641413,1.24633561
 H,0,0.0232394881,1.9271288336,0.6145999276
 H,0,-0.4996176121,3.0300635464,2.6288636284
 H,0,-1.9153997935,2.5861263474,3.5729661896
 O,0,0.0298551626,0.0851816758,2.7175939018
 O,0,-0.15289855,1.1023403469,4.6649945719
 C,0,1.0281775998,-0.6278200287,0.6719591716
 C,0,1.5281670555,-1.9208687731,1.3234915476
 C,0,-1.1925347587,0.9354715155,-0.8355627182
 O,0,-2.3123797591,3.0199851703,0.815558948
 Si,0,-3.3125827834,4.3434795123,1.1048727415
 C,0,-2.7899561993,5.5812285525,-0.2117695089
 C,0,-5.1334440633,3.9040578454,0.8743613084
 C,0,-3.0737284151,5.0920485291,2.8213869356
 H,0,-5.3228536717,3.4798872286,-0.1172235783
 H,0,-5.4946733867,3.189328662,1.6206076524
 H,0,-5.7431893642,4.8107105006,0.967047784
 H,0,-3.4400152796,4.4407150501,3.6213749431
 H,0,-2.0238239734,5.3244440228,3.0257271158
 H,0,-3.637850831,6.0303711954,2.8831791329
 H,0,-1.7424638482,5.8744734813,-0.0866324893
 H,0,-2.9025397439,5.1612732082,-1.2167268777
 H,0,-3.4018144453,6.488610494,-0.1576456253
 H,0,-0.3065978693,0.7794859835,-1.4564296047
 H,0,-1.8407425641,0.0621956979,-0.9386159521
 H,0,-1.7239273783,1.8049388571,-1.2262966587
 H,0,1.7984142394,0.1512843921,0.7354018583
 H,0,0.8438709359,-0.8058584536,-0.3921864517
 H,0,2.4429328667,-2.2682584832,0.8339511728
 H,0,1.7441573308,-1.7714585592,2.383924589
 H,0,0.7817451401,-2.7188838689,1.2404646532
 C,0,-3.1190568261,0.9326019833,1.8227719795
 C,0,-3.9413366045,0.4403904838,0.6630559931
 C,0,-4.3744654202,-0.8139596891,0.5236724355
 H,0,-3.7675588906,1.5244652626,2.4847062549
 H,0,-2.7891903317,0.0776898556,2.4243935083
 H,0,-4.2204970276,1.185872589,-0.0782347361
 H,0,-4.9998723996,-1.1105072714,-0.3132144456
 H,0,-4.1247485292,-1.5899128623,1.2440938782
 Recover connectivity data from disk.
                          Input orientation:                          
 ---------------------------------------------------------------------
 Center     Atomic      Atomic             Coordinates (Angstroms)
 Number     Number       Type             X           Y           Z
 ---------------------------------------------------------------------
      1          6           0       -0.261020   -0.084823    1.292542
      2          6           0       -0.792623    1.190843    0.625874
      3          6           0       -1.901086    1.842564    1.502500
      4          6           0       -1.209827    2.218107    2.825439
      5          6           0       -0.422957    1.098846    3.481610
      6          1           0       -1.033332   -0.863664    1.246336
      7          1           0        0.023239    1.927129    0.614600
      8          1           0       -0.499618    3.030064    2.628864
      9          1           0       -1.915400    2.586126    3.572966
     10          8           0        0.029855    0.085182    2.717594
     11          8           0       -0.152899    1.102340    4.664995
     12          6           0        1.028178   -0.627820    0.671959
     13          6           0        1.528167   -1.920869    1.323492
     14          6           0       -1.192535    0.935472   -0.835563
     15          8           0       -2.312380    3.019985    0.815559
     16         14           0       -3.312583    4.343480    1.104873
     17          6           0       -2.789956    5.581229   -0.211770
     18          6           0       -5.133444    3.904058    0.874361
     19          6           0       -3.073728    5.092049    2.821387
     20          1           0       -5.322854    3.479887   -0.117224
     21          1           0       -5.494673    3.189329    1.620608
     22          1           0       -5.743189    4.810711    0.967048
     23          1           0       -3.440015    4.440715    3.621375
     24          1           0       -2.023824    5.324444    3.025727
     25          1           0       -3.637851    6.030371    2.883179
     26          1           0       -1.742464    5.874473   -0.086632
     27          1           0       -2.902540    5.161273   -1.216727
     28          1           0       -3.401814    6.488610   -0.157646
     29          1           0       -0.306598    0.779486   -1.456430
     30          1           0       -1.840743    0.062196   -0.938616
     31          1           0       -1.723927    1.804939   -1.226297
     32          1           0        1.798414    0.151284    0.735402
     33          1           0        0.843871   -0.805858   -0.392186
     34          1           0        2.442933   -2.268258    0.833951
     35          1           0        1.744157   -1.771459    2.383925
     36          1           0        0.781745   -2.718884    1.240465
     37          6           0       -3.119057    0.932602    1.822772
     38          6           0       -3.941337    0.440390    0.663056
     39          6           0       -4.374465   -0.813960    0.523672
     40          1           0       -3.767559    1.524465    2.484706
     41          1           0       -2.789190    0.077690    2.424394
     42          1           0       -4.220497    1.185873   -0.078235
     43          1           0       -4.999872   -1.110507   -0.313214
     44          1           0       -4.124749   -1.589913    1.244094
 ---------------------------------------------------------------------
                    Distance matrix (angstroms):
                    1          2          3          4          5
     1  C    0.000000
     2  C    1.534396   0.000000
     3  C    2.539433   1.556247   0.000000
     4  C    2.924636   2.463213   1.539168   0.000000
     5  C    2.493855   2.881031   2.579701   1.517389   0.000000
     6  H    1.097814   2.159609   2.853470   3.467280   3.036520
     7  H    2.142046   1.099034   2.120978   2.548123   3.017431
     8  H    3.397823   2.735060   2.154754   1.096500   2.112499
     9  H    3.882174   3.448593   2.199982   1.091818   2.108965
    10  O    1.464337   2.504845   2.879823   2.469375   1.347692
    11  O    3.576938   4.090425   3.688558   2.397081   1.213814
    12  C    1.530359   2.573902   3.920865   4.212534   3.602958
    13  C    2.563827   3.944044   5.094629   5.184938   4.193213
    14  C    2.537233   1.536536   2.606032   3.879225   4.388271
    15  O    3.751723   2.385666   1.423858   2.428631   3.790583
    16  Si   5.381182   4.064327   2.899139   3.449512   4.952420
    17  C    6.384561   4.895557   4.207900   4.799169   6.271801
    18  C    6.310829   5.125038   3.884901   4.695093   6.070885
    19  C    6.086764   5.024254   3.697797   3.425446   4.838197
    20  H    6.349548   5.129806   4.124661   5.212325   6.529161
    21  H    6.182138   5.205067   3.839478   4.555743   5.792733
    22  H    7.357063   6.142308   4.884502   5.543156   6.957430
    23  H    6.000831   5.152027   3.688946   3.247651   4.504471
    24  H    5.947401   4.935769   3.802469   3.217458   4.541616
    25  H    7.164406   6.050767   4.739236   4.520176   5.917229
    26  H    6.293649   4.831797   4.336680   4.704559   6.105740
    27  H    6.387142   4.859141   4.405784   5.278883   6.687751
    28  H    7.428167   5.957191   5.156939   5.651619   7.153134
    29  H    2.882005   2.177481   3.525308   4.606501   4.949723
    30  H    2.737737   2.195456   3.021986   4.383391   4.756380
    31  H    3.472153   2.162170   2.734800   4.105066   4.935126
    32  H    2.146490   2.793949   4.139465   4.205892   3.657051
    33  H    2.139857   2.775135   4.258963   4.869821   4.498783
    34  H    3.505575   4.741044   6.018000   6.118510   5.153719
    35  H    2.838413   4.277993   5.208250   4.983733   3.760312
    36  H    2.833434   4.259380   5.298401   5.554492   4.587930
    37  C    3.079720   2.628982   1.553724   2.510582   3.169911
    38  C    3.770522   3.237122   2.614073   3.911179   4.555964
    39  C    4.247733   4.106005   3.759365   4.950403   5.293641
    40  H    4.038178   3.523749   2.132988   2.671934   3.515868
    41  H    2.774733   2.908619   2.180229   2.690095   2.785593
    42  H    4.378488   3.499445   2.882644   4.308243   5.205898
    43  H    5.107564   4.886619   4.649723   5.940982   6.342719
    44  H    4.146811   4.383818   4.097969   5.049598   5.093050
                    6          7          8          9         10
     6  H    0.000000
     7  H    3.050239   0.000000
     8  H    4.166215   2.355229   0.000000
     9  H    4.253505   3.597851   1.758650   0.000000
    10  O    2.048238   2.795603   2.993417   3.281829   0.000000
    11  O    4.040738   4.137269   2.825272   2.549619   2.204627
    12  C    2.152987   2.746080   4.420831   5.235450   2.385297
    13  C    2.772168   4.192186   5.507053   6.101745   2.865781
    14  C    2.756181   2.136460   4.107274   4.762596   3.852551
    15  O    4.111479   2.586472   2.564036   2.819419   4.209142
    16  Si   5.685889   4.148111   3.458379   3.336450   5.648527
    17  C    6.837283   4.685019   4.452335   4.905070   6.836595
    18  C    6.299242   5.528753   5.031351   4.401729   6.681391
    19  C    6.489570   4.947508   3.303770   2.861161   5.891665
    20  H    6.255056   5.614921   5.568388   5.101671   6.943465
    21  H    6.039072   5.749136   5.098287   4.121499   6.431137
    22  H    7.379653   6.456854   5.781642   5.137271   7.663098
    23  H    6.290419   5.230004   3.408952   2.401311   5.641586
    24  H    6.514598   4.641740   2.782964   2.794568   5.635815
    25  H    7.549205   5.948666   4.349141   3.912220   6.987472
    26  H    6.905228   4.380749   4.124228   4.922987   6.672383
    27  H    6.772037   4.730077   5.010455   5.526933   7.060066
    28  H    7.850912   5.756255   5.305556   5.599667   7.813275
    29  H    3.245462   2.390615   4.668188   5.580951   4.244730
    30  H    2.506619   3.060210   4.830504   5.170123   4.107010
    31  H    3.703009   2.540949   4.226361   4.866194   4.646245
    32  H    3.051223   2.513854   4.141680   5.269975   2.657302
    33  H    2.492386   3.025934   5.064188   5.902675   3.335762
    34  H    3.771918   4.848124   6.320801   7.075473   3.861313
    35  H    3.135705   4.446529   5.305576   5.813323   2.548976
    36  H    2.595454   4.748944   6.051441   6.392049   3.257305
    37  C    2.812312   3.510383   3.451172   2.691860   3.381490
    38  C    3.239948   4.234454   4.734579   4.144415   4.485272
    39  C    3.418754   5.182822   5.850025   5.187078   5.001978
    40  H    3.835716   4.246126   3.600979   2.396232   4.067693
    41  H    2.314520   3.821719   3.741719   2.893956   2.834262
    42  H    4.014113   4.363345   4.957254   4.539323   5.205158
    43  H    4.269258   5.943040   6.786195   6.187202   5.992798
    44  H    3.175578   5.474637   6.033518   5.267274   4.715705
                   11         12         13         14         15
    11  O    0.000000
    12  C    4.509183   0.000000
    13  C    4.809513   1.531816   0.000000
    14  C    5.600430   3.106134   4.496934   0.000000
    15  O    4.812367   4.948376   6.278522   2.885386   0.000000
    16  Si   5.758737   6.613882   7.919767   4.458073   1.683967
    17  C    7.127225   7.342439   8.791171   4.952164   2.800616
    18  C    6.857431   7.651435   8.860505   5.221792   2.956932
    19  C    5.277112   7.359522   8.520689   5.847162   2.982691
    20  H    7.433087   7.604713   8.841963   4.904039   3.185050
    21  H    6.492948   7.616964   8.690379   5.442522   3.286909
    22  H    7.660168   8.690000   9.915333   6.243023   3.872996
    23  H    4.799898   7.372506   8.392428   6.099360   3.341054
    24  H    4.900379   7.091148   8.246745   5.904547   3.206032
    25  H    6.293270   8.425724   9.609505   6.765103   3.885145
    26  H    6.919388   7.108568   8.570463   5.025640   3.047435
    27  H    7.657030   7.247846   8.731587   4.574582   3.010580
    28  H    7.926236   8.423577   9.859910   6.014802   3.763689
    29  H    6.131859   2.879614   4.287918   1.093019   3.768943
    30  H    5.944003   3.361663   4.516550   1.092430   3.471036
    31  H    6.137515   4.134703   5.564097   1.091341   2.447813
    32  H    4.489301   1.097403   2.170876   3.468235   5.013432
    33  H    5.496349   1.094565   2.157559   2.715835   5.104669
    34  H    5.725048   2.172283   1.094132   5.125211   7.111881
    35  H    4.130475   2.179762   1.092471   5.129983   6.470950
    36  H    5.215623   2.180935   1.095841   4.643488   6.533664
    37  C    4.111585   4.578083   5.476154   3.283023   2.454053
    38  C    5.550311   5.083033   5.993929   3.169681   3.054679
    39  C    6.216461   5.407882   6.058550   3.877204   4.363087
    40  H    4.242360   5.560348   6.423664   4.242859   2.672111
    41  H    3.608356   4.259233   4.883216   3.729935   3.387152
    42  H    6.249045   5.603647   6.683099   3.131262   2.793519
    43  H    7.291942   6.127066   6.778701   4.353699   5.055464
    44  H    5.892909   5.273102   5.663152   4.393224   4.971869
                   16         17         18         19         20
    16  Si   0.000000
    17  C    1.881145   0.000000
    18  C    1.887263   3.079694   0.000000
    19  C    1.887810   3.085427   3.073216   0.000000
    20  H    2.506093   3.292437   1.095006   4.036466   0.000000
    21  H    2.521818   4.048986   1.094627   3.305025   1.770312
    22  H    2.478941   3.271833   1.096540   3.262476   1.767319
    23  H    2.521602   4.051709   3.271358   1.094706   4.294810
    24  H    2.512543   3.336807   4.039258   1.094560   4.915702
    25  H    2.472605   3.240272   3.285324   1.096586   4.283295
    26  H    2.495777   1.094939   4.037919   3.292572   4.307455
    27  H    2.495345   1.094978   3.306081   4.042334   3.145455
    28  H    2.490683   1.095738   3.277727   3.306457   3.569936
    29  H    5.319611   5.547340   6.204352   6.674947   5.852219
    30  H    4.967046   5.647038   5.374819   6.399789   4.947767
    31  H    3.795045   4.052906   4.521490   5.386167   4.121622
    32  H    6.620672   7.171790   7.883735   7.245706   7.906897
    33  H    6.784761   7.350655   7.714645   7.775599   7.514766
    34  H    8.770088   9.491633   9.772441   9.410503   9.708417
    35  H    8.037354   9.019857   9.043875   8.397090   9.152869
    36  H    8.164489   9.151934   8.887455   8.852946   8.805351
    37  C    3.490977   5.085017   3.713057   4.277883   3.887025
    38  C    3.978019   5.340338   3.669164   5.200871   3.428697
    39  C    5.297600   6.629478   4.791526   6.469339   4.443794
    40  H    3.171401   4.968301   3.181401   3.649987   3.607306
    41  H    4.495780   6.102319   4.747549   5.038091   4.945120
    42  H    3.492067   4.624222   3.021497   4.998109   2.545430
    43  H    5.882507   7.047932   5.155002   7.211619   4.605915
    44  H    5.990337   7.438177   5.598025   6.945582   5.384377
                   21         22         23         24         25
    21  H    0.000000
    22  H    1.765724   0.000000
    23  H    3.129003   3.533689   0.000000
    24  H    4.310438   4.282028   1.772391   0.000000
    25  H    3.621243   3.097028   1.763825   1.767409   0.000000
    26  H    4.919730   4.271725   4.322807   3.173087   3.526553
    27  H    4.319513   3.600147   4.920906   4.335572   4.255026
    28  H    4.292727   3.092300   4.298410   3.658962   3.084204
    29  H    6.495508   7.188918   7.000500   6.610237   7.582958
    30  H    5.447917   6.434985   6.520937   6.590963   7.311281
    31  H    4.923406   5.477216   5.778598   5.527799   6.197191
    32  H    7.949996   8.867903   7.359973   6.827641   8.290331
    33  H    7.758222   8.762575   7.873175   7.581980   8.806128
    34  H    9.664868  10.823221   9.348216   9.077716  10.490115
    35  H    8.808674  10.069402   8.185232   8.059865   9.491249
    36  H    8.628147   9.967162   8.645915   8.703649   9.938853
    37  C    3.282871   4.760048   3.955356   4.683472   5.232672
    38  C    3.299458   4.736959   5.000557   5.754394   6.022370
    39  C    4.299355   5.805765   6.170945   7.033192   7.277001
    40  H    2.549777   4.123810   3.147032   4.215822   4.525350
    41  H    4.200953   5.766407   4.570812   5.336274   6.030350
    42  H    2.919491   4.068250   4.989014   5.620296   5.707768
    43  H    4.740579   6.103475   6.980703   7.836708   7.941296
    44  H    4.985941   6.607881   6.518343   7.442878   7.809763
                   26         27         28         29         30
    26  H    0.000000
    27  H    1.769617   0.000000
    28  H    1.770777   1.769958   0.000000
    29  H    5.467811   5.098670   6.622787   0.000000
    30  H    5.875211   5.215875   6.659254   1.770942   0.000000
    31  H    4.226144   3.557274   5.088625   1.764465   1.770186
    32  H    6.780004   7.142112   8.246309   3.103198   4.006711
    33  H    7.170030   7.093809   8.443348   2.229240   2.873892
    34  H    9.201582   9.379621  10.574833   4.700480   5.188727
    35  H    8.759021   9.089513  10.058297   5.045913   5.220447
    36  H    9.054204   9.039282  10.209546   4.549321   4.400027
    37  C    5.473840   5.212206   5.905187   4.322792   3.164958
    38  C    5.909850   5.186465   6.127446   4.221200   2.668498
    39  C    7.213532   6.395230   7.398498   4.796605   3.053799
    40  H    5.443837   5.260726   5.635471   5.297716   4.191657
    41  H    6.403404   6.254073   6.938454   4.660104   3.494228
    42  H    5.303178   4.340160   5.366151   4.169314   2.768779
    43  H    7.710513   6.674606   7.766890   5.187084   3.427311
    44  H    7.947526   7.288892   8.231042   5.242628   3.565160
                   31         32         33         34         35
    31  H    0.000000
    32  H    4.357720   0.000000
    33  H    3.755741   1.760321   0.000000
    34  H    6.180476   2.505854   2.489784   0.000000
    35  H    6.152392   2.533281   3.074035   1.771303   0.000000
    36  H    5.729597   3.086514   2.515765   1.768576   1.769563
    37  C    3.464705   5.096504   4.861387   6.492997   5.592646
    38  C    3.216916   5.747483   5.056173   6.937210   6.338652
    39  C    4.116597   6.251477   5.298103   6.977691   6.466443
    40  H    4.245779   5.993809   5.913730   7.461900   6.422794
    41  H    4.176807   4.889195   4.681123   5.950470   4.896144
    42  H    2.816762   6.161142   5.450998   7.560714   7.098249
    43  H    4.479438   6.993455   5.852212   7.619168   7.293377
    44  H    4.836506   6.194707   5.289550   6.615346   5.981323
                   36         37         38         39         40
    36  H    0.000000
    37  C    5.374820   0.000000
    38  C    5.711560   1.504446   0.000000
    39  C    5.543378   2.512805   1.334325   0.000000
    40  H    6.344314   1.099552   2.126929   3.111627   0.000000
    41  H    4.687653   1.096191   2.135721   2.630756   1.747570
    42  H    6.481398   2.211593   1.087744   2.094117   2.624588
    43  H    6.199024   3.503456   2.116338   1.086027   4.036092
    44  H    5.034706   2.776574   2.119759   1.087874   3.371358
                   41         42         43         44
    41  H    0.000000
    42  H    3.088666   0.000000
    43  H    3.713950   2.436391   0.000000
    44  H    2.440844   3.076151   1.849562   0.000000
 Stoichiometry    C14H26O3Si
 Framework group  C1[X(C14H26O3Si)]
 Deg. of freedom   126
 Full point group                 C1      NOp   1
 Largest Abelian subgroup         C1      NOp   1
 Largest concise Abelian subgroup C1      NOp   1
                         Standard orientation:                         
 ---------------------------------------------------------------------
 Center     Atomic      Atomic             Coordinates (Angstroms)
 Number     Number       Type             X           Y           Z
 ---------------------------------------------------------------------
      1          6           0        2.402149    0.200303    0.328888
      2          6           0        1.012579    0.323200    0.967920
      3          6           0       -0.093758   -0.069507   -0.053699
      4          6           0        0.171602   -1.545957   -0.398252
      5          6           0        1.595865   -1.864768   -0.813347
      6          1           0        2.527848    0.997633   -0.415196
      7          1           0        0.941282   -0.433930    1.761359
      8          1           0       -0.042369   -2.154273    0.488586
      9          1           0       -0.477306   -1.909090   -1.197702
     10          8           0        2.590556   -1.049639   -0.410321
     11          8           0        1.877328   -2.849995   -1.464078
     12          6           0        3.560740    0.266301    1.326540
     13          6           0        4.942834    0.178489    0.671892
     14          6           0        0.819776    1.695168    1.632356
     15          8           0       -1.334370    0.055692    0.633745
     16         14           0       -2.956014   -0.296547    0.347487
     17          6           0       -3.729048   -0.215017    2.060519
     18          6           0       -3.761220    0.991043   -0.773013
     19          6           0       -3.222128   -2.011012   -0.396572
     20          1           0       -3.645712    2.003087   -0.371190
     21          1           0       -3.352958    0.983692   -1.788629
     22          1           0       -4.835965    0.787778   -0.850500
     23          1           0       -2.861111   -2.085222   -1.427369
     24          1           0       -2.734408   -2.794463    0.191982
     25          1           0       -4.296449   -2.230286   -0.412558
     26          1           0       -3.298132   -0.970055    2.726193
     27          1           0       -3.570684    0.766236    2.519909
     28          1           0       -4.809491   -0.389923    2.008633
     29          1           0        1.427304    1.774324    2.537527
     30          1           0        1.090181    2.517284    0.965715
     31          1           0       -0.225478    1.817630    1.921269
     32          1           0        3.435261   -0.542483    2.057577
     33          1           0        3.480227    1.208120    1.878416
     34          1           0        5.730488    0.242171    1.428644
     35          1           0        5.064886   -0.762549    0.130558
     36          1           0        5.095837    0.998637   -0.038612
     37          6           0       -0.104822    0.751106   -1.372990
     38          6           0       -0.343957    2.232607   -1.266568
     39          6           0        0.352975    3.158831   -1.927490
     40          1           0       -0.901548    0.312006   -1.990593
     41          1           0        0.825466    0.570855   -1.924089
     42          1           0       -1.171406    2.540965   -0.631407
     43          1           0        0.114876    4.215379   -1.847062
     44          1           0        1.183929    2.894954   -2.578145
 ---------------------------------------------------------------------
 Rotational constants (GHZ):      0.5431254      0.2448569      0.2187908
 Standard basis: 6-311G(d) (5D, 7F)
 There are   428 symmetry adapted cartesian basis functions of A   symmetry.
 There are   410 symmetry adapted basis functions of A   symmetry.
   410 basis functions,   720 primitive gaussians,   428 cartesian basis functions
    74 alpha electrons       74 beta electrons
       nuclear repulsion energy      1616.3285959497 Hartrees.
 NAtoms=   44 NActive=   44 NUniq=   44 SFac= 1.00D+00 NAtFMM=   60 NAOKFM=F Big=F
 Integral buffers will be    131072 words long.
 Raffenetti 2 integral format.
 Two-electron integral symmetry is turned on.
 ------------------------------------------------------------------------------
 Polarizable Continuum Model (PCM)
 =================================
 Model                : PCM (using non-symmetric T matrix).
 Atomic radii         : UFF (Universal Force Field).
 Polarization charges : Total charges.
 Charge compensation  : None.
 Solution method      : On-the-fly selection.
 Cavity type          : Scaled VdW (van der Waals Surface) (Alpha=1.100).
 Cavity algorithm     : GePol (No added spheres)
                        Default sphere list used, NSphG=   44.
                        Lebedev-Laikov grids with approx.  5.0 points / Ang**2.
                        Smoothing algorithm: Karplus/York (Gamma=1.0000).
                        Polarization charges: spherical gaussians, with
                                              point-specific exponents (IZeta= 3).
                        Self-potential: point-specific (ISelfS= 7).
                        Self-field    : sphere-specific E.n sum rule (ISelfD= 2).
 Solvent              : Chloroform, Eps=   4.711300 Eps(inf)=   2.090627
 ------------------------------------------------------------------------------
 One-electron integrals computed using PRISM.
 NBasis=   410 RedAO= T EigKep=  1.07D-03  NBF=   410
 NBsUse=   410 1.00D-06 EigRej= -1.00D+00 NBFU=   410
 ExpMin= 6.54D-02 ExpMax= 6.94D+04 ExpMxC= 2.33D+03 IAcc=2 IRadAn=         4 AccDes= 0.00D+00
 Harris functional with IExCor=  908 and IRadAn=       4 diagonalized for initial guess.
 HarFok:  IExCor=  908 AccDes= 0.00D+00 IRadAn=         4 IDoV= 1 UseB2=F ITyADJ=14
 ICtDFT=  3500011 ScaDFX=  1.000000  1.000000  1.000000  1.000000
 FoFCou: FMM=F IPFlag=           0 FMFlag=      100000 FMFlg1=           0
         NFxFlg=           0 DoJE=T BraDBF=F KetDBF=T FulRan=T
         wScrn=  0.000000 ICntrl=     500 IOpCl=  0 I1Cent=   200000004 NGrid=           0
         NMat0=    1 NMatS0=      1 NMatT0=    0 NMatD0=    1 NMtDS0=    0 NMtDT0=    0
 Petite list used in FoFCou.
 Requested convergence on RMS density matrix=1.00D-08 within 128 cycles.
 Requested convergence on MAX density matrix=1.00D-06.
 Requested convergence on             energy=1.00D-06.
 No special actions if energy rises.
 Inv3:  Mode=1 IEnd=    24779628.
 Iteration    1 A*A^-1 deviation from unit magnitude is 7.77D-15 for    509.
 Iteration    1 A*A^-1 deviation from orthogonality  is 7.55D-15 for   2078    546.
 Iteration    1 A^-1*A deviation from unit magnitude is 9.10D-15 for   2342.
 Iteration    1 A^-1*A deviation from orthogonality  is 1.81D-09 for   2051   2006.
 Iteration    2 A*A^-1 deviation from unit magnitude is 1.20D-14 for    120.
 Iteration    2 A*A^-1 deviation from orthogonality  is 1.07D-14 for   2374    439.
 Iteration    2 A^-1*A deviation from unit magnitude is 1.78D-15 for    517.
 Iteration    2 A^-1*A deviation from orthogonality  is 9.99D-16 for   2067    210.
 Error on total polarization charges =  0.01139
 SCF Done:  E(RmPW1PW91) =  -1064.38243720     A.U. after   13 cycles
            NFock= 13  Conv=0.34D-08     -V/T= 2.0036
 DoSCS=F DFT=T ScalE2(SS,OS)=  1.000000  1.000000
 Range of M.O.s used for correlation:     1   410
 NBasis=   410 NAE=    74 NBE=    74 NFC=     0 NFV=     0
 NROrb=    410 NOA=    74 NOB=    74 NVA=   336 NVB=   336
 NEqPCM:  Using equilibrium solvation (IEInf=0, Eps=   4.7113, EpsInf=   2.0906)
          Differentiating once with respect to magnetic field using GIAOs.
          Electric field/nuclear overlap derivatives assumed to be zero.
 FoFJK:  IHMeth= 1 ICntrl=    6127 DoSepK=F KAlg= 0 I1Cent=   0 FoldK=F
 IRaf=         1 NMat=   1 IRICut=       1 DoRegI=T DoRafI=F ISym2E= 0.
          There are     3 degrees of freedom in the 1st order CPHF.  IDoFFX=0 NUNeed=     3.
      3 vectors produced by pass  0 Test12= 8.29D-13 3.33D-08 XBig12= 3.67D+01 9.61D-01.
 AX will form     3 AO Fock derivatives at one time.
      3 vectors produced by pass  1 Test12= 8.29D-13 3.33D-08 XBig12= 7.57D-02 9.98D-02.
      3 vectors produced by pass  2 Test12= 8.29D-13 3.33D-08 XBig12= 8.06D-04 1.19D-02.
      3 vectors produced by pass  3 Test12= 8.29D-13 3.33D-08 XBig12= 4.20D-06 5.44D-04.
      3 vectors produced by pass  4 Test12= 8.29D-13 3.33D-08 XBig12= 1.98D-08 4.42D-05.
      3 vectors produced by pass  5 Test12= 8.29D-13 3.33D-08 XBig12= 7.20D-11 1.69D-06.
      2 vectors produced by pass  6 Test12= 8.29D-13 3.33D-08 XBig12= 2.03D-13 9.41D-08.
 InvSVY:  IOpt=1 It=  1 EMax= 9.35D-17
 Solved reduced A of dimension    20 with     3 vectors.
 Calculating GIAO nuclear magnetic shielding tensors.
 SCF GIAO Magnetic shielding tensor (ppm):
      1  C    Isotropic =   101.1329   Anisotropy =    51.9672
   XX=    94.6182   YX=   -13.8754   ZX=    -3.6230
   XY=     0.7891   YY=   122.0451   ZY=    24.6435
   XZ=     1.7561   YZ=    24.9473   ZZ=    86.7353
   Eigenvalues:    73.7195    93.9015   135.7777
      2  C    Isotropic =   138.0570   Anisotropy =    24.3942
   XX=   149.2970   YX=     4.1172   ZX=     9.9394
   XY=     4.7920   YY=   130.1192   ZY=    -1.1530
   XZ=     9.6220   YZ=    -9.7082   ZZ=   134.7548
   Eigenvalues:   123.0873   136.7640   154.3198
      3  C    Isotropic =   108.1607   Anisotropy =    55.3991
   XX=   136.1162   YX=    -1.6664   ZX=   -21.8227
   XY=     3.2900   YY=    86.2125   ZY=     0.9387
   XZ=   -17.4380   YZ=     0.7424   ZZ=   102.1535
   Eigenvalues:    86.0398    93.3489   145.0935
      4  C    Isotropic =   136.5381   Anisotropy =    34.2678
   XX=   136.0142   YX=   -15.3640   ZX=    -3.6231
   XY=    -9.1366   YY=   148.9056   ZY=     3.9188
   XZ=    -7.5352   YZ=    13.4952   ZZ=   124.6944
   Eigenvalues:   121.6039   128.6271   159.3833
      5  C    Isotropic =    13.6328   Anisotropy =    87.4279
   XX=   -58.2291   YX=   -38.7064   ZX=    -7.7955
   XY=   -49.9178   YY=    35.8499   ZY=   -16.6835
   XZ=   -14.6156   YZ=   -16.3275   ZZ=    63.2775
   Eigenvalues:   -77.7581    46.7384    71.9180
      6  H    Isotropic =    28.0175   Anisotropy =     2.6209
   XX=    29.3360   YX=    -0.3517   ZX=     0.9276
   XY=    -0.0699   YY=    28.2892   ZY=    -1.6309
   XZ=     0.5368   YZ=    -1.0335   ZZ=    26.4273
   Eigenvalues:    25.6485    28.6392    29.7648
      7  H    Isotropic =    30.2194   Anisotropy =     3.5474
   XX=    29.7706   YX=     0.3108   ZX=     1.6241
   XY=     0.8880   YY=    30.2606   ZY=    -1.6878
   XZ=     1.4265   YZ=    -2.1133   ZZ=    30.6270
   Eigenvalues:    27.5244    30.5495    32.5843
      8  H    Isotropic =    29.6933   Anisotropy =     4.2908
   XX=    30.3296   YX=     0.2291   ZX=    -0.4897
   XY=     0.7035   YY=    31.8033   ZY=    -2.0818
   XZ=    -1.3502   YZ=    -1.2269   ZZ=    26.9471
   Eigenvalues:    26.2977    30.2284    32.5539
      9  H    Isotropic =    29.5311   Anisotropy =     4.0817
   XX=    31.9342   YX=     0.5373   ZX=     0.6370
   XY=    -0.5024   YY=    29.7119   ZY=     3.4827
   XZ=     0.3773   YZ=     3.2198   ZZ=    26.9474
   Eigenvalues:    24.6811    31.6601    32.2523
     10  O    Isotropic =    99.0015   Anisotropy =   188.7153
   XX=   152.7087   YX=    67.3155   ZX=    50.7380
   XY=    77.0423   YY=    23.3255   ZY=  -134.4746
   XZ=    58.1663   YZ=  -154.6029   ZZ=   120.9704
   Eigenvalues:  -111.3556   183.5485   224.8117
     11  O    Isotropic =  -102.1185   Anisotropy =   558.0365
   XX=  -214.0685   YX=   -89.2437   ZX=     3.5858
   XY=   -78.5247   YY=  -178.0344   ZY=  -270.6236
   XZ=    24.0811   YZ=  -289.0032   ZZ=    85.7476
   Eigenvalues:  -380.4166  -195.8446   269.9059
     12  C    Isotropic =   156.6341   Anisotropy =    23.8110
   XX=   164.8320   YX=     2.5842   ZX=    11.0719
   XY=    -0.5514   YY=   145.7619   ZY=    -2.7152
   XZ=     9.0584   YZ=    -0.4143   ZZ=   159.3082
   Eigenvalues:   145.2213   152.1728   172.5081
     13  C    Isotropic =   175.7316   Anisotropy =    21.3365
   XX=   187.8835   YX=     0.7936   ZX=    -4.1707
   XY=    -0.9864   YY=   165.5251   ZY=    -5.7086
   XZ=    -7.0291   YZ=    -4.8861   ZZ=   173.7862
   Eigenvalues:   162.6618   174.5771   189.9560
     14  C    Isotropic =   175.5752   Anisotropy =    14.1335
   XX=   169.8756   YX=    -0.5082   ZX=     3.0725
   XY=    -3.8414   YY=   184.3216   ZY=     2.4271
   XZ=     1.7185   YZ=     2.4528   ZZ=   172.5285
   Eigenvalues:   167.8691   173.8590   184.9976
     15  O    Isotropic =   244.2522   Anisotropy =    29.8570
   XX=   232.4156   YX=     3.2600   ZX=    -0.5562
   XY=    21.3489   YY=   238.2244   ZY=    -8.5055
   XZ=     1.9152   YZ=    -5.1160   ZZ=   262.1167
   Eigenvalues:   222.0978   246.5020   264.1569
     16  Si   Isotropic =   333.0354   Anisotropy =    44.0693
   XX=   359.4853   YX=    15.0089   ZX=     9.6547
   XY=     8.1234   YY=   316.6304   ZY=     3.1724
   XZ=    -8.9614   YZ=    -1.5501   ZZ=   322.9904
   Eigenvalues:   313.6553   323.0359   362.4149
     17  C    Isotropic =   186.2227   Anisotropy =    13.0675
   XX=   188.9112   YX=     1.6926   ZX=    -3.1851
   XY=     1.3239   YY=   176.4093   ZY=     1.0092
   XZ=    -2.9963   YZ=     0.7782   ZZ=   193.3477
   Eigenvalues:   176.1351   187.5988   194.9344
     18  C    Isotropic =   184.9766   Anisotropy =    10.9205
   XX=   186.4933   YX=    -2.0881   ZX=     2.4588
   XY=     0.6072   YY=   186.5973   ZY=    -6.7763
   XZ=     3.4358   YZ=    -6.5495   ZZ=   181.8391
   Eigenvalues:   176.7253   185.9475   192.2569
     19  C    Isotropic =   184.7834   Anisotropy =     9.1931
   XX=   187.2750   YX=     1.6673   ZX=     0.8231
   XY=    -0.6746   YY=   189.0843   ZY=     4.5464
   XZ=    -0.4441   YZ=     4.9360   ZZ=   177.9910
   Eigenvalues:   176.2408   187.1974   190.9121
     20  H    Isotropic =    31.8087   Anisotropy =     7.7737
   XX=    30.2413   YX=    -0.9028   ZX=     0.1525
   XY=    -0.3044   YY=    36.7414   ZY=     1.7101
   XZ=     0.4453   YZ=     0.9284   ZZ=    28.4434
   Eigenvalues:    28.1650    30.2699    36.9911
     21  H    Isotropic =    31.9080   Anisotropy =     6.5244
   XX=    31.5116   YX=    -0.4118   ZX=    -1.1661
   XY=    -0.1334   YY=    28.5561   ZY=    -1.9556
   XZ=    -1.2986   YZ=    -1.1267   ZZ=    35.6564
   Eigenvalues:    28.1521    31.3144    36.2576
     22  H    Isotropic =    32.1961   Anisotropy =    10.2191
   XX=    38.6171   YX=    -0.1218   ZX=     1.9775
   XY=     0.1700   YY=    29.0696   ZY=    -0.6806
   XZ=     1.9971   YZ=    -0.5956   ZZ=    28.9017
   Eigenvalues:    28.1001    29.4794    39.0089
     23  H    Isotropic =    31.8538   Anisotropy =     6.7415
   XX=    30.7243   YX=     0.9273   ZX=    -1.4469
   XY=     0.3825   YY=    29.8916   ZY=     2.8470
   XZ=    -1.9899   YZ=     2.2855   ZZ=    34.9457
   Eigenvalues:    28.1367    31.0766    36.3482
     24  H    Isotropic =    31.8702   Anisotropy =     7.3765
   XX=    31.1073   YX=    -1.0868   ZX=     1.3554
   XY=    -1.6950   YY=    35.3169   ZY=    -2.9010
   XZ=     0.9133   YZ=    -2.3181   ZZ=    29.1866
   Eigenvalues:    28.0978    30.7251    36.7879
     25  H    Isotropic =    32.1721   Anisotropy =    10.3559
   XX=    37.4308   YX=     3.8169   ZX=     0.7020
   XY=     3.3362   YY=    30.7522   ZY=     1.0160
   XZ=     0.5493   YZ=     1.0671   ZZ=    28.3334
   Eigenvalues:    27.8702    29.5701    39.0761
     26  H    Isotropic =    31.9682   Anisotropy =     8.2801
   XX=    30.0658   YX=    -1.4954   ZX=     0.1467
   XY=    -1.3489   YY=    31.3843   ZY=    -3.8488
   XZ=     0.7349   YZ=    -4.3583   ZZ=    34.4544
   Eigenvalues:    28.0799    30.3363    37.4883
     27  H    Isotropic =    31.8545   Anisotropy =     8.1533
   XX=    29.4554   YX=     0.4813   ZX=    -1.3039
   XY=     0.6825   YY=    33.8655   ZY=     3.7717
   XZ=    -1.0285   YZ=     4.5207   ZZ=    32.2428
   Eigenvalues:    27.8307    30.4428    37.2901
     28  H    Isotropic =    32.3353   Anisotropy =    10.2398
   XX=    38.5366   YX=     1.3641   ZX=    -2.1385
   XY=     1.4334   YY=    28.4485   ZY=    -0.1481
   XZ=    -1.8564   YZ=    -0.0652   ZZ=    30.0207
   Eigenvalues:    28.2390    29.6049    39.1618
     29  H    Isotropic =    31.3544   Anisotropy =    10.0078
   XX=    30.6731   YX=    -0.5882   ZX=     3.6503
   XY=    -0.1804   YY=    28.5798   ZY=     3.8054
   XZ=     3.7692   YZ=     3.7023   ZZ=    34.8102
   Eigenvalues:    25.8578    30.1790    38.0263
     30  H    Isotropic =    31.2233   Anisotropy =     7.4947
   XX=    27.6897   YX=     1.1698   ZX=     1.4589
   XY=     1.2969   YY=    35.1836   ZY=    -2.4313
   XZ=     0.9702   YZ=    -2.1644   ZZ=    30.7966
   Eigenvalues:    26.7940    30.6561    36.2197
     31  H    Isotropic =    30.4433   Anisotropy =     6.6524
   XX=    34.1973   YX=    -0.0030   ZX=    -0.8881
   XY=    -0.8943   YY=    28.5392   ZY=     3.7990
   XZ=    -1.7743   YZ=     3.8820   ZZ=    28.5935
   Eigenvalues:    24.6845    31.7673    34.8783
     32  H    Isotropic =    30.6439   Anisotropy =     5.7582
   XX=    32.0635   YX=    -0.3572   ZX=     0.4995
   XY=    -0.2177   YY=    28.0174   ZY=    -3.7564
   XZ=     0.5557   YZ=    -4.1647   ZZ=    31.8507
   Eigenvalues:    25.5339    31.9150    34.4827
     33  H    Isotropic =    30.3024   Anisotropy =     5.6907
   XX=    33.1808   YX=    -0.8781   ZX=     0.4188
   XY=    -0.4533   YY=    29.3669   ZY=     5.2140
   XZ=     0.7406   YZ=     5.1779   ZZ=    28.3596
   Eigenvalues:    23.5630    33.2481    34.0962
     34  H    Isotropic =    31.0130   Anisotropy =    11.4669
   XX=    36.8270   YX=     0.3363   ZX=     4.2167
   XY=    -0.0490   YY=    26.0842   ZY=     0.0738
   XZ=     3.6783   YZ=     0.2430   ZZ=    30.1278
   Eigenvalues:    26.0780    28.3034    38.6576
     35  H    Isotropic =    30.5084   Anisotropy =     7.8160
   XX=    32.7516   YX=    -2.2057   ZX=    -1.8071
   XY=    -1.8919   YY=    31.2905   ZY=     3.6890
   XZ=    -0.8662   YZ=     4.0589   ZZ=    27.4831
   Eigenvalues:    25.0700    30.7361    35.7191
     36  H    Isotropic =    31.2059   Anisotropy =     8.9473
   XX=    32.4063   YX=     2.6038   ZX=    -2.9734
   XY=     2.3679   YY=    30.9729   ZY=    -3.5592
   XZ=    -2.1315   YZ=    -4.2221   ZZ=    30.2385
   Eigenvalues:    26.6865    29.7604    37.1708
     37  C    Isotropic =   141.9657   Anisotropy =    31.6061
   XX=   125.2467   YX=    -2.8196   ZX=     1.5797
   XY=    -2.1186   YY=   157.6141   ZY=   -11.6394
   XZ=     1.9771   YZ=    -8.6006   ZZ=   143.0362
   Eigenvalues:   124.9911   137.8696   163.0364
     38  C    Isotropic =    43.6497   Anisotropy =   184.3976
   XX=    44.8611   YX=    56.7459   ZX=    93.0682
   XY=    58.4783   YY=   -10.8686   ZY=   -32.6624
   XZ=    89.9035   YZ=   -31.1663   ZZ=    96.9566
   Eigenvalues:   -83.2444    47.6120   166.5814
     39  C    Isotropic =    68.0073   Anisotropy =   138.7333
   XX=    72.9987   YX=    52.3283   ZX=    65.7568
   XY=    56.7895   YY=    18.7115   ZY=   -32.8487
   XZ=    63.9152   YZ=   -40.2177   ZZ=   112.3117
   Eigenvalues:   -43.8751    87.4008   160.4962
     40  H    Isotropic =    29.6324   Anisotropy =     4.1749
   XX=    29.7884   YX=     1.6223   ZX=     1.2946
   XY=     1.3445   YY=    28.8667   ZY=    -0.7092
   XZ=     2.8740   YZ=     0.7302   ZZ=    30.2421
   Eigenvalues:    27.1334    29.3481    32.4157
     41  H    Isotropic =    29.5550   Anisotropy =     4.7601
   XX=    29.3586   YX=     0.1946   ZX=    -1.8512
   XY=    -1.2012   YY=    28.3562   ZY=    -1.3398
   XZ=    -1.5215   YZ=    -3.1714   ZZ=    30.9502
   Eigenvalues:    26.4376    29.4989    32.7284
     42  H    Isotropic =    25.5750   Anisotropy =     6.6472
   XX=    25.5284   YX=     1.5859   ZX=     1.2421
   XY=     2.5344   YY=    27.9728   ZY=    -3.3948
   XZ=     1.1621   YZ=    -3.0082   ZZ=    23.2238
   Eigenvalues:    20.7419    25.9766    30.0064
     43  H    Isotropic =    26.8835   Anisotropy =     6.9120
   XX=    25.6269   YX=     2.7622   ZX=    -0.2487
   XY=     1.1261   YY=    28.9216   ZY=    -2.1613
   XZ=     0.1215   YZ=    -4.2387   ZZ=    26.1019
   Eigenvalues:    23.4523    25.7067    31.4915
     44  H    Isotropic =    26.7988   Anisotropy =     6.9632
   XX=    25.9704   YX=     1.2008   ZX=    -0.2022
   XY=     3.6531   YY=    27.1926   ZY=    -4.4018
   XZ=    -0.5071   YZ=    -2.5696   ZZ=    27.2332
   Eigenvalues:    22.8906    26.0648    31.4409
 End of Minotr F.D. properties file   721 does not exist.
 End of Minotr F.D. properties file   722 does not exist.
 End of Minotr F.D. properties file   788 does not exist.

 **********************************************************************

            Population analysis using the SCF density.

 **********************************************************************

 Orbital symmetries:
       Occupied  (A) (A) (A) (A) (A) (A) (A) (A) (A) (A) (A) (A)
                 (A) (A) (A) (A) (A) (A) (A) (A) (A) (A) (A) (A)
                 (A) (A) (A) (A) (A) (A) (A) (A) (A) (A) (A) (A)
                 (A) (A) (A) (A) (A) (A) (A) (A) (A) (A) (A) (A)
                 (A) (A) (A) (A) (A) (A) (A) (A) (A) (A) (A) (A)
                 (A) (A) (A) (A) (A) (A) (A) (A) (A) (A) (A) (A)
                 (A) (A)
       Virtual   (A) (A) (A) (A) (A) (A) (A) (A) (A) (A) (A) (A)
                 (A) (A) (A) (A) (A) (A) (A) (A) (A) (A) (A) (A)
                 (A) (A) (A) (A) (A) (A) (A) (A) (A) (A) (A) (A)
                 (A) (A) (A) (A) (A) (A) (A) (A) (A) (A) (A) (A)
                 (A) (A) (A) (A) (A) (A) (A) (A) (A) (A) (A) (A)
                 (A) (A) (A) (A) (A) (A) (A) (A) (A) (A) (A) (A)
                 (A) (A) (A) (A) (A) (A) (A) (A) (A) (A) (A) (A)
                 (A) (A) (A) (A) (A) (A) (A) (A) (A) (A) (A) (A)
                 (A) (A) (A) (A) (A) (A) (A) (A) (A) (A) (A) (A)
                 (A) (A) (A) (A) (A) (A) (A) (A) (A) (A) (A) (A)
                 (A) (A) (A) (A) (A) (A) (A) (A) (A) (A) (A) (A)
                 (A) (A) (A) (A) (A) (A) (A) (A) (A) (A) (A) (A)
                 (A) (A) (A) (A) (A) (A) (A) (A) (A) (A) (A) (A)
                 (A) (A) (A) (A) (A) (A) (A) (A) (A) (A) (A) (A)
                 (A) (A) (A) (A) (A) (A) (A) (A) (A) (A) (A) (A)
                 (A) (A) (A) (A) (A) (A) (A) (A) (A) (A) (A) (A)
                 (A) (A) (A) (A) (A) (A) (A) (A) (A) (A) (A) (A)
                 (A) (A) (A) (A) (A) (A) (A) (A) (A) (A) (A) (A)
                 (A) (A) (A) (A) (A) (A) (A) (A) (A) (A) (A) (A)
                 (A) (A) (A) (A) (A) (A) (A) (A) (A) (A) (A) (A)
                 (A) (A) (A) (A) (A) (A) (A) (A) (A) (A) (A) (A)
                 (A) (A) (A) (A) (A) (A) (A) (A) (A) (A) (A) (A)
                 (A) (A) (A) (A) (A) (A) (A) (A) (A) (A) (A) (A)
                 (A) (A) (A) (A) (A) (A) (A) (A) (A) (A) (A) (A)
                 (A) (A) (A) (A) (A) (A) (A) (A) (A) (A) (A) (A)
                 (A) (A) (A) (A) (A) (A) (A) (A) (A) (A) (A) (A)
                 (A) (A) (A) (A) (A) (A) (A) (A) (A) (A) (A) (A)
                 (A) (A) (A) (A) (A) (A) (A) (A) (A) (A) (A) (A)
 The electronic state is 1-A.
 Alpha  occ. eigenvalues --  -66.27511 -19.25876 -19.20824 -19.19503 -10.36961
 Alpha  occ. eigenvalues --  -10.31823 -10.30490 -10.25195 -10.25058 -10.24603
 Alpha  occ. eigenvalues --  -10.24348 -10.23731 -10.22876 -10.22198 -10.21988
 Alpha  occ. eigenvalues --  -10.21005 -10.20874 -10.20677  -5.33236  -3.67127
 Alpha  occ. eigenvalues --   -3.66828  -3.66815  -1.13155  -1.04745  -1.04107
 Alpha  occ. eigenvalues --   -0.85888  -0.83117  -0.80864  -0.77662  -0.73958
 Alpha  occ. eigenvalues --   -0.72804  -0.71664  -0.70342  -0.70175  -0.66656
 Alpha  occ. eigenvalues --   -0.63687  -0.61941  -0.58872  -0.56284  -0.53089
 Alpha  occ. eigenvalues --   -0.52404  -0.50633  -0.48988  -0.48298  -0.47090
 Alpha  occ. eigenvalues --   -0.46704  -0.45374  -0.44695  -0.44172  -0.43824
 Alpha  occ. eigenvalues --   -0.42804  -0.42533  -0.41682  -0.41619  -0.41122
 Alpha  occ. eigenvalues --   -0.40911  -0.40514  -0.40014  -0.39769  -0.38784
 Alpha  occ. eigenvalues --   -0.38448  -0.37953  -0.36973  -0.36513  -0.35919
 Alpha  occ. eigenvalues --   -0.35484  -0.34352  -0.33458  -0.32156  -0.31043
 Alpha  occ. eigenvalues --   -0.30211  -0.29665  -0.28149  -0.27014
 Alpha virt. eigenvalues --    0.00560   0.00854   0.03789   0.05898   0.05926
 Alpha virt. eigenvalues --    0.06511   0.07391   0.07822   0.08217   0.09051
 Alpha virt. eigenvalues --    0.09491   0.09928   0.10460   0.10735   0.11110
 Alpha virt. eigenvalues --    0.12118   0.12576   0.13392   0.13572   0.13858
 Alpha virt. eigenvalues --    0.14181   0.14426   0.14735   0.14907   0.15536
 Alpha virt. eigenvalues --    0.16060   0.16496   0.17432   0.17794   0.18589
 Alpha virt. eigenvalues --    0.18910   0.19072   0.19379   0.19701   0.21462
 Alpha virt. eigenvalues --    0.21913   0.22778   0.23089   0.24105   0.24433
 Alpha virt. eigenvalues --    0.25221   0.25503   0.26545   0.27145   0.28377
 Alpha virt. eigenvalues --    0.28998   0.29704   0.30845   0.32128   0.32359
 Alpha virt. eigenvalues --    0.33122   0.33224   0.34582   0.35235   0.36026
 Alpha virt. eigenvalues --    0.36949   0.37843   0.38686   0.39282   0.40000
 Alpha virt. eigenvalues --    0.40597   0.42156   0.42723   0.44025   0.44292
 Alpha virt. eigenvalues --    0.44642   0.45525   0.47513   0.48625   0.49440
 Alpha virt. eigenvalues --    0.49968   0.50660   0.51130   0.51202   0.52992
 Alpha virt. eigenvalues --    0.53707   0.53982   0.54354   0.55562   0.56064
 Alpha virt. eigenvalues --    0.56597   0.57416   0.58330   0.58568   0.58808
 Alpha virt. eigenvalues --    0.59178   0.59769   0.60335   0.60697   0.61371
 Alpha virt. eigenvalues --    0.61567   0.61692   0.62105   0.62426   0.63068
 Alpha virt. eigenvalues --    0.63352   0.63674   0.64007   0.65047   0.65587
 Alpha virt. eigenvalues --    0.66613   0.66857   0.67489   0.67616   0.68422
 Alpha virt. eigenvalues --    0.68875   0.69124   0.69627   0.70576   0.71760
 Alpha virt. eigenvalues --    0.72180   0.72803   0.72966   0.73513   0.74599
 Alpha virt. eigenvalues --    0.75937   0.77131   0.78389   0.79188   0.81128
 Alpha virt. eigenvalues --    0.82243   0.83645   0.86567   0.87368   0.87879
 Alpha virt. eigenvalues --    0.89926   0.90495   0.91791   0.92894   0.93773
 Alpha virt. eigenvalues --    0.94439   0.96597   0.97191   0.99106   1.00911
 Alpha virt. eigenvalues --    1.02548   1.03541   1.04880   1.08661   1.11514
 Alpha virt. eigenvalues --    1.12372   1.15079   1.16840   1.18225   1.19801
 Alpha virt. eigenvalues --    1.21462   1.23382   1.25027   1.26443   1.27858
 Alpha virt. eigenvalues --    1.28412   1.30351   1.31426   1.31765   1.32463
 Alpha virt. eigenvalues --    1.35446   1.38818   1.39612   1.40282   1.41305
 Alpha virt. eigenvalues --    1.41687   1.43902   1.45823   1.47301   1.48953
 Alpha virt. eigenvalues --    1.50078   1.50717   1.51628   1.52171   1.52943
 Alpha virt. eigenvalues --    1.53887   1.54941   1.55625   1.55877   1.57269
 Alpha virt. eigenvalues --    1.58766   1.59152   1.59665   1.60468   1.60602
 Alpha virt. eigenvalues --    1.60869   1.61636   1.62530   1.63156   1.63941
 Alpha virt. eigenvalues --    1.65024   1.65797   1.66881   1.67880   1.69115
 Alpha virt. eigenvalues --    1.69619   1.71446   1.72500   1.73765   1.74114
 Alpha virt. eigenvalues --    1.75723   1.77556   1.78782   1.79858   1.80480
 Alpha virt. eigenvalues --    1.80955   1.82048   1.82988   1.85317   1.87262
 Alpha virt. eigenvalues --    1.88600   1.89166   1.94112   1.95258   1.98164
 Alpha virt. eigenvalues --    1.99019   2.04294   2.07032   2.08768   2.11304
 Alpha virt. eigenvalues --    2.14047   2.17718   2.22955   2.23125   2.27115
 Alpha virt. eigenvalues --    2.28977   2.30905   2.34444   2.36584   2.40765
 Alpha virt. eigenvalues --    2.41413   2.41920   2.42041   2.42411   2.42613
 Alpha virt. eigenvalues --    2.44002   2.44743   2.45835   2.46790   2.47263
 Alpha virt. eigenvalues --    2.47524   2.48122   2.50462   2.51199   2.52219
 Alpha virt. eigenvalues --    2.52636   2.54034   2.54811   2.57998   2.58744
 Alpha virt. eigenvalues --    2.61287   2.63026   2.66350   2.73200   2.80146
 Alpha virt. eigenvalues --    2.84028   2.86716   2.88052   2.90766   2.91230
 Alpha virt. eigenvalues --    2.91937   2.93468   2.94320   2.96394   2.97636
 Alpha virt. eigenvalues --    2.99318   2.99845   3.02128   3.03755   3.04848
 Alpha virt. eigenvalues --    3.06458   3.09633   3.12635   3.13750   3.15105
 Alpha virt. eigenvalues --    3.15888   3.17176   3.17921   3.18785   3.19242
 Alpha virt. eigenvalues --    3.22569   3.22802   3.23062   3.23306   3.25278
 Alpha virt. eigenvalues --    3.26129   3.27178   3.28961   3.29850   3.30117
 Alpha virt. eigenvalues --    3.34776   3.35268   3.37475   3.39219   3.40453
 Alpha virt. eigenvalues --    3.42878   3.51009   3.58165   3.60923   3.65619
 Alpha virt. eigenvalues --    3.78827   3.87765   3.88614   3.98436   4.04561
 Alpha virt. eigenvalues --    4.09695   4.14142   4.19028   4.22890   4.26787
 Alpha virt. eigenvalues --    4.93689   5.00491   5.01828   5.10500   5.14910
 Alpha virt. eigenvalues --    5.24115   5.53110   5.56818   5.76339   5.85339
 Alpha virt. eigenvalues --   11.52293  11.53190  11.56950  23.40892  23.48819
 Alpha virt. eigenvalues --   23.54064  23.54370  23.56695  23.61356  23.72182
 Alpha virt. eigenvalues --   23.73042  23.78166  23.80003  23.82459  23.88080
 Alpha virt. eigenvalues --   23.88520  24.28675  49.98379  50.04638  50.13259
 Alpha virt. eigenvalues --  141.27391
          Condensed to atoms (all electrons):
               1          2          3          4          5          6
     1  C    5.234382   0.264702  -0.047461  -0.002372  -0.048372   0.372643
     2  C    0.264702   5.555011   0.264912  -0.086777  -0.014461  -0.034021
     3  C   -0.047461   0.264912   5.187163   0.252511  -0.020558  -0.018569
     4  C   -0.002372  -0.086777   0.252511   5.853126   0.243455   0.002809
     5  C   -0.048372  -0.014461  -0.020558   0.243455   4.374479  -0.001212
     6  H    0.372643  -0.034021  -0.018569   0.002809  -0.001212   0.488024
     7  H   -0.048162   0.404211  -0.061313  -0.005584   0.000405   0.007434
     8  H    0.002116  -0.008892  -0.033937   0.371010  -0.022307  -0.000131
     9  H   -0.001187   0.008788  -0.028322   0.358429  -0.026006   0.000235
    10  O    0.206238  -0.028457   0.007522  -0.109606   0.351999  -0.033339
    11  O    0.002598  -0.000429   0.004395  -0.095235   0.668700  -0.000159
    12  C    0.327314  -0.067055   0.008857  -0.002358   0.002071  -0.047202
    13  C   -0.070440   0.006823  -0.000115   0.000054  -0.000033  -0.006103
    14  C   -0.061330   0.289190  -0.051127   0.006536   0.000292  -0.000871
    15  O    0.003980  -0.057283   0.219699  -0.028277   0.001802  -0.000073
    16  Si   0.000262   0.001908  -0.044405  -0.008138   0.001549  -0.000110
    17  C   -0.000003   0.000056   0.002587  -0.000303  -0.000003   0.000000
    18  C    0.000007  -0.000222  -0.000150  -0.000193   0.000004   0.000000
    19  C    0.000006  -0.000322   0.002418  -0.007162  -0.000222   0.000001
    20  H    0.000001   0.000004   0.000284  -0.000017   0.000001   0.000000
    21  H    0.000004  -0.000072   0.000218  -0.000069   0.000007   0.000000
    22  H    0.000000   0.000004  -0.000024  -0.000009   0.000000   0.000000
    23  H    0.000005  -0.000073   0.000977  -0.000960  -0.000163  -0.000001
    24  H   -0.000001  -0.000071   0.000727   0.000030  -0.000117   0.000000
    25  H    0.000000   0.000007  -0.000136   0.000347   0.000002   0.000000
    26  H   -0.000002   0.000064  -0.000019  -0.000006  -0.000001   0.000000
    27  H   -0.000001   0.000066  -0.000142  -0.000016   0.000000   0.000000
    28  H    0.000000   0.000001  -0.000066   0.000000   0.000000   0.000000
    29  H   -0.007045  -0.032825   0.006234  -0.000343  -0.000011  -0.000325
    30  H   -0.005292  -0.042731  -0.006095  -0.000103  -0.000007   0.005643
    31  H    0.007035  -0.039655  -0.007860   0.000484  -0.000088  -0.000222
    32  H   -0.048066  -0.004420  -0.000831   0.000143   0.000095   0.008207
    33  H   -0.041822  -0.007086  -0.000313   0.000115  -0.000006  -0.000583
    34  H    0.008059  -0.000216   0.000012   0.000000   0.000000  -0.000270
    35  H   -0.011756   0.000382  -0.000084   0.000396   0.000873   0.000273
    36  H   -0.003707  -0.000035  -0.000002  -0.000005  -0.000096   0.004728
    37  C    0.002921  -0.088535   0.295203  -0.111570   0.002049   0.006890
    38  C   -0.001937  -0.005589  -0.050777   0.007907  -0.000449   0.000324
    39  C   -0.000594   0.001374  -0.000041  -0.000028  -0.000028   0.002096
    40  H   -0.000413   0.007737  -0.047616  -0.003187  -0.000441   0.000480
    41  H   -0.000301  -0.003248  -0.020579  -0.007913   0.003427  -0.004303
    42  H    0.000085  -0.000587  -0.001879  -0.000134  -0.000009  -0.000047
    43  H    0.000014  -0.000016  -0.000269   0.000014   0.000000   0.000024
    44  H    0.000141  -0.000071   0.000154  -0.000039  -0.000012   0.000512
               7          8          9         10         11         12
     1  C   -0.048162   0.002116  -0.001187   0.206238   0.002598   0.327314
     2  C    0.404211  -0.008892   0.008788  -0.028457  -0.000429  -0.067055
     3  C   -0.061313  -0.033937  -0.028322   0.007522   0.004395   0.008857
     4  C   -0.005584   0.371010   0.358429  -0.109606  -0.095235  -0.002358
     5  C    0.000405  -0.022307  -0.026006   0.351999   0.668700   0.002071
     6  H    0.007434  -0.000131   0.000235  -0.033339  -0.000159  -0.047202
     7  H    0.484568   0.003245   0.000317   0.001235  -0.000207  -0.008832
     8  H    0.003245   0.404487  -0.013866   0.000860   0.000549  -0.000036
     9  H    0.000317  -0.013866   0.419567   0.004674   0.011674   0.000057
    10  O    0.001235   0.000860   0.004674   8.044172  -0.077803  -0.053671
    11  O   -0.000207   0.000549   0.011674  -0.077803   7.871528  -0.000142
    12  C   -0.008832  -0.000036   0.000057  -0.053671  -0.000142   5.309290
    13  C   -0.000232   0.000011  -0.000004  -0.006366  -0.000022   0.318558
    14  C   -0.035129  -0.000068  -0.000112   0.003383   0.000004  -0.005803
    15  O    0.002994  -0.000665  -0.001630  -0.000012  -0.000021  -0.000076
    16  Si   0.000020   0.000275  -0.001545  -0.000126  -0.000329   0.000003
    17  C   -0.000039  -0.000222   0.000040   0.000000   0.000000   0.000000
    18  C    0.000038   0.000103  -0.000318   0.000000   0.000000   0.000000
    19  C   -0.000028   0.000105  -0.002187  -0.000002  -0.000013   0.000000
    20  H    0.000006   0.000002  -0.000009   0.000000   0.000000   0.000000
    21  H    0.000005   0.000021  -0.000089   0.000000   0.000000   0.000000
    22  H    0.000000   0.000000   0.000001   0.000000   0.000000   0.000000
    23  H    0.000003  -0.000249   0.002143  -0.000002  -0.000065   0.000000
    24  H   -0.000019   0.001344  -0.001035   0.000001   0.000011   0.000000
    25  H    0.000000   0.000000   0.000220   0.000000   0.000000   0.000000
    26  H   -0.000017  -0.000024   0.000009   0.000000   0.000000   0.000000
    27  H   -0.000025  -0.000014  -0.000004   0.000000   0.000000   0.000000
    28  H   -0.000001   0.000003  -0.000002   0.000000   0.000000   0.000000
    29  H   -0.008195  -0.000026   0.000016  -0.000015   0.000000   0.001917
    30  H    0.007028  -0.000024   0.000026   0.000028   0.000000  -0.001033
    31  H   -0.002333   0.000067  -0.000043  -0.000108   0.000000   0.000023
    32  H    0.006120  -0.000063   0.000017   0.002793  -0.000123   0.388852
    33  H    0.000386  -0.000013  -0.000002   0.003755   0.000007   0.388417
    34  H   -0.000027   0.000000   0.000000  -0.000136   0.000000  -0.037957
    35  H    0.000039  -0.000013  -0.000009   0.013354   0.000305  -0.038740
    36  H    0.000017   0.000000   0.000000  -0.000371  -0.000003  -0.040822
    37  C    0.009820   0.007667  -0.006195  -0.005305   0.000140  -0.000644
    38  C   -0.000587  -0.000226   0.000038   0.000357  -0.000001   0.000009
    39  C   -0.000056   0.000002  -0.000002  -0.000013   0.000000   0.000013
    40  H   -0.000132  -0.000192   0.003708  -0.000143  -0.000050   0.000007
    41  H   -0.000513   0.000188  -0.000164   0.003986  -0.000345   0.000739
    42  H   -0.000099   0.000021   0.000009   0.000001   0.000000   0.000014
    43  H   -0.000002  -0.000001   0.000000   0.000000   0.000000  -0.000001
    44  H    0.000004   0.000002   0.000004  -0.000031   0.000000   0.000004
              13         14         15         16         17         18
     1  C   -0.070440  -0.061330   0.003980   0.000262  -0.000003   0.000007
     2  C    0.006823   0.289190  -0.057283   0.001908   0.000056  -0.000222
     3  C   -0.000115  -0.051127   0.219699  -0.044405   0.002587  -0.000150
     4  C    0.000054   0.006536  -0.028277  -0.008138  -0.000303  -0.000193
     5  C   -0.000033   0.000292   0.001802   0.001549  -0.000003   0.000004
     6  H   -0.006103  -0.000871  -0.000073  -0.000110   0.000000   0.000000
     7  H   -0.000232  -0.035129   0.002994   0.000020  -0.000039   0.000038
     8  H    0.000011  -0.000068  -0.000665   0.000275  -0.000222   0.000103
     9  H   -0.000004  -0.000112  -0.001630  -0.001545   0.000040  -0.000318
    10  O   -0.006366   0.003383  -0.000012  -0.000126   0.000000   0.000000
    11  O   -0.000022   0.000004  -0.000021  -0.000329   0.000000   0.000000
    12  C    0.318558  -0.005803  -0.000076   0.000003   0.000000   0.000000
    13  C    5.337993  -0.000261   0.000001   0.000001   0.000000   0.000000
    14  C   -0.000261   5.417516  -0.008816   0.000053  -0.000030  -0.000021
    15  O    0.000001  -0.008816   8.272690   0.358751  -0.031176  -0.025569
    16  Si   0.000001   0.000053   0.358751  11.515355   0.335510   0.311594
    17  C    0.000000  -0.000030  -0.031176   0.335510   5.721009  -0.049060
    18  C    0.000000  -0.000021  -0.025569   0.311594  -0.049060   5.780897
    19  C    0.000000   0.000001  -0.025255   0.317924  -0.044156  -0.055119
    20  H    0.000000  -0.000021  -0.002609  -0.026785  -0.000534   0.370578
    21  H    0.000000   0.000008  -0.001799  -0.027429   0.002181   0.369294
    22  H    0.000000  -0.000001   0.000821  -0.010100  -0.000276   0.361702
    23  H    0.000000   0.000000  -0.001207  -0.025370   0.002297  -0.000535
    24  H    0.000000   0.000003  -0.002312  -0.024720  -0.000206   0.002112
    25  H    0.000000   0.000000   0.000791  -0.010171  -0.000484   0.000179
    26  H    0.000000   0.000013  -0.001576  -0.023246   0.370345   0.002131
    27  H    0.000000   0.000072  -0.001679  -0.022836   0.369715  -0.000910
    28  H    0.000000   0.000000   0.001248  -0.014484   0.361763   0.000718
    29  H    0.000127   0.389107  -0.000099  -0.000026   0.000000  -0.000003
    30  H   -0.000152   0.384881  -0.000069  -0.000164   0.000000   0.000006
    31  H    0.000018   0.385142   0.010308   0.001371   0.000170   0.000061
    32  H   -0.041101   0.000786  -0.000016  -0.000018   0.000000   0.000000
    33  H   -0.036739   0.002392  -0.000003  -0.000003   0.000000   0.000000
    34  H    0.392473  -0.000005   0.000000   0.000000   0.000000   0.000000
    35  H    0.384196  -0.000070   0.000000   0.000001   0.000000   0.000000
    36  H    0.384639   0.000021   0.000000   0.000000   0.000000   0.000000
    37  C   -0.000025  -0.002545  -0.062435  -0.009170  -0.000162   0.000761
    38  C    0.000006  -0.014578   0.004389  -0.001314  -0.000064  -0.003667
    39  C   -0.000001  -0.003528   0.000642   0.000445  -0.000001  -0.000157
    40  H   -0.000001  -0.000426  -0.003429   0.005456   0.000014   0.000626
    41  H   -0.000009   0.000382   0.003831   0.001344   0.000010  -0.000010
    42  H    0.000000  -0.000103   0.004033   0.001327  -0.000086  -0.000403
    43  H    0.000000   0.000055   0.000014   0.000031   0.000000   0.000006
    44  H   -0.000001   0.000062  -0.000001  -0.000010   0.000000  -0.000005
              19         20         21         22         23         24
     1  C    0.000006   0.000001   0.000004   0.000000   0.000005  -0.000001
     2  C   -0.000322   0.000004  -0.000072   0.000004  -0.000073  -0.000071
     3  C    0.002418   0.000284   0.000218  -0.000024   0.000977   0.000727
     4  C   -0.007162  -0.000017  -0.000069  -0.000009  -0.000960   0.000030
     5  C   -0.000222   0.000001   0.000007   0.000000  -0.000163  -0.000117
     6  H    0.000001   0.000000   0.000000   0.000000  -0.000001   0.000000
     7  H   -0.000028   0.000006   0.000005   0.000000   0.000003  -0.000019
     8  H    0.000105   0.000002   0.000021   0.000000  -0.000249   0.001344
     9  H   -0.002187  -0.000009  -0.000089   0.000001   0.002143  -0.001035
    10  O   -0.000002   0.000000   0.000000   0.000000  -0.000002   0.000001
    11  O   -0.000013   0.000000   0.000000   0.000000  -0.000065   0.000011
    12  C    0.000000   0.000000   0.000000   0.000000   0.000000   0.000000
    13  C    0.000000   0.000000   0.000000   0.000000   0.000000   0.000000
    14  C    0.000001  -0.000021   0.000008  -0.000001   0.000000   0.000003
    15  O   -0.025255  -0.002609  -0.001799   0.000821  -0.001207  -0.002312
    16  Si   0.317924  -0.026785  -0.027429  -0.010100  -0.025370  -0.024720
    17  C   -0.044156  -0.000534   0.002181  -0.000276   0.002297  -0.000206
    18  C   -0.055119   0.370578   0.369294   0.361702  -0.000535   0.002112
    19  C    5.779308   0.002151  -0.000940   0.000088   0.369041   0.369106
    20  H    0.002151   0.451028  -0.019267  -0.022368  -0.000022  -0.000087
    21  H   -0.000940  -0.019267   0.446621  -0.021560   0.001073  -0.000054
    22  H    0.000088  -0.022368  -0.021560   0.449370   0.000000  -0.000035
    23  H    0.369041  -0.000022   0.001073   0.000000   0.448055  -0.020232
    24  H    0.369106  -0.000087  -0.000054  -0.000035  -0.020232   0.446431
    25  H    0.363085  -0.000076   0.000025   0.000303  -0.020875  -0.020331
    26  H   -0.000680  -0.000064  -0.000088  -0.000059  -0.000066   0.001043
    27  H    0.002182   0.001177  -0.000105  -0.000068  -0.000078  -0.000071
    28  H    0.000161   0.000002  -0.000033   0.000584  -0.000044  -0.000077
    29  H    0.000000  -0.000002  -0.000001   0.000000   0.000000   0.000000
    30  H    0.000001  -0.000001  -0.000001   0.000000   0.000000   0.000000
    31  H    0.000033   0.000023   0.000009  -0.000004   0.000002   0.000000
    32  H    0.000000   0.000000   0.000000   0.000000   0.000000   0.000000
    33  H    0.000000   0.000000   0.000000   0.000000   0.000000   0.000000
    34  H    0.000000   0.000000   0.000000   0.000000   0.000000   0.000000
    35  H    0.000000   0.000000   0.000000   0.000000   0.000000   0.000000
    36  H    0.000000   0.000000   0.000000   0.000000   0.000000   0.000000
    37  C   -0.000769   0.000217   0.000911   0.000024  -0.000009  -0.000006
    38  C    0.000082  -0.000242   0.000307   0.000147   0.000025   0.000006
    39  C    0.000001  -0.000036   0.000173   0.000003   0.000000   0.000000
    40  H    0.000065  -0.000220   0.001775   0.000050   0.000713  -0.000046
    41  H   -0.000036  -0.000027  -0.000040  -0.000001  -0.000024   0.000006
    42  H    0.000038   0.001836  -0.001149   0.000222   0.000005   0.000000
    43  H    0.000000  -0.000016   0.000006  -0.000001   0.000000   0.000000
    44  H    0.000000   0.000000  -0.000005   0.000001   0.000000   0.000000
              25         26         27         28         29         30
     1  C    0.000000  -0.000002  -0.000001   0.000000  -0.007045  -0.005292
     2  C    0.000007   0.000064   0.000066   0.000001  -0.032825  -0.042731
     3  C   -0.000136  -0.000019  -0.000142  -0.000066   0.006234  -0.006095
     4  C    0.000347  -0.000006  -0.000016   0.000000  -0.000343  -0.000103
     5  C    0.000002  -0.000001   0.000000   0.000000  -0.000011  -0.000007
     6  H    0.000000   0.000000   0.000000   0.000000  -0.000325   0.005643
     7  H    0.000000  -0.000017  -0.000025  -0.000001  -0.008195   0.007028
     8  H    0.000000  -0.000024  -0.000014   0.000003  -0.000026  -0.000024
     9  H    0.000220   0.000009  -0.000004  -0.000002   0.000016   0.000026
    10  O    0.000000   0.000000   0.000000   0.000000  -0.000015   0.000028
    11  O    0.000000   0.000000   0.000000   0.000000   0.000000   0.000000
    12  C    0.000000   0.000000   0.000000   0.000000   0.001917  -0.001033
    13  C    0.000000   0.000000   0.000000   0.000000   0.000127  -0.000152
    14  C    0.000000   0.000013   0.000072   0.000000   0.389107   0.384881
    15  O    0.000791  -0.001576  -0.001679   0.001248  -0.000099  -0.000069
    16  Si  -0.010171  -0.023246  -0.022836  -0.014484  -0.000026  -0.000164
    17  C   -0.000484   0.370345   0.369715   0.361763   0.000000   0.000000
    18  C    0.000179   0.002131  -0.000910   0.000718  -0.000003   0.000006
    19  C    0.363085  -0.000680   0.002182   0.000161   0.000000   0.000001
    20  H   -0.000076  -0.000064   0.001177   0.000002  -0.000002  -0.000001
    21  H    0.000025  -0.000088  -0.000105  -0.000033  -0.000001  -0.000001
    22  H    0.000303  -0.000059  -0.000068   0.000584   0.000000   0.000000
    23  H   -0.020875  -0.000066  -0.000078  -0.000044   0.000000   0.000000
    24  H   -0.020331   0.001043  -0.000071  -0.000077   0.000000   0.000000
    25  H    0.443675  -0.000033  -0.000067   0.000593   0.000000   0.000000
    26  H   -0.000033   0.453793  -0.019545  -0.021783   0.000003   0.000000
    27  H   -0.000067  -0.019545   0.452959  -0.021906   0.000005  -0.000007
    28  H    0.000593  -0.021783  -0.021906   0.461337   0.000000   0.000000
    29  H    0.000000   0.000003   0.000005   0.000000   0.462766  -0.026260
    30  H    0.000000   0.000000  -0.000007   0.000000  -0.026260   0.460081
    31  H    0.000000  -0.000033   0.000417  -0.000004  -0.024466  -0.024238
    32  H    0.000000   0.000000   0.000000   0.000000   0.000263   0.000145
    33  H    0.000000   0.000000   0.000000   0.000000  -0.000218   0.000281
    34  H    0.000000   0.000000   0.000000   0.000000   0.000006   0.000004
    35  H    0.000000   0.000000   0.000000   0.000000  -0.000024  -0.000002
    36  H    0.000000   0.000000   0.000000   0.000000   0.000030  -0.000007
    37  C    0.000019  -0.000018  -0.000024   0.000009  -0.000526   0.002020
    38  C   -0.000003   0.000002  -0.000006  -0.000002   0.000556   0.003269
    39  C    0.000000   0.000000   0.000000   0.000000   0.000182   0.001816
    40  H    0.000002   0.000002   0.000009   0.000007   0.000025   0.000229
    41  H    0.000000   0.000001   0.000000   0.000000   0.000008  -0.000476
    42  H    0.000001   0.000001  -0.000017  -0.000002   0.000096  -0.001148
    43  H    0.000000   0.000000   0.000000   0.000000  -0.000005   0.000035
    44  H    0.000000   0.000000   0.000000   0.000000   0.000005  -0.000054
              31         32         33         34         35         36
     1  C    0.007035  -0.048066  -0.041822   0.008059  -0.011756  -0.003707
     2  C   -0.039655  -0.004420  -0.007086  -0.000216   0.000382  -0.000035
     3  C   -0.007860  -0.000831  -0.000313   0.000012  -0.000084  -0.000002
     4  C    0.000484   0.000143   0.000115   0.000000   0.000396  -0.000005
     5  C   -0.000088   0.000095  -0.000006   0.000000   0.000873  -0.000096
     6  H   -0.000222   0.008207  -0.000583  -0.000270   0.000273   0.004728
     7  H   -0.002333   0.006120   0.000386  -0.000027   0.000039   0.000017
     8  H    0.000067  -0.000063  -0.000013   0.000000  -0.000013   0.000000
     9  H   -0.000043   0.000017  -0.000002   0.000000  -0.000009   0.000000
    10  O   -0.000108   0.002793   0.003755  -0.000136   0.013354  -0.000371
    11  O    0.000000  -0.000123   0.000007   0.000000   0.000305  -0.000003
    12  C    0.000023   0.388852   0.388417  -0.037957  -0.038740  -0.040822
    13  C    0.000018  -0.041101  -0.036739   0.392473   0.384196   0.384639
    14  C    0.385142   0.000786   0.002392  -0.000005  -0.000070   0.000021
    15  O    0.010308  -0.000016  -0.000003   0.000000   0.000000   0.000000
    16  Si   0.001371  -0.000018  -0.000003   0.000000   0.000001   0.000000
    17  C    0.000170   0.000000   0.000000   0.000000   0.000000   0.000000
    18  C    0.000061   0.000000   0.000000   0.000000   0.000000   0.000000
    19  C    0.000033   0.000000   0.000000   0.000000   0.000000   0.000000
    20  H    0.000023   0.000000   0.000000   0.000000   0.000000   0.000000
    21  H    0.000009   0.000000   0.000000   0.000000   0.000000   0.000000
    22  H   -0.000004   0.000000   0.000000   0.000000   0.000000   0.000000
    23  H    0.000002   0.000000   0.000000   0.000000   0.000000   0.000000
    24  H    0.000000   0.000000   0.000000   0.000000   0.000000   0.000000
    25  H    0.000000   0.000000   0.000000   0.000000   0.000000   0.000000
    26  H   -0.000033   0.000000   0.000000   0.000000   0.000000   0.000000
    27  H    0.000417   0.000000   0.000000   0.000000   0.000000   0.000000
    28  H   -0.000004   0.000000   0.000000   0.000000   0.000000   0.000000
    29  H   -0.024466   0.000263  -0.000218   0.000006  -0.000024   0.000030
    30  H   -0.024238   0.000145   0.000281   0.000004  -0.000002  -0.000007
    31  H    0.432340  -0.000147   0.000441  -0.000001   0.000005  -0.000005
    32  H   -0.000147   0.486976  -0.026074  -0.004823  -0.004124   0.006926
    33  H    0.000441  -0.026074   0.475819  -0.004701   0.007001  -0.004715
    34  H   -0.000001  -0.004823  -0.004701   0.471794  -0.025562  -0.027604
    35  H    0.000005  -0.004124   0.007001  -0.025562   0.460611  -0.027467
    36  H   -0.000005   0.006926  -0.004715  -0.027604  -0.027467   0.486542
    37  C    0.000332   0.000036   0.000032   0.000000  -0.000001  -0.000008
    38  C    0.000088  -0.000013  -0.000012   0.000000  -0.000001  -0.000004
    39  C    0.000176  -0.000001   0.000003   0.000000   0.000000  -0.000004
    40  H   -0.000088   0.000002   0.000001   0.000000   0.000000   0.000000
    41  H   -0.000084  -0.000035  -0.000039   0.000002  -0.000003  -0.000007
    42  H    0.000284  -0.000001   0.000000   0.000000   0.000000   0.000000
    43  H   -0.000003   0.000000   0.000000   0.000000   0.000000   0.000000
    44  H   -0.000012   0.000001   0.000003   0.000000   0.000000   0.000006
              37         38         39         40         41         42
     1  C    0.002921  -0.001937  -0.000594  -0.000413  -0.000301   0.000085
     2  C   -0.088535  -0.005589   0.001374   0.007737  -0.003248  -0.000587
     3  C    0.295203  -0.050777  -0.000041  -0.047616  -0.020579  -0.001879
     4  C   -0.111570   0.007907  -0.000028  -0.003187  -0.007913  -0.000134
     5  C    0.002049  -0.000449  -0.000028  -0.000441   0.003427  -0.000009
     6  H    0.006890   0.000324   0.002096   0.000480  -0.004303  -0.000047
     7  H    0.009820  -0.000587  -0.000056  -0.000132  -0.000513  -0.000099
     8  H    0.007667  -0.000226   0.000002  -0.000192   0.000188   0.000021
     9  H   -0.006195   0.000038  -0.000002   0.003708  -0.000164   0.000009
    10  O   -0.005305   0.000357  -0.000013  -0.000143   0.003986   0.000001
    11  O    0.000140  -0.000001   0.000000  -0.000050  -0.000345   0.000000
    12  C   -0.000644   0.000009   0.000013   0.000007   0.000739   0.000014
    13  C   -0.000025   0.000006  -0.000001  -0.000001  -0.000009   0.000000
    14  C   -0.002545  -0.014578  -0.003528  -0.000426   0.000382  -0.000103
    15  O   -0.062435   0.004389   0.000642  -0.003429   0.003831   0.004033
    16  Si  -0.009170  -0.001314   0.000445   0.005456   0.001344   0.001327
    17  C   -0.000162  -0.000064  -0.000001   0.000014   0.000010  -0.000086
    18  C    0.000761  -0.003667  -0.000157   0.000626  -0.000010  -0.000403
    19  C   -0.000769   0.000082   0.000001   0.000065  -0.000036   0.000038
    20  H    0.000217  -0.000242  -0.000036  -0.000220  -0.000027   0.001836
    21  H    0.000911   0.000307   0.000173   0.001775  -0.000040  -0.001149
    22  H    0.000024   0.000147   0.000003   0.000050  -0.000001   0.000222
    23  H   -0.000009   0.000025   0.000000   0.000713  -0.000024   0.000005
    24  H   -0.000006   0.000006   0.000000  -0.000046   0.000006   0.000000
    25  H    0.000019  -0.000003   0.000000   0.000002   0.000000   0.000001
    26  H   -0.000018   0.000002   0.000000   0.000002   0.000001   0.000001
    27  H   -0.000024  -0.000006   0.000000   0.000009   0.000000  -0.000017
    28  H    0.000009  -0.000002   0.000000   0.000007   0.000000  -0.000002
    29  H   -0.000526   0.000556   0.000182   0.000025   0.000008   0.000096
    30  H    0.002020   0.003269   0.001816   0.000229  -0.000476  -0.001148
    31  H    0.000332   0.000088   0.000176  -0.000088  -0.000084   0.000284
    32  H    0.000036  -0.000013  -0.000001   0.000002  -0.000035  -0.000001
    33  H    0.000032  -0.000012   0.000003   0.000001  -0.000039   0.000000
    34  H    0.000000   0.000000   0.000000   0.000000   0.000002   0.000000
    35  H   -0.000001  -0.000001   0.000000   0.000000  -0.000003   0.000000
    36  H   -0.000008  -0.000004  -0.000004   0.000000  -0.000007   0.000000
    37  C    5.496309   0.314617  -0.058204   0.389499   0.379523  -0.050353
    38  C    0.314617   5.066950   0.623700  -0.038657  -0.044806   0.395541
    39  C   -0.058204   0.623700   5.145879  -0.004447   0.002220  -0.037687
    40  H    0.389499  -0.038657  -0.004447   0.460429  -0.025926  -0.000477
    41  H    0.379523  -0.044806   0.002220  -0.025926   0.452837   0.004758
    42  H   -0.050353   0.395541  -0.037687  -0.000477   0.004758   0.457643
    43  H    0.006381  -0.038788   0.393544  -0.000353   0.000103  -0.007891
    44  H   -0.009204  -0.041585   0.388980   0.000267   0.004561   0.006060
              43         44
     1  C    0.000014   0.000141
     2  C   -0.000016  -0.000071
     3  C   -0.000269   0.000154
     4  C    0.000014  -0.000039
     5  C    0.000000  -0.000012
     6  H    0.000024   0.000512
     7  H   -0.000002   0.000004
     8  H   -0.000001   0.000002
     9  H    0.000000   0.000004
    10  O    0.000000  -0.000031
    11  O    0.000000   0.000000
    12  C   -0.000001   0.000004
    13  C    0.000000  -0.000001
    14  C    0.000055   0.000062
    15  O    0.000014  -0.000001
    16  Si   0.000031  -0.000010
    17  C    0.000000   0.000000
    18  C    0.000006  -0.000005
    19  C    0.000000   0.000000
    20  H   -0.000016   0.000000
    21  H    0.000006  -0.000005
    22  H   -0.000001   0.000001
    23  H    0.000000   0.000000
    24  H    0.000000   0.000000
    25  H    0.000000   0.000000
    26  H    0.000000   0.000000
    27  H    0.000000   0.000000
    28  H    0.000000   0.000000
    29  H   -0.000005   0.000005
    30  H    0.000035  -0.000054
    31  H   -0.000003  -0.000012
    32  H    0.000000   0.000001
    33  H    0.000000   0.000003
    34  H    0.000000   0.000000
    35  H    0.000000   0.000000
    36  H    0.000000   0.000006
    37  C    0.006381  -0.009204
    38  C   -0.038788  -0.041585
    39  C    0.393544   0.388980
    40  H   -0.000353   0.000267
    41  H    0.000103   0.004561
    42  H   -0.007891   0.006060
    43  H    0.454361  -0.033868
    44  H   -0.033868   0.462211
 Mulliken charges:
               1
     1  C   -0.032250
     2  C   -0.282089
     3  C    0.188816
     4  C   -0.626960
     5  C    0.483390
     6  H    0.247221
     7  H    0.243635
     8  H    0.288890
     9  H    0.272755
    10  O   -0.328852
    11  O   -0.384964
    12  C   -0.441773
    13  C   -0.663294
    14  C   -0.695057
    15  O   -0.629907
    16  Si   1.397317
    17  C   -1.038892
    18  C   -1.064478
    19  C   -1.068906
    20  H    0.245092
    21  H    0.250065
    22  H    0.241186
    23  H    0.245633
    24  H    0.248597
    25  H    0.242929
    26  H    0.239849
    27  H    0.240919
    28  H    0.231978
    29  H    0.239067
    30  H    0.242371
    31  H    0.260565
    32  H    0.228494
    33  H    0.243676
    34  H    0.228955
    35  H    0.240422
    36  H    0.221951
    37  C   -0.509672
    38  C   -0.175011
    39  C   -0.456423
    40  H    0.255142
    41  H    0.250964
    42  H    0.230100
    43  H    0.226627
    44  H    0.221920
 Sum of Mulliken charges =   0.00000
 Mulliken charges with hydrogens summed into heavy atoms:
               1
     1  C    0.214971
     2  C   -0.038454
     3  C    0.188816
     4  C   -0.065315
     5  C    0.483390
    10  O   -0.328852
    11  O   -0.384964
    12  C    0.030398
    13  C    0.028034
    14  C    0.046946
    15  O   -0.629907
    16  Si   1.397317
    17  C   -0.326145
    18  C   -0.328135
    19  C   -0.331747
    37  C   -0.003566
    38  C    0.055089
    39  C   -0.007876
 Electronic spatial extent (au):  <R**2>=           5725.4159
 Charge=              0.0000 electrons
 Dipole moment (field-independent basis, Debye):
    X=             -2.7074    Y=              3.5868    Z=              2.0659  Tot=              4.9460
 Quadrupole moment (field-independent basis, Debye-Ang):
   XX=           -117.8693   YY=           -128.7172   ZZ=           -121.3841
   XY=             12.7485   XZ=              7.5047   YZ=             -7.6966
 Traceless Quadrupole moment (field-independent basis, Debye-Ang):
   XX=              4.7876   YY=             -6.0603   ZZ=              1.2727
   XY=             12.7485   XZ=              7.5047   YZ=             -7.6966
 Octapole moment (field-independent basis, Debye-Ang**2):
  XXX=            -24.1397  YYY=             36.3827  ZZZ=              3.5601  XYY=            -23.1893
  XXY=             18.4643  XXZ=             18.8797  XZZ=              9.2854  YZZ=              3.9026
  YYZ=             25.3664  XYZ=            -20.7552
 Hexadecapole moment (field-independent basis, Debye-Ang**3):
 XXXX=          -4813.2570 YYYY=          -1804.0956 ZZZZ=          -1144.0101 XXXY=             70.1329
 XXXZ=             49.3775 YYYX=             45.2226 YYYZ=            -81.0600 ZZZX=              9.8454
 ZZZY=             11.4083 XXYY=          -1174.8046 XXZZ=          -1026.1857 YYZZ=           -509.6476
 XXYZ=            -21.5675 YYXZ=             20.8860 ZZXY=             33.4102
 N-N= 1.616328595950D+03 E-N=-5.727774671280D+03  KE= 1.060533289887D+03
 1\1\GINC-SWANNODE-0-15\SP\RmPW1PW91\6-311G(d)\C14H26O3Si1\KE291\06-Feb
 -2019\0\\# mPW1PW91/6-311g(d) geom=checkpoint nmr=giao scrf=(solvent=c
 hloroform)\\P_ng_2ginp007\\0,1\C,0,-0.2610198379,-0.0848231626,1.29254
 21509\C,0,-0.7926227514,1.190842595,0.6258742513\C,0,-1.9010861,1.8425
 642184,1.5025002324\C,0,-1.2098273098,2.2181073184,2.8254389398\C,0,-0
 .4229570308,1.0988463383,3.481609639\H,0,-1.0333324694,-0.8636641413,1
 .24633561\H,0,0.0232394881,1.9271288336,0.6145999276\H,0,-0.4996176121
 ,3.0300635464,2.6288636284\H,0,-1.9153997935,2.5861263474,3.5729661896
 \O,0,0.0298551626,0.0851816758,2.7175939018\O,0,-0.15289855,1.10234034
 69,4.6649945719\C,0,1.0281775998,-0.6278200287,0.6719591716\C,0,1.5281
 670555,-1.9208687731,1.3234915476\C,0,-1.1925347587,0.9354715155,-0.83
 55627182\O,0,-2.3123797591,3.0199851703,0.815558948\Si,0,-3.3125827834
 ,4.3434795123,1.1048727415\C,0,-2.7899561993,5.5812285525,-0.211769508
 9\C,0,-5.1334440633,3.9040578454,0.8743613084\C,0,-3.0737284151,5.0920
 485291,2.8213869356\H,0,-5.3228536717,3.4798872286,-0.1172235783\H,0,-
 5.4946733867,3.189328662,1.6206076524\H,0,-5.7431893642,4.8107105006,0
 .967047784\H,0,-3.4400152796,4.4407150501,3.6213749431\H,0,-2.02382397
 34,5.3244440228,3.0257271158\H,0,-3.637850831,6.0303711954,2.883179132
 9\H,0,-1.7424638482,5.8744734813,-0.0866324893\H,0,-2.9025397439,5.161
 2732082,-1.2167268777\H,0,-3.4018144453,6.488610494,-0.1576456253\H,0,
 -0.3065978693,0.7794859835,-1.4564296047\H,0,-1.8407425641,0.062195697
 9,-0.9386159521\H,0,-1.7239273783,1.8049388571,-1.2262966587\H,0,1.798
 4142394,0.1512843921,0.7354018583\H,0,0.8438709359,-0.8058584536,-0.39
 21864517\H,0,2.4429328667,-2.2682584832,0.8339511728\H,0,1.7441573308,
 -1.7714585592,2.383924589\H,0,0.7817451401,-2.7188838689,1.2404646532\
 C,0,-3.1190568261,0.9326019833,1.8227719795\C,0,-3.9413366045,0.440390
 4838,0.6630559931\C,0,-4.3744654202,-0.8139596891,0.5236724355\H,0,-3.
 7675588906,1.5244652626,2.4847062549\H,0,-2.7891903317,0.0776898556,2.
 4243935083\H,0,-4.2204970276,1.185872589,-0.0782347361\H,0,-4.99987239
 96,-1.1105072714,-0.3132144456\H,0,-4.1247485292,-1.5899128623,1.24409
 38782\\Version=EM64L-G09RevD.01\State=1-A\HF=-1064.3824372\RMSD=3.444e
 -09\Dipole=-0.8683673,0.4644104,-1.6783563\Quadrupole=2.4024031,7.2030
 548,-9.6054579,-0.2144099,-7.9773558,5.6568478\PG=C01 [X(C14H26O3Si1)]
 \\@


 IF IT'S NOT TRUE, IT'S WELL INVENTED -- DANTE
 Job cpu time:       0 days  0 hours 48 minutes 15.4 seconds.
 File lengths (MBytes):  RWF=    236 Int=      0 D2E=      0 Chk=     18 Scr=      1
 Normal termination of Gaussian 09 at Wed Feb  6 14:33:08 2019.
