 Entering Gaussian System, Link 0=/usr/local/Cluster-Apps/gaussian/g09/g09
 Initial command:
 /usr/local/Cluster-Apps/gaussian/g09/l1.exe "/home/ke291/rds/hpc-work/06Feb0927IP1/Gau-318848.inp" -scrdir="/home/ke291/rds/hpc-work/06Feb0927IP1/"
 Entering Link 1 = /usr/local/Cluster-Apps/gaussian/g09/l1.exe PID=    318853.
  
 Copyright (c) 1988,1990,1992,1993,1995,1998,2003,2009,2013,
            Gaussian, Inc.  All Rights Reserved.
  
 This is part of the Gaussian(R) 09 program.  It is based on
 the Gaussian(R) 03 system (copyright 2003, Gaussian, Inc.),
 the Gaussian(R) 98 system (copyright 1998, Gaussian, Inc.),
 the Gaussian(R) 94 system (copyright 1995, Gaussian, Inc.),
 the Gaussian 92(TM) system (copyright 1992, Gaussian, Inc.),
 the Gaussian 90(TM) system (copyright 1990, Gaussian, Inc.),
 the Gaussian 88(TM) system (copyright 1988, Gaussian, Inc.),
 the Gaussian 86(TM) system (copyright 1986, Carnegie Mellon
 University), and the Gaussian 82(TM) system (copyright 1983,
 Carnegie Mellon University). Gaussian is a federally registered
 trademark of Gaussian, Inc.
  
 This software contains proprietary and confidential information,
 including trade secrets, belonging to Gaussian, Inc.
  
 This software is provided under written license and may be
 used, copied, transmitted, or stored only in accord with that
 written license.
  
 The following legend is applicable only to US Government
 contracts under FAR:
  
                    RESTRICTED RIGHTS LEGEND
  
 Use, reproduction and disclosure by the US Government is
 subject to restrictions as set forth in subparagraphs (a)
 and (c) of the Commercial Computer Software - Restricted
 Rights clause in FAR 52.227-19.
  
 Gaussian, Inc.
 340 Quinnipiac St., Bldg. 40, Wallingford CT 06492
  
  
 ---------------------------------------------------------------
 Warning -- This program may not be used in any manner that
 competes with the business of Gaussian, Inc. or will provide
 assistance to any competitor of Gaussian, Inc.  The licensee
 of this program is prohibited from giving any competitor of
 Gaussian, Inc. access to this program.  By using this program,
 the user acknowledges that Gaussian, Inc. is engaged in the
 business of creating and licensing software in the field of
 computational chemistry and represents and warrants to the
 licensee that it is not a competitor of Gaussian, Inc. and that
 it will not use this program in any manner prohibited above.
 ---------------------------------------------------------------
  

 Cite this work as:
 Gaussian 09, Revision D.01,
 M. J. Frisch, G. W. Trucks, H. B. Schlegel, G. E. Scuseria, 
 M. A. Robb, J. R. Cheeseman, G. Scalmani, V. Barone, B. Mennucci, 
 G. A. Petersson, H. Nakatsuji, M. Caricato, X. Li, H. P. Hratchian, 
 A. F. Izmaylov, J. Bloino, G. Zheng, J. L. Sonnenberg, M. Hada, 
 M. Ehara, K. Toyota, R. Fukuda, J. Hasegawa, M. Ishida, T. Nakajima, 
 Y. Honda, O. Kitao, H. Nakai, T. Vreven, J. A. Montgomery, Jr., 
 J. E. Peralta, F. Ogliaro, M. Bearpark, J. J. Heyd, E. Brothers, 
 K. N. Kudin, V. N. Staroverov, T. Keith, R. Kobayashi, J. Normand, 
 K. Raghavachari, A. Rendell, J. C. Burant, S. S. Iyengar, J. Tomasi, 
 M. Cossi, N. Rega, J. M. Millam, M. Klene, J. E. Knox, J. B. Cross, 
 V. Bakken, C. Adamo, J. Jaramillo, R. Gomperts, R. E. Stratmann, 
 O. Yazyev, A. J. Austin, R. Cammi, C. Pomelli, J. W. Ochterski, 
 R. L. Martin, K. Morokuma, V. G. Zakrzewski, G. A. Voth, 
 P. Salvador, J. J. Dannenberg, S. Dapprich, A. D. Daniels, 
 O. Farkas, J. B. Foresman, J. V. Ortiz, J. Cioslowski, 
 and D. J. Fox, Gaussian, Inc., Wallingford CT, 2013.
 
 ******************************************
 Gaussian 09:  ES64L-G09RevD.01 24-Apr-2013
                 6-Feb-2019 
 ******************************************
 %nprocshared=2
 Will use up to    2 processors via shared memory.
 %mem=6000MB
 %chk=/home/ke291/rds/hpc-work/06Feb0927IP1/P_ng_3ginp009.chk
 ----------------------------------------------------------------------
 # mPW1PW91/6-311g(d) geom=checkpoint nmr=giao scrf=(solvent=chloroform
 )
 ----------------------------------------------------------------------
 1/29=2,38=1/1;
 2/12=2,40=1/2;
 3/5=4,6=6,7=1,11=2,14=-4,16=1,25=1,30=1,70=2201,72=7,74=-7/1,2,8,3;
 4//1;
 5/5=2,38=5,53=7/2;
 8/6=1,10=90,11=11/1;
 10/13=100,45=16/2;
 6/7=2,8=2,9=2,10=2,28=1/1;
 99/9=1/99;
 -------------
 P_ng_3ginp009
 -------------
 Structure from the checkpoint file:  "/home/ke291/rds/hpc-work/06Feb0927IP1/P_ng_3ginp009.chk"
 Charge =  0 Multiplicity = 1
 Redundant internal coordinates found in file.
 C,0,-0.7132292907,0.4837461311,-0.5545599238
 C,0,-0.813650585,-0.3931806785,0.7148084148
 C,0,-1.3466627398,0.3926440739,1.938211698
 C,0,-0.4231965786,1.6032384226,2.1362289407
 C,0,-0.1374629722,2.416765701,0.8926235211
 H,0,0.008545681,-0.0050609275,-1.2201976662
 H,0,0.2213025386,-0.6584172844,0.9668012388
 H,0,-0.8155684175,2.2853683776,2.8918405898
 H,0,0.5486845434,1.2512838549,2.5044605161
 O,0,-0.0978562555,1.7854769787,-0.2983290112
 O,0,0.1485641433,3.5963190914,0.9382742515
 C,0,-1.995183055,0.7329019982,-1.3592890328
 C,0,-1.7307890194,1.4590773563,-2.68242983
 C,0,-1.5718065076,-1.6965561601,0.4280209128
 O,0,-2.6672533262,0.8369056483,1.6270153915
 Si,0,-3.9587521661,1.495223493,2.4865018211
 C,0,-5.0589640709,2.2264349096,1.147463017
 C,0,-4.9055459818,0.1563056986,3.4214465072
 C,0,-3.4242443473,2.8519315948,3.6860102559
 H,0,-4.3262296188,-0.2732745919,4.2445549027
 H,0,-5.8221810111,0.5797109698,3.8487528286
 H,0,-5.1991693988,-0.6604627956,2.753346772
 H,0,-2.8751160469,3.6498318483,3.1752659612
 H,0,-4.3144978933,3.3032838452,4.1401090179
 H,0,-2.799185378,2.4775372471,4.5035592864
 H,0,-4.5447885527,3.0269682172,0.6056255671
 H,0,-5.3573937837,1.4653713906,0.4189573193
 H,0,-5.9717038811,2.6486732587,1.5826233747
 H,0,-1.4018144686,-2.433176245,1.2176249009
 H,0,-2.6477513705,-1.5224822271,0.3547360281
 H,0,-1.2324955138,-2.1460520093,-0.5108714946
 H,0,-2.6985091977,1.2972434025,-0.7435510697
 H,0,-2.4623194522,-0.235992719,-1.565200812
 H,0,-2.6642756319,1.6075738454,-3.2340697687
 H,0,-1.2784753802,2.4391992586,-2.5108819539
 H,0,-1.0527351158,0.8844527468,-3.324426079
 C,0,-1.3751305471,-0.4683674462,3.2336865132
 C,0,-0.0805674392,-1.1381027735,3.6103535123
 C,0,0.6546805966,-0.8245614287,4.679169505
 H,0,-2.1578133605,-1.2245937441,3.1050160022
 H,0,-1.6922008412,0.1822482525,4.0570978413
 H,0,0.2591277579,-1.944974666,2.9616144637
 H,0,1.5768491175,-1.3493247057,4.9104004985
 H,0,0.3567368183,-0.0354092099,5.3657352706
 Recover connectivity data from disk.
                          Input orientation:                          
 ---------------------------------------------------------------------
 Center     Atomic      Atomic             Coordinates (Angstroms)
 Number     Number       Type             X           Y           Z
 ---------------------------------------------------------------------
      1          6           0       -0.713229    0.483746   -0.554560
      2          6           0       -0.813651   -0.393181    0.714808
      3          6           0       -1.346663    0.392644    1.938212
      4          6           0       -0.423197    1.603238    2.136229
      5          6           0       -0.137463    2.416766    0.892624
      6          1           0        0.008546   -0.005061   -1.220198
      7          1           0        0.221303   -0.658417    0.966801
      8          1           0       -0.815568    2.285368    2.891841
      9          1           0        0.548685    1.251284    2.504461
     10          8           0       -0.097856    1.785477   -0.298329
     11          8           0        0.148564    3.596319    0.938274
     12          6           0       -1.995183    0.732902   -1.359289
     13          6           0       -1.730789    1.459077   -2.682430
     14          6           0       -1.571807   -1.696556    0.428021
     15          8           0       -2.667253    0.836906    1.627015
     16         14           0       -3.958752    1.495223    2.486502
     17          6           0       -5.058964    2.226435    1.147463
     18          6           0       -4.905546    0.156306    3.421447
     19          6           0       -3.424244    2.851932    3.686010
     20          1           0       -4.326230   -0.273275    4.244555
     21          1           0       -5.822181    0.579711    3.848753
     22          1           0       -5.199169   -0.660463    2.753347
     23          1           0       -2.875116    3.649832    3.175266
     24          1           0       -4.314498    3.303284    4.140109
     25          1           0       -2.799185    2.477537    4.503559
     26          1           0       -4.544789    3.026968    0.605626
     27          1           0       -5.357394    1.465371    0.418957
     28          1           0       -5.971704    2.648673    1.582623
     29          1           0       -1.401814   -2.433176    1.217625
     30          1           0       -2.647751   -1.522482    0.354736
     31          1           0       -1.232496   -2.146052   -0.510871
     32          1           0       -2.698509    1.297243   -0.743551
     33          1           0       -2.462319   -0.235993   -1.565201
     34          1           0       -2.664276    1.607574   -3.234070
     35          1           0       -1.278475    2.439199   -2.510882
     36          1           0       -1.052735    0.884453   -3.324426
     37          6           0       -1.375131   -0.468367    3.233687
     38          6           0       -0.080567   -1.138103    3.610354
     39          6           0        0.654681   -0.824561    4.679170
     40          1           0       -2.157813   -1.224594    3.105016
     41          1           0       -1.692201    0.182248    4.057098
     42          1           0        0.259128   -1.944975    2.961614
     43          1           0        1.576849   -1.349325    4.910400
     44          1           0        0.356737   -0.035409    5.365735
 ---------------------------------------------------------------------
                    Distance matrix (angstroms):
                    1          2          3          4          5
     1  C    0.000000
     2  C    1.546086   0.000000
     3  C    2.573606   1.548657   0.000000
     4  C    2.928776   2.481649   1.535428   0.000000
     5  C    2.482420   2.895625   2.579242   1.513283   0.000000
     6  H    1.096798   2.137964   3.459813   3.746816   3.217231
     7  H    2.119535   1.097715   2.122942   2.626409   3.096928
     8  H    3.890243   3.451680   2.184920   1.090966   2.115174
     9  H    3.396932   2.786230   2.156442   1.097278   2.104083
    10  O    1.462478   2.507062   2.915753   2.462951   1.348504
    11  O    3.557998   4.109976   3.674114   2.394656   1.214595
    12  C    1.533973   2.639311   3.377849   3.930302   3.370108
    13  C    2.552358   3.976585   4.757642   4.995003   4.029499
    14  C    2.540933   1.534873   2.587687   3.889206   4.380938
    15  O    2.949950   2.404387   1.427645   2.425357   3.071665
    16  Si   4.561202   4.073896   2.887787   3.554506   4.241691
    17  C    4.981893   5.007221   4.215359   4.780834   4.931769
    18  C    5.787172   4.936743   3.862835   4.882300   5.851431
    19  C    5.562404   5.116053   3.663228   3.601020   4.335356
    20  H    6.054614   4.981134   3.826289   4.816638   6.001460
    21  H    6.745351   5.987779   4.869849   5.755813   6.665545
    22  H    5.689914   4.843537   4.076185   5.321193   6.209066
    23  H    5.348781   5.162310   3.804700   3.358579   3.771691
    24  H    6.554300   6.136161   4.704064   4.695521   5.364671
    25  H    5.823314   5.151505   3.610763   3.466118   4.486348
    26  H    4.742874   5.062680   4.352408   4.621393   4.458613
    27  H    4.845574   4.918063   4.420955   5.226311   5.327024
    28  H    6.075032   6.050743   5.158209   5.673213   5.879477
    29  H    3.481842   2.181821   2.916770   4.253724   5.022564
    30  H    2.931578   2.183781   2.804984   4.229952   4.701972
    31  H    2.680930   2.179514   3.529309   4.660395   4.897775
    32  H    2.153795   2.921821   3.136501   3.682908   3.238727
    33  H    2.144466   2.818024   3.730117   4.608837   4.299184
    34  H    3.499906   4.798069   5.473998   5.819155   4.906034
    35  H    2.823207   4.317814   4.897701   4.798539   3.589744
    36  H    2.819218   4.243221   5.293735   5.543620   4.579215
    37  C    3.961748   2.581794   1.555765   2.530245   3.916170
    38  C    4.514107   3.078393   2.596583   3.131356   4.475085
    39  C    5.565498   4.249499   3.605525   3.677306   5.046942
    40  H    4.289259   2.865504   2.152872   3.456021   4.715506
    41  H    4.724053   3.503408   2.157161   2.705425   4.174228
    42  H    4.382653   2.933778   3.015025   3.706298   4.843840
    43  H    6.202451   4.922570   4.518327   4.518168   5.767567
    44  H    6.038563   4.809254   3.851327   3.704480   5.125049
                    6          7          8          9         10
     6  H    0.000000
     7  H    2.292401   0.000000
     8  H    4.778503   3.666981   0.000000
     9  H    3.967774   2.473567   1.755158   0.000000
    10  O    2.016727   2.770386   3.307897   2.925578   0.000000
    11  O    4.201017   4.255454   2.542551   2.848197   2.206595
    12  C    2.139828   3.501325   4.676938   4.654948   2.415243
    13  C    2.703166   4.648799   5.709017   5.669481   2.908082
    14  C    2.841706   2.140854   4.743208   4.183042   3.850282
    15  O    3.996928   3.318980   2.669563   3.359148   3.347916
    16  Si   5.632932   4.941712   3.266226   4.514069   4.769282
    17  C    6.022047   6.019653   4.588326   5.851332   5.186265
    18  C    6.761597   5.742267   4.641261   5.638127   6.293235
    19  C    6.634556   5.745142   2.785119   4.443230   5.298787
    20  H    6.980382   5.618901   4.549861   5.396017   6.538761
    21  H    7.748135   6.808987   5.375046   6.545690   7.170778
    22  H    6.583229   5.707299   5.283281   6.062553   6.427966
    23  H    6.402644   5.746837   2.486730   4.233843   4.822329
    24  H    7.639813   6.807235   3.851861   5.525993   6.307419
    25  H    6.841640   5.609476   2.563065   4.087582   5.552860
    26  H    5.767121   6.035573   4.436647   5.718575   4.704640
    27  H    5.800199   5.994369   5.236003   6.267130   5.317866
    28  H    7.117689   7.047653   5.332145   6.731861   6.227775
    29  H    3.718580   2.418097   5.040967   4.362985   4.668561
    30  H    3.440770   3.058219   4.928846   4.746820   4.227417
    31  H    2.574329   2.551490   5.602657   4.879213   4.097499
    32  H    3.041601   3.908352   4.211642   4.593034   2.683280
    33  H    2.505500   3.713664   5.379058   5.276389   3.358867
    34  H    3.714868   5.577508   6.434586   6.586409   3.903426
    35  H    3.049049   4.892734   5.424699   5.468392   2.591641
    36  H    2.518994   4.734792   6.376581   6.055991   3.298621
    37  C    4.686822   2.779116   2.830729   2.681424   4.380226
    38  C    4.962454   2.703626   3.574443   2.707051   4.881129
    39  C    5.990960   3.741270   3.876576   3.008277   5.670459
    40  H    4.988772   3.248494   3.763894   3.716957   4.988658
    41  H    5.547745   3.730703   2.559184   2.928325   4.907343
    42  H    4.616666   2.374014   4.365277   3.241744   4.966985
    43  H    6.469224   4.226918   4.796795   3.689015   6.305750
    44  H    6.595201   4.444896   3.588936   3.143138   5.966901
                   11         12         13         14         15
    11  O    0.000000
    12  C    4.251306   0.000000
    13  C    4.605352   1.532298   0.000000
    14  C    5.588789   3.045651   4.433757   0.000000
    15  O    4.002194   3.062762   4.453693   3.009322   0.000000
    16  Si   4.866380   4.384843   5.628764   4.485790   1.685250
    17  C    5.388756   4.230981   5.131634   5.297898   2.807319
    18  C    6.598778   5.626554   7.002400   4.848455   2.948415
    19  C    4.568274   5.655753   6.735344   5.893620   2.978729
    20  H    6.777096   6.152173   7.597399   4.917165   3.291841
    21  H    7.295246   6.464757   7.756876   5.911724   3.867277
    22  H    7.071982   5.396366   6.787472   4.431522   3.149815
    23  H    3.761600   5.463053   6.357790   6.150596   3.217583
    24  H    5.500594   6.498420   7.524871   6.804436   3.887425
    25  H    4.759428   6.169535   7.336019   5.961504   3.314149
    26  H    4.739449   3.952735   4.603062   5.584071   3.060188
    27  H    5.926736   3.873388   4.771887   4.932397   3.015167
    28  H    6.226628   5.304502   6.131164   6.290725   3.768802
    29  H    6.231896   4.125121   5.519809   1.093152   3.530208
    30  H    5.861913   2.906972   4.353722   1.092396   2.680632
    31  H    6.081297   3.096753   4.238033   1.094850   3.940448
    32  H    4.027420   1.091917   2.172999   3.406593   2.415051
    33  H    5.269793   1.095159   2.157916   2.626631   3.373923
    34  H    5.410696   2.174290   1.094420   5.051898   4.921797
    35  H    3.907947   2.179745   1.093003   5.082093   4.649542
    36  H    5.193068   2.184706   1.096408   4.583874   5.208234
    37  C    4.910422   4.787790   6.232333   3.069021   2.440228
    38  C    5.441255   5.644799   7.004834   3.558498   3.811198
    39  C    5.813315   6.775725   8.068371   4.877487   4.807428
    40  H    5.766745   4.877321   6.393666   2.780729   2.587237
    41  H    4.977083   5.452730   6.859520   4.088349   2.699001
    42  H    5.900175   5.560859   6.884953   3.135782   4.252496
    43  H    6.502090   7.510266   8.745208   5.488746   5.794189
    44  H    5.730200   7.165737   8.447734   5.555152   4.887072
                   16         17         18         19         20
    16  Si   0.000000
    17  C    1.881000   0.000000
    18  C    1.887655   3.078956   0.000000
    19  C    1.888167   3.083468   3.087175   0.000000
    20  H    2.520590   4.046903   1.094374   3.300373   0.000000
    21  H    2.483195   3.254407   1.096395   3.307502   1.766951
    22  H    2.501365   3.306463   1.095300   4.044395   1.770774
    23  H    2.508187   3.302610   4.048206   1.095010   4.317392
    24  H    2.475895   3.266460   3.281659   1.096575   3.578102
    25  H    2.525481   4.053768   3.315997   1.095106   3.156883
    26  H    2.495471   1.094905   4.037288   3.282534   4.917436
    27  H    2.496363   1.094988   3.306473   4.041442   4.326822
    28  H    2.489863   1.095785   3.275646   3.309849   4.281500
    29  H    4.855955   5.923820   4.882456   6.173776   4.730717
    30  H    3.920420   4.527333   4.161812   5.553001   4.416843
    31  H    5.447532   6.042398   5.852801   6.884578   5.974326
    32  H    3.472845   3.164029   4.849738   4.750238   5.476970
    33  H    4.653248   4.490508   5.566858   6.167317   6.101542
    34  H    5.866279   5.031436   7.171148   7.072021   7.888568
    35  H    5.748810   5.265059   7.318454   6.570856   7.891910
    36  H    6.525708   6.152120   7.802637   7.657757   8.327399
    37  C    3.330026   5.018458   3.590168   3.927830   3.125524
    38  C    4.820557   6.493872   4.999160   5.206369   4.379017
    39  C    5.610076   7.377484   5.784469   5.580376   5.030137
    40  H    3.320142   4.915108   3.091447   4.308069   2.627848
    41  H    3.054166   4.896914   3.275716   3.203887   2.679692
    42  H    5.463626   6.998136   5.594701   6.091165   5.046387
    43  H    6.679043   8.424949   6.819483   6.645346   6.037183
    44  H    5.408906   7.227695   5.613255   5.045199   4.821182
                   21         22         23         24         25
    21  H    0.000000
    22  H    1.768075   0.000000
    23  H    4.308645   4.915067   0.000000
    24  H    3.126635   4.291508   1.767155   0.000000
    25  H    3.628914   4.320904   1.773247   1.763555   0.000000
    26  H    4.258952   4.317183   3.127110   3.552739   4.306146
    27  H    3.572663   3.161262   4.304742   4.279313   4.924722
    28  H    3.072182   3.594132   3.623215   3.116982   4.315788
    29  H    5.961540   4.463279   6.557893   7.066230   6.071665
    30  H    5.167627   3.606403   5.895754   6.355715   5.765052
    31  H    6.892120   5.347579   7.062442   7.799078   6.998329
    32  H    5.600128   4.723792   4.574165   5.521391   5.379163
    33  H    6.423779   5.130339   6.143457   6.964740   6.656318
    34  H    7.822739   6.886133   6.730145   7.744493   7.787550
    35  H    8.034172   7.258915   6.028861   7.362048   7.177494
    36  H    8.619453   7.517912   7.294819   8.497595   8.177124
    37  C    4.610101   3.858873   4.383256   4.866912   3.509824
    38  C    5.997820   5.211783   5.560856   6.158955   4.611025
    39  C    6.679170   6.164680   5.894182   6.482471   4.781619
    40  H    4.151656   3.113159   4.927422   5.120975   4.009122
    41  H    4.154289   3.835200   3.768428   4.077278   2.587101
    42  H    6.644048   5.611270   6.416463   7.060532   5.593700
    43  H    7.719710   7.144357   6.915363   7.546395   5.827527
    44  H    6.392076   6.171172   5.368802   5.871070   4.125299
                   26         27         28         29         30
    26  H    0.000000
    27  H    1.770242   0.000000
    28  H    1.770231   1.769661   0.000000
    29  H    6.329771   5.610985   6.844144   0.000000
    30  H    4.935504   4.034050   5.473108   1.768134   0.000000
    31  H    6.243235   5.560733   7.059193   1.760343   1.772305
    32  H    2.867224   2.906778   4.236892   4.409496   3.026494
    33  H    4.438026   3.900382   5.526832   3.700865   2.318534
    34  H    4.504916   4.540673   5.934939   6.143212   4.762043
    35  H    4.552680   5.115650   6.231136   6.136532   5.077559
    36  H    5.677157   5.734150   7.168533   5.635490   4.676927
    37  C    5.401001   5.245995   5.794000   2.815260   3.319500
    38  C    6.804813   6.693877   7.290874   3.024576   4.163799
    39  C    7.646079   7.716103   8.096970   4.335793   5.485788
    40  H    5.479086   4.968716   5.644966   2.365259   2.809416
    41  H    5.304936   5.321288   5.524529   3.871353   4.186486
    42  H    7.304007   7.045628   7.862982   2.457350   3.927373
    43  H    8.669341   8.728075   9.167265   4.866597   6.215409
    44  H    7.487440   7.705468   7.846362   5.103784   6.028967
                   31         32         33         34         35
    31  H    0.000000
    32  H    3.749616   0.000000
    33  H    2.504477   1.755479   0.000000
    34  H    4.853402   2.510012   2.494924   0.000000
    35  H    5.002668   2.538507   3.074484   1.770605   0.000000
    36  H    4.139126   3.088670   2.517380   1.768652   1.769195
    37  C    4.105689   4.548311   4.925982   6.913993   6.439204
    38  C    4.396293   5.633917   5.768267   7.814117   7.190382
    39  C    5.678406   6.719512   7.003875   8.919087   8.129334
    40  H    3.844469   4.632870   4.783407   6.961443   6.762760
    41  H    5.147684   5.030119   5.690189   7.492503   6.957252
    42  H    3.784644   5.743505   5.551482   7.717084   7.178678
    43  H    6.157709   7.566385   7.712834   9.646905   8.808020
    44  H    6.443212   6.959445   7.484997   9.261887   8.416573
                   36         37         38         39         40
    36  H    0.000000
    37  C    6.703947   0.000000
    38  C    7.288828   1.505429   0.000000
    39  C    8.360236   2.517226   1.334641   0.000000
    40  H    6.856165   1.095914   2.139579   3.247785   0.000000
    41  H    7.442372   1.096285   2.130791   2.628401   1.761380
    42  H    7.017190   2.219277   1.089632   2.088488   2.526087
    43  H    8.928429   3.507369   2.117018   1.085928   4.150021
    44  H    8.851647   2.780728   2.118616   1.087614   3.584407
                   41         42         43         44
    41  H    0.000000
    42  H    3.087530   0.000000
    43  H    3.709519   2.426717   0.000000
    44  H    2.440912   3.071769   1.849967   0.000000
 Stoichiometry    C14H26O3Si
 Framework group  C1[X(C14H26O3Si)]
 Deg. of freedom   126
 Full point group                 C1      NOp   1
 Largest Abelian subgroup         C1      NOp   1
 Largest concise Abelian subgroup C1      NOp   1
                         Standard orientation:                         
 ---------------------------------------------------------------------
 Center     Atomic      Atomic             Coordinates (Angstroms)
 Number     Number       Type             X           Y           Z
 ---------------------------------------------------------------------
      1          6           0       -2.270076    0.471703   -0.508490
      2          6           0       -0.980353    1.190916   -0.966451
      3          6           0        0.257286    0.778432   -0.131918
      4          6           0       -0.075824    1.057927    1.340651
      5          6           0       -1.410637    0.529886    1.819683
      6          1           0       -3.112626    1.083097   -0.853848
      7          1           0       -1.144195    2.252478   -0.740132
      8          1           0        0.692227    0.661004    2.006051
      9          1           0       -0.098874    2.143466    1.499054
     10          8           0       -2.435053    0.471966    0.944652
     11          8           0       -1.618420    0.245000    2.981968
     12          6           0       -2.504585   -0.963563   -0.996435
     13          6           0       -3.892955   -1.494834   -0.624794
     14          6           0       -0.784662    1.062951   -2.483411
     15          8           0        0.463830   -0.621024   -0.324357
     16         14           0        1.695290   -1.721831    0.010007
     17          6           0        0.848348   -3.395284   -0.132848
     18          6           0        3.078975   -1.602310   -1.268419
     19          6           0        2.411869   -1.514157    1.744528
     20          1           0        3.636900   -0.663354   -1.199602
     21          1           0        3.792357   -2.421689   -1.120819
     22          1           0        2.685056   -1.686747   -2.286938
     23          1           0        1.635506   -1.583188    2.513645
     24          1           0        3.135633   -2.315813    1.934234
     25          1           0        2.939905   -0.564063    1.877776
     26          1           0        0.057765   -3.504460    0.616737
     27          1           0        0.395393   -3.528283   -1.120847
     28          1           0        1.567390   -4.208396    0.017382
     29          1           0       -0.055704    1.790708   -2.849432
     30          1           0       -0.431926    0.065602   -2.755808
     31          1           0       -1.723297    1.251556   -3.014532
     32          1           0       -1.723261   -1.609874   -0.591344
     33          1           0       -2.391847   -0.976161   -2.085703
     34          1           0       -4.028897   -2.514047   -0.999600
     35          1           0       -4.032049   -1.510596    0.459207
     36          1           0       -4.686613   -0.873200   -1.055825
     37          6           0        1.539540    1.558528   -0.541407
     38          6           0        1.428267    3.059838   -0.539628
     39          6           0        2.061772    3.868065    0.312843
     40          1           0        1.827036    1.211192   -1.540271
     41          1           0        2.341865    1.260124    0.143479
     42          1           0        0.792554    3.503726   -1.305219
     43          1           0        1.954262    4.947444    0.261647
     44          1           0        2.716730    3.478987    1.089087
 ---------------------------------------------------------------------
 Rotational constants (GHZ):      0.3876537      0.3381339      0.2678524
 Standard basis: 6-311G(d) (5D, 7F)
 There are   428 symmetry adapted cartesian basis functions of A   symmetry.
 There are   410 symmetry adapted basis functions of A   symmetry.
   410 basis functions,   720 primitive gaussians,   428 cartesian basis functions
    74 alpha electrons       74 beta electrons
       nuclear repulsion energy      1646.9420626603 Hartrees.
 NAtoms=   44 NActive=   44 NUniq=   44 SFac= 1.00D+00 NAtFMM=   60 NAOKFM=F Big=F
 Integral buffers will be    131072 words long.
 Raffenetti 2 integral format.
 Two-electron integral symmetry is turned on.
 ------------------------------------------------------------------------------
 Polarizable Continuum Model (PCM)
 =================================
 Model                : PCM (using non-symmetric T matrix).
 Atomic radii         : UFF (Universal Force Field).
 Polarization charges : Total charges.
 Charge compensation  : None.
 Solution method      : On-the-fly selection.
 Cavity type          : Scaled VdW (van der Waals Surface) (Alpha=1.100).
 Cavity algorithm     : GePol (No added spheres)
                        Default sphere list used, NSphG=   44.
                        Lebedev-Laikov grids with approx.  5.0 points / Ang**2.
                        Smoothing algorithm: Karplus/York (Gamma=1.0000).
                        Polarization charges: spherical gaussians, with
                                              point-specific exponents (IZeta= 3).
                        Self-potential: point-specific (ISelfS= 7).
                        Self-field    : sphere-specific E.n sum rule (ISelfD= 2).
 Solvent              : Chloroform, Eps=   4.711300 Eps(inf)=   2.090627
 ------------------------------------------------------------------------------
 One-electron integrals computed using PRISM.
 NBasis=   410 RedAO= T EigKep=  1.13D-03  NBF=   410
 NBsUse=   410 1.00D-06 EigRej= -1.00D+00 NBFU=   410
 ExpMin= 6.54D-02 ExpMax= 6.94D+04 ExpMxC= 2.33D+03 IAcc=2 IRadAn=         4 AccDes= 0.00D+00
 Harris functional with IExCor=  908 and IRadAn=       4 diagonalized for initial guess.
 HarFok:  IExCor=  908 AccDes= 0.00D+00 IRadAn=         4 IDoV= 1 UseB2=F ITyADJ=14
 ICtDFT=  3500011 ScaDFX=  1.000000  1.000000  1.000000  1.000000
 FoFCou: FMM=F IPFlag=           0 FMFlag=      100000 FMFlg1=           0
         NFxFlg=           0 DoJE=T BraDBF=F KetDBF=T FulRan=T
         wScrn=  0.000000 ICntrl=     500 IOpCl=  0 I1Cent=   200000004 NGrid=           0
         NMat0=    1 NMatS0=      1 NMatT0=    0 NMatD0=    1 NMtDS0=    0 NMtDT0=    0
 Petite list used in FoFCou.
 Requested convergence on RMS density matrix=1.00D-08 within 128 cycles.
 Requested convergence on MAX density matrix=1.00D-06.
 Requested convergence on             energy=1.00D-06.
 No special actions if energy rises.
 Inv3:  Mode=1 IEnd=    24865923.
 Iteration    1 A*A^-1 deviation from unit magnitude is 4.22D-15 for   1154.
 Iteration    1 A*A^-1 deviation from orthogonality  is 3.02D-15 for   2867     71.
 Iteration    1 A^-1*A deviation from unit magnitude is 4.00D-15 for   2860.
 Iteration    1 A^-1*A deviation from orthogonality  is 2.25D-12 for   2577   2572.
 Error on total polarization charges =  0.01117
 SCF Done:  E(RmPW1PW91) =  -1064.38320892     A.U. after   12 cycles
            NFock= 12  Conv=0.79D-08     -V/T= 2.0036
 DoSCS=F DFT=T ScalE2(SS,OS)=  1.000000  1.000000
 Range of M.O.s used for correlation:     1   410
 NBasis=   410 NAE=    74 NBE=    74 NFC=     0 NFV=     0
 NROrb=    410 NOA=    74 NOB=    74 NVA=   336 NVB=   336
 NEqPCM:  Using equilibrium solvation (IEInf=0, Eps=   4.7113, EpsInf=   2.0906)
          Differentiating once with respect to magnetic field using GIAOs.
          Electric field/nuclear overlap derivatives assumed to be zero.
 FoFJK:  IHMeth= 1 ICntrl=    6127 DoSepK=F KAlg= 0 I1Cent=   0 FoldK=F
 IRaf=         1 NMat=   1 IRICut=       1 DoRegI=T DoRafI=F ISym2E= 0.
          There are     3 degrees of freedom in the 1st order CPHF.  IDoFFX=0 NUNeed=     3.
      3 vectors produced by pass  0 Test12= 8.29D-13 3.33D-08 XBig12= 2.86D+01 9.54D-01.
 AX will form     3 AO Fock derivatives at one time.
      3 vectors produced by pass  1 Test12= 8.29D-13 3.33D-08 XBig12= 7.34D-02 1.22D-01.
      3 vectors produced by pass  2 Test12= 8.29D-13 3.33D-08 XBig12= 9.29D-04 1.34D-02.
      3 vectors produced by pass  3 Test12= 8.29D-13 3.33D-08 XBig12= 3.77D-06 2.74D-04.
      3 vectors produced by pass  4 Test12= 8.29D-13 3.33D-08 XBig12= 1.24D-08 1.81D-05.
      3 vectors produced by pass  5 Test12= 8.29D-13 3.33D-08 XBig12= 4.69D-11 9.15D-07.
      2 vectors produced by pass  6 Test12= 8.29D-13 3.33D-08 XBig12= 1.33D-13 5.83D-08.
 InvSVY:  IOpt=1 It=  1 EMax= 3.55D-15
 Solved reduced A of dimension    20 with     3 vectors.
 Calculating GIAO nuclear magnetic shielding tensors.
 SCF GIAO Magnetic shielding tensor (ppm):
      1  C    Isotropic =    98.0508   Anisotropy =    51.4969
   XX=    78.6241   YX=     9.2357   ZX=    -9.4151
   XY=     8.5684   YY=    83.3795   ZY=    -3.5237
   XZ=     2.9394   YZ=     7.2956   ZZ=   132.1487
   Eigenvalues:    71.5596    90.2106   132.3821
      2  C    Isotropic =   147.8358   Anisotropy =     7.7436
   XX=   149.2199   YX=    -2.2149   ZX=     3.3760
   XY=    -2.5413   YY=   147.2209   ZY=     8.5269
   XZ=     5.9805   YZ=    -1.0950   ZZ=   147.0666
   Eigenvalues:   140.4792   150.0300   152.9982
      3  C    Isotropic =   105.8143   Anisotropy =    54.5252
   XX=    91.4142   YX=    -5.4291   ZX=     3.1309
   XY=    -7.7894   YY=   141.0764   ZY=     3.9743
   XZ=     6.3915   YZ=     4.4503   ZZ=    84.9523
   Eigenvalues:    81.6313    93.6472   142.1644
      4  C    Isotropic =   144.5442   Anisotropy =    24.4296
   XX=   150.0692   YX=    -1.5556   ZX=   -10.0436
   XY=    -1.8177   YY=   131.0457   ZY=    -8.7068
   XZ=    -8.8084   YZ=     3.1697   ZZ=   152.5178
   Eigenvalues:   130.1897   142.6124   160.8306
      5  C    Isotropic =    11.8241   Anisotropy =    99.2589
   XX=   -58.3409   YX=   -29.1977   ZX=   -40.3409
   XY=   -24.9708   YY=    69.9745   ZY=     3.8943
   XZ=   -50.9185   YZ=    -1.7525   ZZ=    23.8388
   Eigenvalues:   -82.5577    40.0334    77.9967
      6  H    Isotropic =    27.6946   Anisotropy =     4.6704
   XX=    29.8101   YX=    -0.9630   ZX=     0.3211
   XY=    -2.0578   YY=    26.9688   ZY=    -0.8791
   XZ=     1.0834   YZ=    -1.9873   ZZ=    26.3050
   Eigenvalues:    25.1258    27.1499    30.8083
      7  H    Isotropic =    29.9993   Anisotropy =     6.5606
   XX=    29.1641   YX=    -0.4388   ZX=     0.8962
   XY=    -1.4143   YY=    34.2003   ZY=     0.4406
   XZ=     0.0325   YZ=     0.2165   ZZ=    26.6334
   Eigenvalues:    26.5191    29.1057    34.3730
      8  H    Isotropic =    29.7966   Anisotropy =     4.7336
   XX=    30.0620   YX=    -2.5279   ZX=     1.7056
   XY=    -2.5679   YY=    27.7827   ZY=    -0.5412
   XZ=     0.2643   YZ=    -1.2623   ZZ=    31.5450
   Eigenvalues:    26.1217    30.3158    32.9523
      9  H    Isotropic =    29.5278   Anisotropy =     5.6704
   XX=    27.3300   YX=     1.9464   ZX=    -1.8455
   XY=     1.6878   YY=    31.9637   ZY=     2.2909
   XZ=    -1.4576   YZ=     2.0725   ZZ=    29.2896
   Eigenvalues:    25.2964    29.9789    33.3081
     10  O    Isotropic =   100.5999   Anisotropy =   192.1711
   XX=   167.0502   YX=   -22.1491   ZX=    71.9652
   XY=   -35.6701   YY=   212.4181   ZY=    71.7423
   XZ=    80.5667   YZ=    47.9978   ZZ=   -77.6686
   Eigenvalues:  -112.7089   185.7947   228.7140
     11  O    Isotropic =  -113.2628   Anisotropy =   577.3833
   XX=  -204.0617   YX=  -106.9581   ZX=  -120.7345
   XY=  -116.6606   YY=   213.1947   ZY=   136.6581
   XZ=   -82.9734   YZ=    93.1122   ZZ=  -348.9214
   Eigenvalues:  -406.3584  -205.0894   271.6594
     12  C    Isotropic =   159.5773   Anisotropy =    13.3927
   XX=   157.8868   YX=     4.3845   ZX=     1.6276
   XY=    -0.0841   YY=   165.6328   ZY=     9.3844
   XZ=    -0.2042   YZ=     1.6919   ZZ=   155.2125
   Eigenvalues:   152.8105   157.4158   168.5058
     13  C    Isotropic =   174.8966   Anisotropy =    23.8087
   XX=   188.7966   YX=     6.3356   ZX=    -1.0334
   XY=     3.9238   YY=   175.2014   ZY=    -0.5233
   XZ=    -3.0344   YZ=    -4.6848   ZZ=   160.6918
   Eigenvalues:   160.1913   173.7295   190.7691
     14  C    Isotropic =   176.7252   Anisotropy =    12.9592
   XX=   173.8235   YX=     2.0057   ZX=    -1.2257
   XY=     1.8245   YY=   171.2812   ZY=    -1.0590
   XZ=    -1.4697   YZ=    -1.2350   ZZ=   185.0708
   Eigenvalues:   170.2439   174.5669   185.3647
     15  O    Isotropic =   245.9445   Anisotropy =    40.9349
   XX=   252.1478   YX=    28.4369   ZX=     0.8940
   XY=    25.5523   YY=   238.6666   ZY=    -2.1910
   XZ=     2.5951   YZ=    -3.2983   ZZ=   247.0191
   Eigenvalues:   217.2319   247.3670   273.2344
     16  Si   Isotropic =   332.3095   Anisotropy =    43.0009
   XX=   338.4822   YX=    -8.5226   ZX=     7.5330
   XY=   -25.9703   YY=   343.2242   ZY=   -12.8310
   XZ=     5.4654   YZ=    -5.3993   ZZ=   315.2222
   Eigenvalues:   312.4072   323.5447   360.9768
     17  C    Isotropic =   186.8390   Anisotropy =    11.1486
   XX=   189.9460   YX=     1.7988   ZX=     1.7839
   XY=     2.7449   YY=   192.9977   ZY=     0.0860
   XZ=     2.1509   YZ=     0.1026   ZZ=   177.5733
   Eigenvalues:   177.2638   188.9818   194.2714
     18  C    Isotropic =   184.8576   Anisotropy =    12.6321
   XX=   187.4202   YX=    -2.7110   ZX=    -7.4894
   XY=    -3.6666   YY=   182.1279   ZY=    -2.5021
   XZ=    -6.3761   YZ=    -3.6608   ZZ=   185.0247
   Eigenvalues:   176.0037   185.2901   193.2790
     19  C    Isotropic =   185.6975   Anisotropy =     8.8233
   XX=   183.8310   YX=    -4.0678   ZX=     4.0648
   XY=    -4.0779   YY=   183.0892   ZY=     0.8605
   XZ=     2.5062   YZ=     3.1960   ZZ=   190.1723
   Eigenvalues:   178.2065   187.3064   191.5797
     20  H    Isotropic =    31.9206   Anisotropy =     6.6756
   XX=    33.0194   YX=     2.8484   ZX=    -1.5211
   XY=     2.1786   YY=    34.3362   ZY=     0.4582
   XZ=    -1.6904   YZ=    -0.1272   ZZ=    28.4062
   Eigenvalues:    27.7549    31.6358    36.3710
     21  H    Isotropic =    32.2493   Anisotropy =    10.4038
   XX=    34.6943   YX=    -5.0733   ZX=    -1.0373
   XY=    -5.2062   YY=    33.1865   ZY=     0.0438
   XZ=    -0.8716   YZ=    -0.0603   ZZ=    28.8670
   Eigenvalues:    28.1516    29.4111    39.1851
     22  H    Isotropic =    31.8997   Anisotropy =     7.7776
   XX=    30.0374   YX=    -0.7305   ZX=    -0.0226
   XY=    -0.8347   YY=    28.7336   ZY=     1.0300
   XZ=     1.0527   YZ=     1.0677   ZZ=    36.9282
   Eigenvalues:    28.2104    30.4040    37.0848
     23  H    Isotropic =    31.7882   Anisotropy =     7.4474
   XX=    31.7270   YX=    -0.5744   ZX=    -2.5080
   XY=    -1.1075   YY=    28.6829   ZY=    -1.1031
   XZ=    -3.4499   YZ=    -0.9154   ZZ=    34.9546
   Eigenvalues:    27.9099    30.7015    36.7531
     24  H    Isotropic =    32.1561   Anisotropy =    10.5707
   XX=    33.1355   YX=    -4.6814   ZX=     3.1345
   XY=    -4.8819   YY=    32.8438   ZY=    -2.2376
   XZ=     2.7866   YZ=    -1.7767   ZZ=    30.4891
   Eigenvalues:    27.9134    29.3517    39.2032
     25  H    Isotropic =    31.8219   Anisotropy =     6.9451
   XX=    31.2602   YX=     2.7768   ZX=     2.6083
   XY=     2.2259   YY=    34.1661   ZY=     0.5833
   XZ=     2.6265   YZ=     1.5869   ZZ=    30.0393
   Eigenvalues:    27.8634    31.1503    36.4519
     26  H    Isotropic =    31.9425   Anisotropy =     7.4505
   XX=    33.5667   YX=     1.1891   ZX=    -3.9583
   XY=     1.7065   YY=    31.5101   ZY=    -1.6816
   XZ=    -3.4641   YZ=    -1.3418   ZZ=    30.7508
   Eigenvalues:    28.1272    30.7908    36.9095
     27  H    Isotropic =    31.9189   Anisotropy =     7.6240
   XX=    30.5851   YX=     0.6450   ZX=     3.7497
   XY=     0.9229   YY=    31.5092   ZY=     2.6386
   XZ=     3.3064   YZ=     1.9954   ZZ=    33.6622
   Eigenvalues:    28.1333    30.6218    37.0015
     28  H    Isotropic =    32.3545   Anisotropy =    10.6241
   XX=    31.7323   YX=    -4.2489   ZX=     0.7180
   XY=    -3.9312   YY=    37.1343   ZY=    -0.7747
   XZ=     0.7330   YZ=    -0.8822   ZZ=    28.1969
   Eigenvalues:    28.0537    29.5726    39.4372
     29  H    Isotropic =    30.9087   Anisotropy =     9.0130
   XX=    29.9978   YX=     3.8065   ZX=    -0.9526
   XY=     3.6378   YY=    30.1517   ZY=    -3.8283
   XZ=    -1.4174   YZ=    -3.7761   ZZ=    32.5767
   Eigenvalues:    25.7296    30.0792    36.9174
     30  H    Isotropic =    30.8668   Anisotropy =     5.5508
   XX=    28.4163   YX=    -1.9031   ZX=    -0.1594
   XY=    -2.0339   YY=    32.1166   ZY=     1.8985
   XZ=    -0.6261   YZ=     2.0956   ZZ=    32.0674
   Eigenvalues:    27.5161    30.5169    34.5673
     31  H    Isotropic =    31.3614   Anisotropy =    10.4147
   XX=    32.6137   YX=    -0.7325   ZX=     4.3704
   XY=    -0.7379   YY=    27.4346   ZY=    -2.5789
   XZ=     4.2931   YZ=    -2.7728   ZZ=    34.0358
   Eigenvalues:    26.3474    29.4322    38.3045
     32  H    Isotropic =    29.9035   Anisotropy =    10.4947
   XX=    36.3341   YX=    -1.1413   ZX=     2.2104
   XY=    -1.0208   YY=    30.6863   ZY=    -0.7677
   XZ=     2.1551   YZ=    -0.6937   ZZ=    22.6900
   Eigenvalues:    22.3121    30.4984    36.9000
     33  H    Isotropic =    30.5426   Anisotropy =     4.9053
   XX=    30.3951   YX=     3.9675   ZX=    -1.1472
   XY=     4.1036   YY=    28.0110   ZY=     1.3483
   XZ=    -1.3883   YZ=     0.9377   ZZ=    33.2217
   Eigenvalues:    24.6669    33.1481    33.8128
     34  H    Isotropic =    31.0438   Anisotropy =    10.6044
   XX=    31.0860   YX=     4.1560   ZX=     0.5999
   XY=     3.7139   YY=    35.3276   ZY=     2.6922
   XZ=     0.3095   YZ=     1.9447   ZZ=    26.7178
   Eigenvalues:    26.0548    28.9632    38.1134
     35  H    Isotropic =    30.5837   Anisotropy =     7.5971
   XX=    30.8926   YX=     2.8566   ZX=    -2.8164
   XY=     3.5923   YY=    27.3264   ZY=    -0.7990
   XZ=    -1.8905   YZ=    -0.8430   ZZ=    33.5321
   Eigenvalues:    25.3924    30.7103    35.6485
     36  H    Isotropic =    31.3382   Anisotropy =    10.2469
   XX=    37.0790   YX=    -1.8269   ZX=     2.8735
   XY=    -0.9322   YY=    28.7771   ZY=    -1.5283
   XZ=     2.6530   YZ=    -1.0724   ZZ=    28.1584
   Eigenvalues:    26.9008    28.9443    38.1694
     37  C    Isotropic =   139.9107   Anisotropy =    32.4116
   XX=   142.6919   YX=     7.5081   ZX=    -4.8180
   XY=     3.5053   YY=   158.7787   ZY=    -6.2752
   XZ=    -9.7295   YZ=    -2.9851   ZZ=   118.2615
   Eigenvalues:   116.0412   142.1725   161.5184
     38  C    Isotropic =    46.6695   Anisotropy =   173.1795
   XX=    93.7377   YX=    45.6649   ZX=   -83.9716
   XY=    49.7530   YY=   -15.3291   ZY=    45.6704
   XZ=   -80.8178   YZ=    42.4710   ZZ=    61.5998
   Eigenvalues:   -75.4875    53.3735   162.1225
     39  C    Isotropic =    63.0788   Anisotropy =   142.5882
   XX=   105.7801   YX=    46.2057   ZX=   -61.2788
   XY=    47.2342   YY=    -1.2567   ZY=    44.9832
   XZ=   -61.9870   YZ=    44.7360   ZZ=    84.7130
   Eigenvalues:   -51.0229    82.1217   158.1376
     40  H    Isotropic =    29.3639   Anisotropy =     2.5338
   XX=    29.3716   YX=    -1.0044   ZX=    -2.4748
   XY=     0.2468   YY=    29.4811   ZY=    -0.0752
   XZ=    -0.8602   YZ=     0.3009   ZZ=    29.2391
   Eigenvalues:    27.6185    29.4201    31.0531
     41  H    Isotropic =    30.0131   Anisotropy =     3.5295
   XX=    31.8767   YX=     0.2076   ZX=     2.2376
   XY=    -0.0606   YY=    32.1253   ZY=    -1.3920
   XZ=     1.0937   YZ=     0.1128   ZZ=    26.0373
   Eigenvalues:    25.5340    32.1392    32.3661
     42  H    Isotropic =    26.0239   Anisotropy =     7.5214
   XX=    24.2347   YX=     2.8281   ZX=     0.2940
   XY=     3.6841   YY=    29.3874   ZY=     0.9825
   XZ=     0.4348   YZ=     0.2271   ZZ=    24.4496
   Eigenvalues:    22.6565    24.3769    31.0381
     43  H    Isotropic =    26.7393   Anisotropy =     6.5599
   XX=    25.8109   YX=     3.2361   ZX=     0.4381
   XY=     1.9942   YY=    28.6371   ZY=     1.4707
   XZ=     0.4091   YZ=     3.1286   ZZ=    25.7697
   Eigenvalues:    23.7373    25.3680    31.1125
     44  H    Isotropic =    26.7494   Anisotropy =     7.3422
   XX=    27.0274   YX=     2.5730   ZX=     0.9248
   XY=     4.2550   YY=    27.0457   ZY=     3.6948
   XZ=     1.0181   YZ=     1.4772   ZZ=    26.1750
   Eigenvalues:    23.0512    25.5527    31.6442
 End of Minotr F.D. properties file   721 does not exist.
 End of Minotr F.D. properties file   722 does not exist.
 End of Minotr F.D. properties file   788 does not exist.

 **********************************************************************

            Population analysis using the SCF density.

 **********************************************************************

 Orbital symmetries:
       Occupied  (A) (A) (A) (A) (A) (A) (A) (A) (A) (A) (A) (A)
                 (A) (A) (A) (A) (A) (A) (A) (A) (A) (A) (A) (A)
                 (A) (A) (A) (A) (A) (A) (A) (A) (A) (A) (A) (A)
                 (A) (A) (A) (A) (A) (A) (A) (A) (A) (A) (A) (A)
                 (A) (A) (A) (A) (A) (A) (A) (A) (A) (A) (A) (A)
                 (A) (A) (A) (A) (A) (A) (A) (A) (A) (A) (A) (A)
                 (A) (A)
       Virtual   (A) (A) (A) (A) (A) (A) (A) (A) (A) (A) (A) (A)
                 (A) (A) (A) (A) (A) (A) (A) (A) (A) (A) (A) (A)
                 (A) (A) (A) (A) (A) (A) (A) (A) (A) (A) (A) (A)
                 (A) (A) (A) (A) (A) (A) (A) (A) (A) (A) (A) (A)
                 (A) (A) (A) (A) (A) (A) (A) (A) (A) (A) (A) (A)
                 (A) (A) (A) (A) (A) (A) (A) (A) (A) (A) (A) (A)
                 (A) (A) (A) (A) (A) (A) (A) (A) (A) (A) (A) (A)
                 (A) (A) (A) (A) (A) (A) (A) (A) (A) (A) (A) (A)
                 (A) (A) (A) (A) (A) (A) (A) (A) (A) (A) (A) (A)
                 (A) (A) (A) (A) (A) (A) (A) (A) (A) (A) (A) (A)
                 (A) (A) (A) (A) (A) (A) (A) (A) (A) (A) (A) (A)
                 (A) (A) (A) (A) (A) (A) (A) (A) (A) (A) (A) (A)
                 (A) (A) (A) (A) (A) (A) (A) (A) (A) (A) (A) (A)
                 (A) (A) (A) (A) (A) (A) (A) (A) (A) (A) (A) (A)
                 (A) (A) (A) (A) (A) (A) (A) (A) (A) (A) (A) (A)
                 (A) (A) (A) (A) (A) (A) (A) (A) (A) (A) (A) (A)
                 (A) (A) (A) (A) (A) (A) (A) (A) (A) (A) (A) (A)
                 (A) (A) (A) (A) (A) (A) (A) (A) (A) (A) (A) (A)
                 (A) (A) (A) (A) (A) (A) (A) (A) (A) (A) (A) (A)
                 (A) (A) (A) (A) (A) (A) (A) (A) (A) (A) (A) (A)
                 (A) (A) (A) (A) (A) (A) (A) (A) (A) (A) (A) (A)
                 (A) (A) (A) (A) (A) (A) (A) (A) (A) (A) (A) (A)
                 (A) (A) (A) (A) (A) (A) (A) (A) (A) (A) (A) (A)
                 (A) (A) (A) (A) (A) (A) (A) (A) (A) (A) (A) (A)
                 (A) (A) (A) (A) (A) (A) (A) (A) (A) (A) (A) (A)
                 (A) (A) (A) (A) (A) (A) (A) (A) (A) (A) (A) (A)
                 (A) (A) (A) (A) (A) (A) (A) (A) (A) (A) (A) (A)
                 (A) (A) (A) (A) (A) (A) (A) (A) (A) (A) (A) (A)
 The electronic state is 1-A.
 Alpha  occ. eigenvalues --  -66.27405 -19.25303 -19.20651 -19.19164 -10.36478
 Alpha  occ. eigenvalues --  -10.31667 -10.30151 -10.25316 -10.24796 -10.24623
 Alpha  occ. eigenvalues --  -10.24522 -10.23439 -10.22878 -10.22752 -10.21617
 Alpha  occ. eigenvalues --  -10.20983 -10.20801 -10.20598  -5.33135  -3.67023
 Alpha  occ. eigenvalues --   -3.66729  -3.66713  -1.12668  -1.04391  -1.03842
 Alpha  occ. eigenvalues --   -0.85821  -0.82987  -0.80413  -0.77518  -0.73825
 Alpha  occ. eigenvalues --   -0.73076  -0.71737  -0.70314  -0.70083  -0.66480
 Alpha  occ. eigenvalues --   -0.63485  -0.62277  -0.58276  -0.55993  -0.53644
 Alpha  occ. eigenvalues --   -0.51395  -0.49623  -0.49072  -0.48302  -0.47646
 Alpha  occ. eigenvalues --   -0.46167  -0.45358  -0.44699  -0.44210  -0.43091
 Alpha  occ. eigenvalues --   -0.42533  -0.42360  -0.42257  -0.41593  -0.41169
 Alpha  occ. eigenvalues --   -0.41048  -0.40285  -0.39949  -0.39631  -0.38810
 Alpha  occ. eigenvalues --   -0.38673  -0.37989  -0.37446  -0.36286  -0.35596
 Alpha  occ. eigenvalues --   -0.35104  -0.34046  -0.33246  -0.32124  -0.30365
 Alpha  occ. eigenvalues --   -0.29992  -0.29058  -0.28808  -0.27020
 Alpha virt. eigenvalues --    0.00155   0.01364   0.03985   0.04996   0.06332
 Alpha virt. eigenvalues --    0.06653   0.07183   0.08024   0.08769   0.09139
 Alpha virt. eigenvalues --    0.09555   0.09715   0.10600   0.11332   0.11814
 Alpha virt. eigenvalues --    0.12184   0.12613   0.13448   0.13569   0.13845
 Alpha virt. eigenvalues --    0.14294   0.14425   0.14698   0.15011   0.15399
 Alpha virt. eigenvalues --    0.16010   0.16493   0.16897   0.17547   0.18036
 Alpha virt. eigenvalues --    0.18337   0.19174   0.19691   0.20170   0.21508
 Alpha virt. eigenvalues --    0.22336   0.22379   0.23599   0.24315   0.24995
 Alpha virt. eigenvalues --    0.25641   0.25971   0.26575   0.26662   0.28792
 Alpha virt. eigenvalues --    0.29178   0.30454   0.31395   0.32018   0.32336
 Alpha virt. eigenvalues --    0.33491   0.33640   0.35199   0.35717   0.36922
 Alpha virt. eigenvalues --    0.37359   0.37955   0.38443   0.39428   0.40265
 Alpha virt. eigenvalues --    0.41131   0.42585   0.42857   0.44306   0.45213
 Alpha virt. eigenvalues --    0.45885   0.46541   0.46872   0.47687   0.49455
 Alpha virt. eigenvalues --    0.50115   0.50879   0.51466   0.51855   0.52538
 Alpha virt. eigenvalues --    0.53360   0.54100   0.54744   0.54991   0.55549
 Alpha virt. eigenvalues --    0.56733   0.57227   0.57863   0.58701   0.59355
 Alpha virt. eigenvalues --    0.59563   0.59624   0.59843   0.60941   0.61341
 Alpha virt. eigenvalues --    0.61592   0.62149   0.62283   0.62822   0.63098
 Alpha virt. eigenvalues --    0.63479   0.64175   0.64904   0.65161   0.66041
 Alpha virt. eigenvalues --    0.66701   0.66743   0.67407   0.67603   0.68438
 Alpha virt. eigenvalues --    0.68719   0.69243   0.69792   0.71106   0.71894
 Alpha virt. eigenvalues --    0.72490   0.73104   0.73821   0.74740   0.75032
 Alpha virt. eigenvalues --    0.75310   0.77128   0.79422   0.81209   0.81970
 Alpha virt. eigenvalues --    0.84676   0.84747   0.85472   0.87028   0.88478
 Alpha virt. eigenvalues --    0.89297   0.89716   0.91883   0.92983   0.93581
 Alpha virt. eigenvalues --    0.95235   0.96197   0.97461   0.98222   1.00877
 Alpha virt. eigenvalues --    1.03130   1.04103   1.05770   1.06581   1.07914
 Alpha virt. eigenvalues --    1.08771   1.12290   1.17242   1.18350   1.20800
 Alpha virt. eigenvalues --    1.21971   1.23240   1.26629   1.27489   1.27965
 Alpha virt. eigenvalues --    1.28855   1.30209   1.31034   1.32072   1.33718
 Alpha virt. eigenvalues --    1.35355   1.38425   1.38718   1.40782   1.42114
 Alpha virt. eigenvalues --    1.43083   1.44032   1.45150   1.46869   1.49289
 Alpha virt. eigenvalues --    1.50024   1.50957   1.52617   1.53357   1.54215
 Alpha virt. eigenvalues --    1.54758   1.55213   1.56548   1.57989   1.58724
 Alpha virt. eigenvalues --    1.59420   1.59573   1.60258   1.60608   1.61311
 Alpha virt. eigenvalues --    1.61584   1.62168   1.62688   1.63423   1.64816
 Alpha virt. eigenvalues --    1.65217   1.66216   1.67283   1.68179   1.68546
 Alpha virt. eigenvalues --    1.69537   1.71197   1.73051   1.73529   1.74275
 Alpha virt. eigenvalues --    1.75628   1.76507   1.77589   1.80859   1.80993
 Alpha virt. eigenvalues --    1.81818   1.82384   1.84534   1.85977   1.86357
 Alpha virt. eigenvalues --    1.89011   1.90515   1.92816   1.94643   1.95903
 Alpha virt. eigenvalues --    1.98173   2.01789   2.06464   2.08902   2.14371
 Alpha virt. eigenvalues --    2.17626   2.18779   2.20142   2.22729   2.24222
 Alpha virt. eigenvalues --    2.27761   2.31778   2.34387   2.35206   2.41142
 Alpha virt. eigenvalues --    2.41556   2.42436   2.42479   2.43232   2.43641
 Alpha virt. eigenvalues --    2.44208   2.44655   2.45927   2.47159   2.48038
 Alpha virt. eigenvalues --    2.48168   2.48441   2.49672   2.51631   2.53007
 Alpha virt. eigenvalues --    2.54729   2.55139   2.56490   2.58151   2.59303
 Alpha virt. eigenvalues --    2.60705   2.64417   2.67188   2.70909   2.80598
 Alpha virt. eigenvalues --    2.83474   2.86578   2.87813   2.89283   2.89951
 Alpha virt. eigenvalues --    2.91414   2.92412   2.94406   2.95089   2.97891
 Alpha virt. eigenvalues --    2.99288   3.00831   3.03094   3.06098   3.06718
 Alpha virt. eigenvalues --    3.09976   3.11919   3.13085   3.14001   3.15820
 Alpha virt. eigenvalues --    3.16264   3.17895   3.19196   3.20851   3.21674
 Alpha virt. eigenvalues --    3.22408   3.22522   3.24002   3.24995   3.25188
 Alpha virt. eigenvalues --    3.25929   3.26639   3.28829   3.29623   3.33636
 Alpha virt. eigenvalues --    3.34263   3.35141   3.36903   3.37726   3.41815
 Alpha virt. eigenvalues --    3.43137   3.51495   3.57034   3.59318   3.61329
 Alpha virt. eigenvalues --    3.78746   3.89227   3.89871   3.97699   4.02246
 Alpha virt. eigenvalues --    4.12758   4.14373   4.16944   4.22155   4.23165
 Alpha virt. eigenvalues --    4.95218   5.02092   5.02692   5.11813   5.18708
 Alpha virt. eigenvalues --    5.24916   5.53436   5.55878   5.76486   5.84925
 Alpha virt. eigenvalues --   11.53149  11.54948  11.56607  23.40734  23.49328
 Alpha virt. eigenvalues --   23.54083  23.54353  23.57297  23.60872  23.72307
 Alpha virt. eigenvalues --   23.73136  23.78310  23.80860  23.84372  23.85854
 Alpha virt. eigenvalues --   23.88676  24.28675  49.98154  50.06295  50.13006
 Alpha virt. eigenvalues --  141.28247
          Condensed to atoms (all electrons):
               1          2          3          4          5          6
     1  C    5.111434   0.348533  -0.058826  -0.008903  -0.044109   0.405048
     2  C    0.348533   5.551966   0.239526  -0.102690  -0.019157  -0.045451
     3  C   -0.058826   0.239526   5.251313   0.220649  -0.017968   0.009511
     4  C   -0.008903  -0.102690   0.220649   5.833704   0.259540  -0.002462
     5  C   -0.044109  -0.019157  -0.017968   0.259540   4.365279   0.002343
     6  H    0.405048  -0.045451   0.009511  -0.002462   0.002343   0.479063
     7  H   -0.053710   0.408755  -0.051789   0.004459  -0.000437  -0.011373
     8  H   -0.000819   0.007068  -0.026475   0.364584  -0.028029   0.000056
     9  H    0.001165  -0.001208  -0.030465   0.356729  -0.024456   0.000091
    10  O    0.214802  -0.034035   0.011207  -0.105655   0.344145  -0.027336
    11  O    0.002855  -0.000028   0.003454  -0.094088   0.669155  -0.000270
    12  C    0.306549  -0.060147  -0.014601   0.003285  -0.004420  -0.055854
    13  C   -0.074819   0.007849  -0.000323   0.000174   0.000090  -0.006338
    14  C   -0.056093   0.286240  -0.068877   0.007899  -0.000045  -0.002608
    15  O    0.002491  -0.069646   0.207519  -0.060201   0.006046  -0.000292
    16  Si   0.000411   0.002931  -0.044996  -0.016186   0.000611  -0.000060
    17  C   -0.000072   0.000142   0.002549  -0.000259  -0.000005  -0.000001
    18  C    0.000032  -0.000235   0.000518  -0.000343   0.000010   0.000000
    19  C   -0.000022  -0.000301  -0.000062   0.000159   0.000186  -0.000001
    20  H    0.000002  -0.000017   0.000299  -0.000065   0.000002   0.000000
    21  H   -0.000001   0.000009  -0.000077   0.000005   0.000000   0.000000
    22  H    0.000008   0.000032   0.000504  -0.000043   0.000002   0.000000
    23  H   -0.000016  -0.000062  -0.000168  -0.001119   0.000793   0.000000
    24  H    0.000000   0.000007  -0.000045   0.000270  -0.000030   0.000000
    25  H   -0.000001  -0.000054   0.000448   0.000283   0.000002   0.000000
    26  H   -0.000044   0.000017   0.000023   0.000082   0.000063   0.000002
    27  H   -0.000030   0.000099  -0.000075  -0.000030  -0.000001   0.000003
    28  H   -0.000002   0.000000  -0.000059   0.000002  -0.000001   0.000000
    29  H    0.005665  -0.029090  -0.006417  -0.000276  -0.000051  -0.000333
    30  H   -0.006485  -0.039429  -0.005631   0.000597  -0.000037  -0.000544
    31  H   -0.001799  -0.044997   0.007356  -0.000412   0.000040   0.004263
    32  H   -0.035975  -0.006126   0.004100  -0.002183   0.001698   0.006869
    33  H   -0.036218  -0.008938   0.001243  -0.000275   0.000208  -0.000051
    34  H    0.007742  -0.000221  -0.000005   0.000008  -0.000029  -0.000169
    35  H   -0.011456   0.000229  -0.000040   0.000508   0.001507  -0.000295
    36  H   -0.003549  -0.000144   0.000034  -0.000020  -0.000058   0.005797
    37  C    0.007901  -0.082307   0.344334  -0.083501   0.003445  -0.000126
    38  C   -0.000010  -0.005424  -0.061861  -0.005082  -0.000153  -0.000037
    39  C   -0.000019  -0.000239  -0.003188  -0.001629   0.000018  -0.000001
    40  H   -0.000210  -0.011092  -0.046194   0.007205  -0.000135  -0.000016
    41  H   -0.000155   0.007218  -0.032855  -0.008740   0.000187   0.000014
    42  H    0.000352   0.001881  -0.003689   0.000321   0.000018   0.000023
    43  H   -0.000003   0.000029  -0.000212   0.000027  -0.000001   0.000000
    44  H    0.000001   0.000070  -0.000381   0.000383   0.000000   0.000000
               7          8          9         10         11         12
     1  C   -0.053710  -0.000819   0.001165   0.214802   0.002855   0.306549
     2  C    0.408755   0.007068  -0.001208  -0.034035  -0.000028  -0.060147
     3  C   -0.051789  -0.026475  -0.030465   0.011207   0.003454  -0.014601
     4  C    0.004459   0.364584   0.356729  -0.105655  -0.094088   0.003285
     5  C   -0.000437  -0.028029  -0.024456   0.344145   0.669155  -0.004420
     6  H   -0.011373   0.000056   0.000091  -0.027336  -0.000270  -0.055854
     7  H    0.477089   0.000359   0.000758   0.002500  -0.000055   0.009090
     8  H    0.000359   0.418832  -0.015147   0.004587   0.010260   0.000149
     9  H    0.000758  -0.015147   0.420402   0.000684   0.000120  -0.000064
    10  O    0.002500   0.004587   0.000684   8.043501  -0.077698  -0.056887
    11  O   -0.000055   0.010260   0.000120  -0.077698   7.876050  -0.000120
    12  C    0.009090   0.000149  -0.000064  -0.056887  -0.000120   5.380291
    13  C   -0.000266   0.000000  -0.000007  -0.004742  -0.000009   0.307942
    14  C   -0.035467  -0.000100  -0.000189   0.003191   0.000004  -0.003651
    15  O    0.004282  -0.003402   0.004138  -0.001442  -0.000005  -0.002339
    16  Si  -0.000050  -0.003784   0.002374  -0.000531   0.000393  -0.001838
    17  C    0.000004  -0.000035  -0.000003  -0.000002  -0.000003   0.000724
    18  C    0.000001  -0.000144   0.000021   0.000000   0.000000  -0.000031
    19  C    0.000011  -0.002526  -0.000117   0.000003  -0.000285   0.000013
    20  H    0.000001  -0.000025   0.000011   0.000000   0.000000  -0.000001
    21  H    0.000000   0.000005   0.000000   0.000000   0.000000   0.000001
    22  H    0.000001  -0.000008   0.000004   0.000000   0.000000  -0.000011
    23  H    0.000005   0.001327  -0.000001   0.000005   0.001434   0.000007
    24  H    0.000000   0.000418  -0.000007   0.000000  -0.000005   0.000000
    25  H    0.000003  -0.000012  -0.000143  -0.000002  -0.000068   0.000000
    26  H    0.000000  -0.000005  -0.000003  -0.000002   0.000003   0.000405
    27  H   -0.000001  -0.000005   0.000001  -0.000001   0.000000   0.000517
    28  H    0.000000   0.000003   0.000000   0.000000   0.000000   0.000015
    29  H   -0.007143  -0.000012  -0.000037  -0.000101   0.000000   0.000552
    30  H    0.006404   0.000000  -0.000034  -0.000061   0.000000   0.002351
    31  H   -0.003343   0.000015  -0.000005   0.000075   0.000000  -0.003756
    32  H   -0.000408   0.000075   0.000038   0.001918  -0.000353   0.378202
    33  H   -0.000454  -0.000020   0.000008   0.003977  -0.000002   0.384347
    34  H    0.000020   0.000000   0.000000  -0.000092  -0.000001  -0.037603
    35  H   -0.000040  -0.000027  -0.000003   0.011658   0.000537  -0.037354
    36  H   -0.000048   0.000000   0.000001  -0.000302  -0.000007  -0.040360
    37  C   -0.009980  -0.007043  -0.008489  -0.000343  -0.000195  -0.000531
    38  C    0.006794   0.000405   0.006411  -0.000038   0.000005  -0.000006
    39  C    0.000939   0.000416   0.003812   0.000001   0.000001   0.000000
    40  H    0.000841   0.000119   0.000396   0.000007   0.000003   0.000024
    41  H   -0.000316   0.001383  -0.000684  -0.000004  -0.000032  -0.000011
    42  H   -0.001072  -0.000019  -0.000274  -0.000013   0.000001  -0.000013
    43  H   -0.000003   0.000011   0.000084   0.000000   0.000000   0.000000
    44  H   -0.000006   0.000090  -0.000109   0.000000   0.000000   0.000000
              13         14         15         16         17         18
     1  C   -0.074819  -0.056093   0.002491   0.000411  -0.000072   0.000032
     2  C    0.007849   0.286240  -0.069646   0.002931   0.000142  -0.000235
     3  C   -0.000323  -0.068877   0.207519  -0.044996   0.002549   0.000518
     4  C    0.000174   0.007899  -0.060201  -0.016186  -0.000259  -0.000343
     5  C    0.000090  -0.000045   0.006046   0.000611  -0.000005   0.000010
     6  H   -0.006338  -0.002608  -0.000292  -0.000060  -0.000001   0.000000
     7  H   -0.000266  -0.035467   0.004282  -0.000050   0.000004   0.000001
     8  H    0.000000  -0.000100  -0.003402  -0.003784  -0.000035  -0.000144
     9  H   -0.000007  -0.000189   0.004138   0.002374  -0.000003   0.000021
    10  O   -0.004742   0.003191  -0.001442  -0.000531  -0.000002   0.000000
    11  O   -0.000009   0.000004  -0.000005   0.000393  -0.000003   0.000000
    12  C    0.307942  -0.003651  -0.002339  -0.001838   0.000724  -0.000031
    13  C    5.357904  -0.000510   0.000416   0.000491   0.000008   0.000000
    14  C   -0.000510   5.411766  -0.000298   0.000582  -0.000019   0.000023
    15  O    0.000416  -0.000298   8.306749   0.347694  -0.030561  -0.024216
    16  Si   0.000491   0.000582   0.347694  11.495983   0.336878   0.316961
    17  C    0.000008  -0.000019  -0.030561   0.336878   5.729522  -0.047863
    18  C    0.000000   0.000023  -0.024216   0.316961  -0.047863   5.767687
    19  C    0.000001   0.000007  -0.023117   0.312418  -0.043695  -0.054285
    20  H    0.000000  -0.000002  -0.001524  -0.027454   0.002328   0.372505
    21  H    0.000000   0.000000   0.000949  -0.011787  -0.000230   0.362477
    22  H    0.000000   0.000089  -0.002270  -0.025215  -0.000623   0.370728
    23  H    0.000001   0.000003  -0.001902  -0.024844  -0.000399   0.002100
    24  H    0.000000   0.000000   0.000811  -0.010568  -0.000462   0.000174
    25  H    0.000000   0.000002  -0.001210  -0.028833   0.002473  -0.001040
    26  H    0.000037   0.000003  -0.001877  -0.022979   0.369375   0.002134
    27  H   -0.000014  -0.000003  -0.001912  -0.022462   0.368912  -0.000612
    28  H   -0.000001   0.000000   0.001141  -0.014164   0.361924   0.000682
    29  H    0.000009   0.383174  -0.000100  -0.000246   0.000000   0.000035
    30  H    0.000263   0.386331   0.006245   0.001052   0.000002   0.000223
    31  H   -0.000245   0.393838  -0.000062   0.000028   0.000000  -0.000003
    32  H   -0.042333  -0.000170   0.006266  -0.001480  -0.002473   0.000005
    33  H   -0.039983   0.001827  -0.000359  -0.000205   0.000106   0.000002
    34  H    0.392731   0.000005  -0.000010  -0.000019   0.000033   0.000000
    35  H    0.384444  -0.000070   0.000000   0.000041   0.000008   0.000000
    36  H    0.382493   0.000007  -0.000020  -0.000032   0.000000   0.000000
    37  C    0.000012  -0.005681  -0.038574  -0.004994  -0.000044  -0.001563
    38  C    0.000000  -0.001980   0.004486   0.002077   0.000003   0.000097
    39  C    0.000000   0.000141  -0.000061  -0.000295   0.000000   0.000002
    40  H    0.000000   0.001906  -0.000365  -0.001968  -0.000076  -0.001854
    41  H    0.000000   0.000059  -0.002345   0.005983   0.000044  -0.000457
    42  H    0.000000   0.000453  -0.000065  -0.000040   0.000000  -0.000010
    43  H    0.000000   0.000008   0.000004   0.000023   0.000000   0.000000
    44  H    0.000000  -0.000012  -0.000020  -0.000137   0.000000  -0.000007
              19         20         21         22         23         24
     1  C   -0.000022   0.000002  -0.000001   0.000008  -0.000016   0.000000
     2  C   -0.000301  -0.000017   0.000009   0.000032  -0.000062   0.000007
     3  C   -0.000062   0.000299  -0.000077   0.000504  -0.000168  -0.000045
     4  C    0.000159  -0.000065   0.000005  -0.000043  -0.001119   0.000270
     5  C    0.000186   0.000002   0.000000   0.000002   0.000793  -0.000030
     6  H   -0.000001   0.000000   0.000000   0.000000   0.000000   0.000000
     7  H    0.000011   0.000001   0.000000   0.000001   0.000005   0.000000
     8  H   -0.002526  -0.000025   0.000005  -0.000008   0.001327   0.000418
     9  H   -0.000117   0.000011   0.000000   0.000004  -0.000001  -0.000007
    10  O    0.000003   0.000000   0.000000   0.000000   0.000005   0.000000
    11  O   -0.000285   0.000000   0.000000   0.000000   0.001434  -0.000005
    12  C    0.000013  -0.000001   0.000001  -0.000011   0.000007   0.000000
    13  C    0.000001   0.000000   0.000000   0.000000   0.000001   0.000000
    14  C    0.000007  -0.000002   0.000000   0.000089   0.000003   0.000000
    15  O   -0.023117  -0.001524   0.000949  -0.002270  -0.001902   0.000811
    16  Si   0.312418  -0.027454  -0.011787  -0.025215  -0.024844  -0.010568
    17  C   -0.043695   0.002328  -0.000230  -0.000623  -0.000399  -0.000462
    18  C   -0.054285   0.372505   0.362477   0.370728   0.002100   0.000174
    19  C    5.793102  -0.001218   0.000550   0.002048   0.368173   0.363596
    20  H   -0.001218   0.452606  -0.022801  -0.019800  -0.000023   0.000024
    21  H    0.000550  -0.022801   0.454536  -0.021659  -0.000041   0.000500
    22  H    0.002048  -0.019800  -0.021659   0.452137  -0.000086  -0.000059
    23  H    0.368173  -0.000023  -0.000041  -0.000086   0.443195  -0.021066
    24  H    0.363596   0.000024   0.000500  -0.000059  -0.021066   0.443747
    25  H    0.368976   0.000775   0.000044  -0.000038  -0.020285  -0.020741
    26  H   -0.000655  -0.000091  -0.000028  -0.000069   0.001201  -0.000033
    27  H    0.002169  -0.000078  -0.000061   0.001127  -0.000066  -0.000057
    28  H   -0.000024  -0.000082   0.000495   0.000043  -0.000036   0.000340
    29  H    0.000001   0.000002  -0.000002   0.000021   0.000000   0.000000
    30  H    0.000021  -0.000013  -0.000005   0.000374   0.000001   0.000000
    31  H    0.000000  -0.000001   0.000000  -0.000004   0.000000   0.000000
    32  H   -0.000111  -0.000002   0.000000   0.000005  -0.000005   0.000003
    33  H    0.000001   0.000000   0.000000   0.000000  -0.000002   0.000000
    34  H    0.000000   0.000000   0.000000   0.000000   0.000000   0.000000
    35  H    0.000000   0.000000   0.000000   0.000000  -0.000002   0.000000
    36  H    0.000000   0.000000   0.000000   0.000000   0.000000   0.000000
    37  C   -0.002086   0.000421   0.000169  -0.000174   0.000145   0.000039
    38  C    0.000038   0.000064  -0.000001  -0.000057   0.000001   0.000000
    39  C   -0.000016   0.000026   0.000000   0.000002  -0.000001   0.000000
    40  H    0.000133  -0.000339   0.000258   0.000019   0.000008  -0.000003
    41  H    0.002155   0.001180  -0.000012  -0.000024  -0.000332   0.000007
    42  H   -0.000002  -0.000004   0.000000  -0.000001   0.000000   0.000000
    43  H    0.000000  -0.000001   0.000000   0.000000   0.000000   0.000000
    44  H   -0.000012  -0.000004   0.000000   0.000000   0.000002   0.000000
              25         26         27         28         29         30
     1  C   -0.000001  -0.000044  -0.000030  -0.000002   0.005665  -0.006485
     2  C   -0.000054   0.000017   0.000099   0.000000  -0.029090  -0.039429
     3  C    0.000448   0.000023  -0.000075  -0.000059  -0.006417  -0.005631
     4  C    0.000283   0.000082  -0.000030   0.000002  -0.000276   0.000597
     5  C    0.000002   0.000063  -0.000001  -0.000001  -0.000051  -0.000037
     6  H    0.000000   0.000002   0.000003   0.000000  -0.000333  -0.000544
     7  H    0.000003   0.000000  -0.000001   0.000000  -0.007143   0.006404
     8  H   -0.000012  -0.000005  -0.000005   0.000003  -0.000012   0.000000
     9  H   -0.000143  -0.000003   0.000001   0.000000  -0.000037  -0.000034
    10  O   -0.000002  -0.000002  -0.000001   0.000000  -0.000101  -0.000061
    11  O   -0.000068   0.000003   0.000000   0.000000   0.000000   0.000000
    12  C    0.000000   0.000405   0.000517   0.000015   0.000552   0.002351
    13  C    0.000000   0.000037  -0.000014  -0.000001   0.000009   0.000263
    14  C    0.000002   0.000003  -0.000003   0.000000   0.383174   0.386331
    15  O   -0.001210  -0.001877  -0.001912   0.001141  -0.000100   0.006245
    16  Si  -0.028833  -0.022979  -0.022462  -0.014164  -0.000246   0.001052
    17  C    0.002473   0.369375   0.368912   0.361924   0.000000   0.000002
    18  C   -0.001040   0.002134  -0.000612   0.000682   0.000035   0.000223
    19  C    0.368976  -0.000655   0.002169  -0.000024   0.000001   0.000021
    20  H    0.000775  -0.000091  -0.000078  -0.000082   0.000002  -0.000013
    21  H    0.000044  -0.000028  -0.000061   0.000495  -0.000002  -0.000005
    22  H   -0.000038  -0.000069   0.001127   0.000043   0.000021   0.000374
    23  H   -0.020285   0.001201  -0.000066  -0.000036   0.000000   0.000001
    24  H   -0.020741  -0.000033  -0.000057   0.000340   0.000000   0.000000
    25  H    0.449380  -0.000061  -0.000084  -0.000103   0.000000   0.000002
    26  H   -0.000061   0.449351  -0.019752  -0.021622   0.000000  -0.000006
    27  H   -0.000084  -0.019752   0.453546  -0.021400  -0.000002   0.000050
    28  H   -0.000103  -0.021622  -0.021400   0.457267   0.000000  -0.000003
    29  H    0.000000   0.000000  -0.000002   0.000000   0.456011  -0.025357
    30  H    0.000002  -0.000006   0.000050  -0.000003  -0.025357   0.446275
    31  H    0.000000   0.000001   0.000002   0.000000  -0.025212  -0.025495
    32  H   -0.000007   0.000195  -0.000381   0.000370  -0.000135  -0.000074
    33  H    0.000000  -0.000004   0.000100  -0.000008   0.000678  -0.001927
    34  H    0.000000   0.000037   0.000034  -0.000002  -0.000001   0.000011
    35  H    0.000000   0.000024  -0.000001  -0.000001   0.000006  -0.000017
    36  H    0.000000  -0.000001   0.000000   0.000000  -0.000006   0.000001
    37  C    0.000219  -0.000006  -0.000032   0.000003   0.002550  -0.001538
    38  C    0.000057   0.000001   0.000000   0.000000  -0.000018   0.000332
    39  C    0.000015   0.000000   0.000000   0.000000   0.000153  -0.000004
    40  H   -0.000011  -0.000003  -0.000016   0.000002  -0.000883   0.000471
    41  H    0.003959   0.000004   0.000006   0.000004   0.000305  -0.000127
    42  H    0.000002   0.000000   0.000000   0.000000   0.003652  -0.000080
    43  H   -0.000002   0.000000   0.000000   0.000000  -0.000016   0.000000
    44  H    0.000067   0.000000   0.000000   0.000000   0.000006   0.000000
              31         32         33         34         35         36
     1  C   -0.001799  -0.035975  -0.036218   0.007742  -0.011456  -0.003549
     2  C   -0.044997  -0.006126  -0.008938  -0.000221   0.000229  -0.000144
     3  C    0.007356   0.004100   0.001243  -0.000005  -0.000040   0.000034
     4  C   -0.000412  -0.002183  -0.000275   0.000008   0.000508  -0.000020
     5  C    0.000040   0.001698   0.000208  -0.000029   0.001507  -0.000058
     6  H    0.004263   0.006869  -0.000051  -0.000169  -0.000295   0.005797
     7  H   -0.003343  -0.000408  -0.000454   0.000020  -0.000040  -0.000048
     8  H    0.000015   0.000075  -0.000020   0.000000  -0.000027   0.000000
     9  H   -0.000005   0.000038   0.000008   0.000000  -0.000003   0.000001
    10  O    0.000075   0.001918   0.003977  -0.000092   0.011658  -0.000302
    11  O    0.000000  -0.000353  -0.000002  -0.000001   0.000537  -0.000007
    12  C   -0.003756   0.378202   0.384347  -0.037603  -0.037354  -0.040360
    13  C   -0.000245  -0.042333  -0.039983   0.392731   0.384444   0.382493
    14  C    0.393838  -0.000170   0.001827   0.000005  -0.000070   0.000007
    15  O   -0.000062   0.006266  -0.000359  -0.000010   0.000000  -0.000020
    16  Si   0.000028  -0.001480  -0.000205  -0.000019   0.000041  -0.000032
    17  C    0.000000  -0.002473   0.000106   0.000033   0.000008   0.000000
    18  C   -0.000003   0.000005   0.000002   0.000000   0.000000   0.000000
    19  C    0.000000  -0.000111   0.000001   0.000000   0.000000   0.000000
    20  H   -0.000001  -0.000002   0.000000   0.000000   0.000000   0.000000
    21  H    0.000000   0.000000   0.000000   0.000000   0.000000   0.000000
    22  H   -0.000004   0.000005   0.000000   0.000000   0.000000   0.000000
    23  H    0.000000  -0.000005  -0.000002   0.000000  -0.000002   0.000000
    24  H    0.000000   0.000003   0.000000   0.000000   0.000000   0.000000
    25  H    0.000000  -0.000007   0.000000   0.000000   0.000000   0.000000
    26  H    0.000001   0.000195  -0.000004   0.000037   0.000024  -0.000001
    27  H    0.000002  -0.000381   0.000100   0.000034  -0.000001   0.000000
    28  H    0.000000   0.000370  -0.000008  -0.000002  -0.000001   0.000000
    29  H   -0.025212  -0.000135   0.000678  -0.000001   0.000006  -0.000006
    30  H   -0.025495  -0.000074  -0.001927   0.000011  -0.000017   0.000001
    31  H    0.457754   0.000267   0.000322   0.000005  -0.000023   0.000068
    32  H    0.000267   0.441983  -0.023992  -0.004878  -0.004858   0.007032
    33  H    0.000322  -0.023992   0.490134  -0.004377   0.007180  -0.004867
    34  H    0.000005  -0.004878  -0.004377   0.475010  -0.025370  -0.028197
    35  H   -0.000023  -0.004858   0.007180  -0.025370   0.464502  -0.028781
    36  H    0.000068   0.007032  -0.004867  -0.028197  -0.028781   0.493789
    37  C   -0.000070   0.000097   0.000043  -0.000001   0.000004   0.000000
    38  C   -0.000018  -0.000015  -0.000005   0.000000   0.000000   0.000000
    39  C   -0.000001   0.000000   0.000000   0.000000   0.000000   0.000000
    40  H    0.000161   0.000010  -0.000020   0.000000   0.000000   0.000000
    41  H    0.000010  -0.000006   0.000005   0.000000   0.000000   0.000000
    42  H    0.000033   0.000001   0.000004   0.000000   0.000000   0.000000
    43  H    0.000000   0.000000   0.000000   0.000000   0.000000   0.000000
    44  H    0.000000   0.000000   0.000000   0.000000   0.000000   0.000000
              37         38         39         40         41         42
     1  C    0.007901  -0.000010  -0.000019  -0.000210  -0.000155   0.000352
     2  C   -0.082307  -0.005424  -0.000239  -0.011092   0.007218   0.001881
     3  C    0.344334  -0.061861  -0.003188  -0.046194  -0.032855  -0.003689
     4  C   -0.083501  -0.005082  -0.001629   0.007205  -0.008740   0.000321
     5  C    0.003445  -0.000153   0.000018  -0.000135   0.000187   0.000018
     6  H   -0.000126  -0.000037  -0.000001  -0.000016   0.000014   0.000023
     7  H   -0.009980   0.006794   0.000939   0.000841  -0.000316  -0.001072
     8  H   -0.007043   0.000405   0.000416   0.000119   0.001383  -0.000019
     9  H   -0.008489   0.006411   0.003812   0.000396  -0.000684  -0.000274
    10  O   -0.000343  -0.000038   0.000001   0.000007  -0.000004  -0.000013
    11  O   -0.000195   0.000005   0.000001   0.000003  -0.000032   0.000001
    12  C   -0.000531  -0.000006   0.000000   0.000024  -0.000011  -0.000013
    13  C    0.000012   0.000000   0.000000   0.000000   0.000000   0.000000
    14  C   -0.005681  -0.001980   0.000141   0.001906   0.000059   0.000453
    15  O   -0.038574   0.004486  -0.000061  -0.000365  -0.002345  -0.000065
    16  Si  -0.004994   0.002077  -0.000295  -0.001968   0.005983  -0.000040
    17  C   -0.000044   0.000003   0.000000  -0.000076   0.000044   0.000000
    18  C   -0.001563   0.000097   0.000002  -0.001854  -0.000457  -0.000010
    19  C   -0.002086   0.000038  -0.000016   0.000133   0.002155  -0.000002
    20  H    0.000421   0.000064   0.000026  -0.000339   0.001180  -0.000004
    21  H    0.000169  -0.000001   0.000000   0.000258  -0.000012   0.000000
    22  H   -0.000174  -0.000057   0.000002   0.000019  -0.000024  -0.000001
    23  H    0.000145   0.000001  -0.000001   0.000008  -0.000332   0.000000
    24  H    0.000039   0.000000   0.000000  -0.000003   0.000007   0.000000
    25  H    0.000219   0.000057   0.000015  -0.000011   0.003959   0.000002
    26  H   -0.000006   0.000001   0.000000  -0.000003   0.000004   0.000000
    27  H   -0.000032   0.000000   0.000000  -0.000016   0.000006   0.000000
    28  H    0.000003   0.000000   0.000000   0.000002   0.000004   0.000000
    29  H    0.002550  -0.000018   0.000153  -0.000883   0.000305   0.003652
    30  H   -0.001538   0.000332  -0.000004   0.000471  -0.000127  -0.000080
    31  H   -0.000070  -0.000018  -0.000001   0.000161   0.000010   0.000033
    32  H    0.000097  -0.000015   0.000000   0.000010  -0.000006   0.000001
    33  H    0.000043  -0.000005   0.000000  -0.000020   0.000005   0.000004
    34  H   -0.000001   0.000000   0.000000   0.000000   0.000000   0.000000
    35  H    0.000004   0.000000   0.000000   0.000000   0.000000   0.000000
    36  H    0.000000   0.000000   0.000000   0.000000   0.000000   0.000000
    37  C    5.452459   0.306652  -0.051086   0.402226   0.392634  -0.048798
    38  C    0.306652   5.074015   0.629118  -0.036848  -0.047512   0.396302
    39  C   -0.051086   0.629118   5.125305   0.001186   0.000144  -0.037647
    40  H    0.402226  -0.036848   0.001186   0.437965  -0.026868  -0.003681
    41  H    0.392634  -0.047512   0.000144  -0.026868   0.447232   0.005061
    42  H   -0.048798   0.396302  -0.037647  -0.003681   0.005061   0.467547
    43  H    0.005723  -0.036270   0.390434  -0.000295   0.000096  -0.007967
    44  H   -0.008037  -0.042352   0.389340   0.000071   0.005053   0.006040
              43         44
     1  C   -0.000003   0.000001
     2  C    0.000029   0.000070
     3  C   -0.000212  -0.000381
     4  C    0.000027   0.000383
     5  C   -0.000001   0.000000
     6  H    0.000000   0.000000
     7  H   -0.000003  -0.000006
     8  H    0.000011   0.000090
     9  H    0.000084  -0.000109
    10  O    0.000000   0.000000
    11  O    0.000000   0.000000
    12  C    0.000000   0.000000
    13  C    0.000000   0.000000
    14  C    0.000008  -0.000012
    15  O    0.000004  -0.000020
    16  Si   0.000023  -0.000137
    17  C    0.000000   0.000000
    18  C    0.000000  -0.000007
    19  C    0.000000  -0.000012
    20  H   -0.000001  -0.000004
    21  H    0.000000   0.000000
    22  H    0.000000   0.000000
    23  H    0.000000   0.000002
    24  H    0.000000   0.000000
    25  H   -0.000002   0.000067
    26  H    0.000000   0.000000
    27  H    0.000000   0.000000
    28  H    0.000000   0.000000
    29  H   -0.000016   0.000006
    30  H    0.000000   0.000000
    31  H    0.000000   0.000000
    32  H    0.000000   0.000000
    33  H    0.000000   0.000000
    34  H    0.000000   0.000000
    35  H    0.000000   0.000000
    36  H    0.000000   0.000000
    37  C    0.005723  -0.008037
    38  C   -0.036270  -0.042352
    39  C    0.390434   0.389340
    40  H   -0.000295   0.000071
    41  H    0.000096   0.005053
    42  H   -0.007967   0.006040
    43  H    0.450164  -0.032930
    44  H   -0.032930   0.458215
 Mulliken charges:
               1
     1  C   -0.021650
     2  C   -0.301566
     3  C    0.170694
     4  C   -0.566709
     5  C    0.483735
     6  H    0.240535
     7  H    0.253645
     8  H    0.277475
     9  H    0.284199
    10  O   -0.332973
    11  O   -0.391048
    12  C   -0.454863
    13  C   -0.665272
    14  C   -0.701781
    15  O   -0.631043
    16  Si   1.438236
    17  C   -1.048206
    18  C   -1.063754
    19  C   -1.085225
    20  H    0.243300
    21  H    0.236705
    22  H    0.242995
    23  H    0.252055
    24  H    0.243141
    25  H    0.245986
    26  H    0.244288
    27  H    0.240509
    28  H    0.235217
    29  H    0.242620
    30  H    0.255861
    31  H    0.241209
    32  H    0.276833
    33  H    0.231522
    34  H    0.225339
    35  H    0.237689
    36  H    0.217170
    37  C   -0.563877
    38  C   -0.189171
    39  C   -0.446866
    40  H    0.277867
    41  H    0.247735
    42  H    0.221683
    43  H    0.231095
    44  H    0.224667
 Sum of Mulliken charges =   0.00000
 Mulliken charges with hydrogens summed into heavy atoms:
               1
     1  C    0.218885
     2  C   -0.047921
     3  C    0.170694
     4  C   -0.005035
     5  C    0.483735
    10  O   -0.332973
    11  O   -0.391048
    12  C    0.053491
    13  C    0.014927
    14  C    0.037909
    15  O   -0.631043
    16  Si   1.438236
    17  C   -0.328193
    18  C   -0.340754
    19  C   -0.344042
    37  C   -0.038275
    38  C    0.032512
    39  C    0.008896
 Electronic spatial extent (au):  <R**2>=           5102.2573
 Charge=              0.0000 electrons
 Dipole moment (field-independent basis, Debye):
    X=              3.3290    Y=              1.3350    Z=             -4.7895  Tot=              5.9836
 Quadrupole moment (field-independent basis, Debye-Ang):
   XX=           -121.4574   YY=           -110.8685   ZZ=           -131.2903
   XY=             -2.2909   XZ=             14.0205   YZ=             -1.1092
 Traceless Quadrupole moment (field-independent basis, Debye-Ang):
   XX=             -0.2520   YY=             10.3369   ZZ=            -10.0849
   XY=             -2.2909   XZ=             14.0205   YZ=             -1.1092
 Octapole moment (field-independent basis, Debye-Ang**2):
  XXX=              2.2782  YYY=             18.3069  ZZZ=            -44.9390  XYY=              3.1812
  XXY=             -5.2851  XXZ=            -14.2877  XZZ=             18.3956  YZZ=              0.4808
  YYZ=              6.5798  XYZ=              7.0120
 Hexadecapole moment (field-independent basis, Debye-Ang**3):
 XXXX=          -3084.3399 YYYY=          -2450.2218 ZZZZ=          -1522.8931 XXXY=            -50.6799
 XXXZ=             73.1269 YYYX=            -20.1877 YYYZ=              7.4423 ZZZX=             65.9030
 ZZZY=             -2.4363 XXYY=           -905.2498 XXZZ=           -785.0333 YYZZ=           -642.8110
 XXYZ=              5.3627 YYXZ=             18.8684 ZZXY=              5.4989
 N-N= 1.646942062660D+03 E-N=-5.789308452820D+03  KE= 1.060533607843D+03
 1\1\GINC-CPU-E-611\SP\RmPW1PW91\6-311G(d)\C14H26O3Si1\KE291\06-Feb-201
 9\0\\# mPW1PW91/6-311g(d) geom=checkpoint nmr=giao scrf=(solvent=chlor
 oform)\\P_ng_3ginp009\\0,1\C,0,-0.7132292907,0.4837461311,-0.554559923
 8\C,0,-0.813650585,-0.3931806785,0.7148084148\C,0,-1.3466627398,0.3926
 440739,1.938211698\C,0,-0.4231965786,1.6032384226,2.1362289407\C,0,-0.
 1374629722,2.416765701,0.8926235211\H,0,0.008545681,-0.0050609275,-1.2
 201976662\H,0,0.2213025386,-0.6584172844,0.9668012388\H,0,-0.815568417
 5,2.2853683776,2.8918405898\H,0,0.5486845434,1.2512838549,2.5044605161
 \O,0,-0.0978562555,1.7854769787,-0.2983290112\O,0,0.1485641433,3.59631
 90914,0.9382742515\C,0,-1.995183055,0.7329019982,-1.3592890328\C,0,-1.
 7307890194,1.4590773563,-2.68242983\C,0,-1.5718065076,-1.6965561601,0.
 4280209128\O,0,-2.6672533262,0.8369056483,1.6270153915\Si,0,-3.9587521
 661,1.495223493,2.4865018211\C,0,-5.0589640709,2.2264349096,1.14746301
 7\C,0,-4.9055459818,0.1563056986,3.4214465072\C,0,-3.4242443473,2.8519
 315948,3.6860102559\H,0,-4.3262296188,-0.2732745919,4.2445549027\H,0,-
 5.8221810111,0.5797109698,3.8487528286\H,0,-5.1991693988,-0.6604627956
 ,2.753346772\H,0,-2.8751160469,3.6498318483,3.1752659612\H,0,-4.314497
 8933,3.3032838452,4.1401090179\H,0,-2.799185378,2.4775372471,4.5035592
 864\H,0,-4.5447885527,3.0269682172,0.6056255671\H,0,-5.3573937837,1.46
 53713906,0.4189573193\H,0,-5.9717038811,2.6486732587,1.5826233747\H,0,
 -1.4018144686,-2.433176245,1.2176249009\H,0,-2.6477513705,-1.522482227
 1,0.3547360281\H,0,-1.2324955138,-2.1460520093,-0.5108714946\H,0,-2.69
 85091977,1.2972434025,-0.7435510697\H,0,-2.4623194522,-0.235992719,-1.
 565200812\H,0,-2.6642756319,1.6075738454,-3.2340697687\H,0,-1.27847538
 02,2.4391992586,-2.5108819539\H,0,-1.0527351158,0.8844527468,-3.324426
 079\C,0,-1.3751305471,-0.4683674462,3.2336865132\C,0,-0.0805674392,-1.
 1381027735,3.6103535123\C,0,0.6546805966,-0.8245614287,4.679169505\H,0
 ,-2.1578133605,-1.2245937441,3.1050160022\H,0,-1.6922008412,0.18224825
 25,4.0570978413\H,0,0.2591277579,-1.944974666,2.9616144637\H,0,1.57684
 91175,-1.3493247057,4.9104004985\H,0,0.3567368183,-0.0354092099,5.3657
 352706\\Version=ES64L-G09RevD.01\State=1-A\HF=-1064.3832089\RMSD=7.924
 e-09\Dipole=-0.8077017,-2.0505001,0.8276862\Quadrupole=1.6509999,-5.83
 52276,4.1842276,-10.2324391,2.3325687,5.710621\PG=C01 [X(C14H26O3Si1)]
 \\@


 NEVER LISTEN TO CRITICISM
 OR YOU'LL BE DOIN' EVERYBODY ELSE'S THING BUT BUT YOUR OWN.

                                               -- ANDY CAPP
 Job cpu time:       0 days  0 hours 21 minutes 38.1 seconds.
 File lengths (MBytes):  RWF=    237 Int=      0 D2E=      0 Chk=     18 Scr=      1
 Normal termination of Gaussian 09 at Wed Feb  6 11:28:35 2019.
