 Entering Gaussian System, Link 0=/usr/local/Cluster-Apps/gaussian/g09/g09
 Initial command:
 /usr/local/Cluster-Apps/gaussian/g09/l1.exe "/home/ke291/rds/hpc-work/06Feb0927IP1/Gau-178416.inp" -scrdir="/home/ke291/rds/hpc-work/06Feb0927IP1/"
 Entering Link 1 = /usr/local/Cluster-Apps/gaussian/g09/l1.exe PID=    178421.
  
 Copyright (c) 1988,1990,1992,1993,1995,1998,2003,2009,2013,
            Gaussian, Inc.  All Rights Reserved.
  
 This is part of the Gaussian(R) 09 program.  It is based on
 the Gaussian(R) 03 system (copyright 2003, Gaussian, Inc.),
 the Gaussian(R) 98 system (copyright 1998, Gaussian, Inc.),
 the Gaussian(R) 94 system (copyright 1995, Gaussian, Inc.),
 the Gaussian 92(TM) system (copyright 1992, Gaussian, Inc.),
 the Gaussian 90(TM) system (copyright 1990, Gaussian, Inc.),
 the Gaussian 88(TM) system (copyright 1988, Gaussian, Inc.),
 the Gaussian 86(TM) system (copyright 1986, Carnegie Mellon
 University), and the Gaussian 82(TM) system (copyright 1983,
 Carnegie Mellon University). Gaussian is a federally registered
 trademark of Gaussian, Inc.
  
 This software contains proprietary and confidential information,
 including trade secrets, belonging to Gaussian, Inc.
  
 This software is provided under written license and may be
 used, copied, transmitted, or stored only in accord with that
 written license.
  
 The following legend is applicable only to US Government
 contracts under FAR:
  
                    RESTRICTED RIGHTS LEGEND
  
 Use, reproduction and disclosure by the US Government is
 subject to restrictions as set forth in subparagraphs (a)
 and (c) of the Commercial Computer Software - Restricted
 Rights clause in FAR 52.227-19.
  
 Gaussian, Inc.
 340 Quinnipiac St., Bldg. 40, Wallingford CT 06492
  
  
 ---------------------------------------------------------------
 Warning -- This program may not be used in any manner that
 competes with the business of Gaussian, Inc. or will provide
 assistance to any competitor of Gaussian, Inc.  The licensee
 of this program is prohibited from giving any competitor of
 Gaussian, Inc. access to this program.  By using this program,
 the user acknowledges that Gaussian, Inc. is engaged in the
 business of creating and licensing software in the field of
 computational chemistry and represents and warrants to the
 licensee that it is not a competitor of Gaussian, Inc. and that
 it will not use this program in any manner prohibited above.
 ---------------------------------------------------------------
  

 Cite this work as:
 Gaussian 09, Revision D.01,
 M. J. Frisch, G. W. Trucks, H. B. Schlegel, G. E. Scuseria, 
 M. A. Robb, J. R. Cheeseman, G. Scalmani, V. Barone, B. Mennucci, 
 G. A. Petersson, H. Nakatsuji, M. Caricato, X. Li, H. P. Hratchian, 
 A. F. Izmaylov, J. Bloino, G. Zheng, J. L. Sonnenberg, M. Hada, 
 M. Ehara, K. Toyota, R. Fukuda, J. Hasegawa, M. Ishida, T. Nakajima, 
 Y. Honda, O. Kitao, H. Nakai, T. Vreven, J. A. Montgomery, Jr., 
 J. E. Peralta, F. Ogliaro, M. Bearpark, J. J. Heyd, E. Brothers, 
 K. N. Kudin, V. N. Staroverov, T. Keith, R. Kobayashi, J. Normand, 
 K. Raghavachari, A. Rendell, J. C. Burant, S. S. Iyengar, J. Tomasi, 
 M. Cossi, N. Rega, J. M. Millam, M. Klene, J. E. Knox, J. B. Cross, 
 V. Bakken, C. Adamo, J. Jaramillo, R. Gomperts, R. E. Stratmann, 
 O. Yazyev, A. J. Austin, R. Cammi, C. Pomelli, J. W. Ochterski, 
 R. L. Martin, K. Morokuma, V. G. Zakrzewski, G. A. Voth, 
 P. Salvador, J. J. Dannenberg, S. Dapprich, A. D. Daniels, 
 O. Farkas, J. B. Foresman, J. V. Ortiz, J. Cioslowski, 
 and D. J. Fox, Gaussian, Inc., Wallingford CT, 2013.
 
 ******************************************
 Gaussian 09:  ES64L-G09RevD.01 24-Apr-2013
                 6-Feb-2019 
 ******************************************
 %nprocshared=2
 Will use up to    2 processors via shared memory.
 %mem=6000MB
 %chk=/home/ke291/rds/hpc-work/06Feb0927IP1/P_ng_correct1ginp003.chk
 ----------------------------------------------------------------------
 # mPW1PW91/6-311g(d) geom=checkpoint nmr=giao scrf=(solvent=chloroform
 )
 ----------------------------------------------------------------------
 1/29=2,38=1/1;
 2/12=2,40=1/2;
 3/5=4,6=6,7=1,11=2,14=-4,16=1,25=1,30=1,70=2201,72=7,74=-7/1,2,8,3;
 4//1;
 5/5=2,38=5,53=7/2;
 8/6=1,10=90,11=11/1;
 10/13=100,45=16/2;
 6/7=2,8=2,9=2,10=2,28=1/1;
 99/9=1/99;
 --------------------
 P_ng_correct1ginp003
 --------------------
 Structure from the checkpoint file:  "/home/ke291/rds/hpc-work/06Feb0927IP1/P_ng_correct1ginp003.chk"
 Charge =  0 Multiplicity = 1
 Redundant internal coordinates found in file.
 C,0,1.0406342109,-0.2822561397,0.7691764203
 C,0,-0.4841346431,-0.4634478524,0.7507818781
 C,0,-1.1998607032,0.8415938285,1.2030107244
 C,0,-0.7976680529,1.9078474213,0.1702084864
 C,0,0.697900313,2.056124422,-0.0344676177
 H,0,1.386913797,-0.2662700023,1.8107634656
 H,0,-0.7930752064,-0.6046153211,-0.2945465953
 H,0,-1.2217153686,1.6342147525,-0.8030473657
 H,0,-1.1825324629,2.8985695637,0.4247372157
 O,0,1.4894741354,0.9917570953,0.2019235062
 O,0,1.2026154012,3.0813581161,-0.442980258
 C,0,1.8064955704,-1.3656594553,0.0060841994
 C,0,3.3289454982,-1.2155767732,0.0827705541
 C,0,-0.9043971948,-1.7221108796,1.5247848393
 O,0,-2.59858705,0.5805886408,1.1489151676
 Si,0,-3.9939333044,1.5032547567,0.9482722518
 C,0,-4.0528721866,2.9906504956,2.1096879223
 C,0,-4.1801743931,2.0896790789,-0.8364769479
 C,0,-5.3753118842,0.2970667576,1.364831465
 H,0,-3.4495858765,2.8582378671,-1.1073144016
 H,0,-4.0733070032,1.2580184253,-1.541153731
 H,0,-5.1777783843,2.5204737542,-0.9826048719
 H,0,-6.3559674637,0.7693135584,1.2391905802
 H,0,-5.3409422712,-0.5809661479,0.7114791293
 H,0,-5.3017075324,-0.0521180225,2.3999604232
 H,0,-3.9422841017,2.6933450674,3.1577535268
 H,0,-3.2801437698,3.7334672723,1.8850369272
 H,0,-5.0228075914,3.4919450284,2.0086637364
 H,0,-0.6003694281,-2.6267793322,0.9917624897
 H,0,-0.4695371246,-1.7511109419,2.5265743251
 H,0,-1.9910373388,-1.7432168666,1.6240078769
 H,0,1.4755803578,-1.3491588939,-1.0400293335
 H,0,1.5164759002,-2.3388564144,0.4148710427
 H,0,3.822398988,-2.0234164377,-0.4658940889
 H,0,3.654919582,-0.2643953882,-0.3445798857
 H,0,3.6772811718,-1.2560337327,1.1209774258
 C,0,-0.82204403,1.3528043928,2.6215906188
 C,0,-1.225524536,0.4912633953,3.7870515224
 C,0,-0.4445740361,0.2181505922,4.8338222269
 H,0,-1.3201283132,2.3262593214,2.7284707616
 H,0,0.2532663985,1.5604283977,2.669692978
 H,0,-2.2454935894,0.1121622763,3.7663611481
 H,0,-0.8012064551,-0.3750625652,5.6707588779
 H,0,0.5791679713,0.5809618889,4.8951193837
 Recover connectivity data from disk.
                          Input orientation:                          
 ---------------------------------------------------------------------
 Center     Atomic      Atomic             Coordinates (Angstroms)
 Number     Number       Type             X           Y           Z
 ---------------------------------------------------------------------
      1          6           0        1.040634   -0.282256    0.769176
      2          6           0       -0.484135   -0.463448    0.750782
      3          6           0       -1.199861    0.841594    1.203011
      4          6           0       -0.797668    1.907847    0.170208
      5          6           0        0.697900    2.056124   -0.034468
      6          1           0        1.386914   -0.266270    1.810763
      7          1           0       -0.793075   -0.604615   -0.294547
      8          1           0       -1.221715    1.634215   -0.803047
      9          1           0       -1.182532    2.898570    0.424737
     10          8           0        1.489474    0.991757    0.201924
     11          8           0        1.202615    3.081358   -0.442980
     12          6           0        1.806496   -1.365659    0.006084
     13          6           0        3.328945   -1.215577    0.082771
     14          6           0       -0.904397   -1.722111    1.524785
     15          8           0       -2.598587    0.580589    1.148915
     16         14           0       -3.993933    1.503255    0.948272
     17          6           0       -4.052872    2.990650    2.109688
     18          6           0       -4.180174    2.089679   -0.836477
     19          6           0       -5.375312    0.297067    1.364831
     20          1           0       -3.449586    2.858238   -1.107314
     21          1           0       -4.073307    1.258018   -1.541154
     22          1           0       -5.177778    2.520474   -0.982605
     23          1           0       -6.355967    0.769314    1.239191
     24          1           0       -5.340942   -0.580966    0.711479
     25          1           0       -5.301708   -0.052118    2.399960
     26          1           0       -3.942284    2.693345    3.157754
     27          1           0       -3.280144    3.733467    1.885037
     28          1           0       -5.022808    3.491945    2.008664
     29          1           0       -0.600369   -2.626779    0.991762
     30          1           0       -0.469537   -1.751111    2.526574
     31          1           0       -1.991037   -1.743217    1.624008
     32          1           0        1.475580   -1.349159   -1.040029
     33          1           0        1.516476   -2.338856    0.414871
     34          1           0        3.822399   -2.023416   -0.465894
     35          1           0        3.654920   -0.264395   -0.344580
     36          1           0        3.677281   -1.256034    1.120977
     37          6           0       -0.822044    1.352804    2.621591
     38          6           0       -1.225525    0.491263    3.787052
     39          6           0       -0.444574    0.218151    4.833822
     40          1           0       -1.320128    2.326259    2.728471
     41          1           0        0.253266    1.560428    2.669693
     42          1           0       -2.245494    0.112162    3.766361
     43          1           0       -0.801206   -0.375063    5.670759
     44          1           0        0.579168    0.580962    4.895119
 ---------------------------------------------------------------------
                    Distance matrix (angstroms):
                    1          2          3          4          5
     1  C    0.000000
     2  C    1.535607   0.000000
     3  C    2.543829   1.555606   0.000000
     4  C    2.921416   2.461384   1.537965   0.000000
     5  C    2.496264   2.891724   2.570590   1.516774   0.000000
     6  H    1.097756   2.159459   2.878911   3.491505   3.045182
     7  H    2.144274   1.099129   2.121243   2.555090   3.061076
     8  H    3.356035   2.712674   2.157080   1.096320   2.110367
     9  H    3.895993   3.449236   2.199354   1.092902   2.111069
    10  O    1.465040   2.512767   2.873543   2.463990   1.347348
    11  O    3.579031   4.103150   3.673925   2.398804   1.213558
    12  C    1.530561   2.572071   3.916986   4.186222   3.597115
    13  C    2.564880   3.943541   5.098723   5.176134   4.200021
    14  C    2.535207   1.536208   2.600657   3.875934   4.390181
    15  O    3.759340   2.391533   1.423898   2.441883   3.800583
    16  Si   5.344810   4.028102   2.882625   3.314391   4.825427
    17  C    6.201024   5.149108   3.685130   3.940862   5.295336
    18  C    5.954917   4.764300   3.820929   3.533812   4.943679
    19  C    6.469527   4.987891   4.213916   4.997656   6.475819
    20  H    5.791891   4.824937   3.803383   3.093214   4.358443
    21  H    5.819146   4.593318   3.995065   3.752446   5.066705
    22  H    7.042208   5.825694   4.839358   4.570520   5.969773
    23  H    7.485748   6.019690   5.156740   5.773532   7.282523
    24  H    6.388824   4.858388   4.406114   5.208503   6.631614
    25  H    6.552688   5.108619   4.365382   5.394407   6.809289
    26  H    6.276064   5.264756   3.843291   4.408066   5.668125
    27  H    6.003358   5.168975   3.627074   3.526501   4.724702
    28  H    7.248879   6.150362   4.721055   4.872483   6.241992
    29  H    2.870405   2.179813   3.526135   4.612669   4.966713
    30  H    2.743465   2.193565   3.001218   4.364414   4.734648
    31  H    3.472200   2.161270   2.735771   4.107059   4.941247
    32  H    2.144921   2.798566   4.121724   4.152159   3.634817
    33  H    2.140458   2.762686   4.256162   4.842480   4.493087
    34  H    3.506459   4.739202   6.018025   6.099548   5.156673
    35  H    2.841700   4.286165   5.214129   4.980882   3.771597
    36  H    2.832651   4.252366   5.309735   5.562309   4.602408
    37  C    3.094258   2.629236   1.554494   2.513552   3.139990
    38  C    3.852451   3.268037   2.607807   3.907854   4.555476
    39  C    4.356328   4.139729   3.760576   4.972831   5.327630
    40  H    4.026958   3.520313   2.132070   2.644379   3.432090
    41  H    2.761774   2.884797   2.186197   2.733603   2.784941
    42  H    4.465122   3.539411   2.862898   4.272353   5.185447
    43  H    5.237032   4.930976   4.647575   5.955480   6.380251
    44  H    4.240460   4.404195   4.106646   5.097164   5.146944
                    6          7          8          9         10
     6  H    0.000000
     7  H    3.049452   0.000000
     8  H    4.153167   2.335523   0.000000
     9  H    4.305732   3.597409   1.762834   0.000000
    10  O    2.044876   2.829297   2.961970   3.290167   0.000000
    11  O    4.039795   4.194188   2.846270   2.544656   2.205589
    12  C    2.154431   2.725314   4.338663   5.224290   2.386686
    13  C    2.767423   4.184100   5.441921   6.115274   2.875791
    14  C    2.729718   2.138026   4.096879   4.757957   3.853007
    15  O    4.127884   2.597723   2.610759   2.811171   4.216408
    16  Si   5.729627   4.029045   3.281686   3.181975   5.557556
    17  C    6.347295   5.415954   4.282452   3.329623   6.192959
    18  C    6.599307   4.361806   2.993500   3.351242   5.867591
    19  C    6.800287   4.956154   4.872374   5.023046   6.997159
    20  H    6.455188   4.439481   2.560121   2.736483   5.439868
    21  H    6.585804   3.972827   2.969495   3.861698   5.835559
    22  H    7.659245   5.428188   4.058094   4.252712   6.942070
    23  H    7.832710   5.931762   5.592793   5.653450   7.916840
    24  H    6.824332   4.657869   4.916182   5.429711   7.027638
    25  H    6.717936   5.281419   5.454293   5.438352   7.213958
    26  H    6.242920   5.719479   4.920487   3.889438   6.413761
    27  H    6.146938   5.454819   3.983690   2.688773   5.753182
    28  H    7.432891   6.322754   5.079880   4.196264   7.205905
    29  H    3.192501   2.404345   4.665135   5.584793   4.252658
    30  H    2.482649   3.062328   4.807555   5.152243   4.094515
    31  H    3.691450   2.532267   4.229598   4.861904   4.649340
    32  H    3.050824   2.501377   4.028906   5.220565   2.650005
    33  H    2.502182   2.974036   4.976576   5.891975   3.337523
    34  H    3.768597   4.831662   6.239794   7.075910   3.870373
    35  H    3.128795   4.461268   5.253235   5.830707   2.562370
    36  H    2.588671   4.734146   6.004629   6.431428   3.268597
    37  C    2.856280   3.512291   3.459346   2.710260   3.365748
    38  C    3.362202   4.248224   4.730260   4.135472   4.524915
    39  C    3.567618   5.205628   5.863743   5.212414   5.078730
    40  H    3.858947   4.243400   3.600032   2.377743   4.007269
    41  H    2.315112   3.816931   3.773717   2.981940   2.818064
    42  H    4.142699   4.371986   4.923846   4.478884   5.237259
    43  H    4.438386   5.969726   6.791479   6.195387   6.084700
    44  H    3.299016   5.497388   6.068083   5.334717   4.798281
                   11         12         13         14         15
    11  O    0.000000
    12  C    4.510243   0.000000
    13  C    4.823001   1.531750   0.000000
    14  C    5.602224   3.127691   4.500797   0.000000
    15  O    4.820490   4.949616   6.284785   2.883398   0.000000
    16  Si   5.606257   6.539370   7.859115   4.503397   1.684803
    17  C    5.843329   7.598340   8.734528   5.697818   2.974294
    18  C    5.487503   6.963440   8.255702   5.553019   2.953058
    19  C    7.368147   7.495946   8.927254   4.908334   2.799501
    20  H    4.704689   6.834278   7.997547   5.863917   3.316995
    21  H    5.689104   6.621911   7.971772   5.321949   3.141684
    22  H    6.427691   8.053547   9.351869   6.522907   3.867656
    23  H    8.081301   8.526691   9.953624   6.000698   3.763200
    24  H    7.587064   7.224901   8.715788   4.652592   3.010161
    25  H    7.759330   7.614630   9.011724   4.784469   3.045044
    26  H    6.291727   7.710837   8.809425   5.602820   3.210092
    27  H    5.093137   7.443484   8.451110   5.961316   3.308631
    28  H    6.703360   8.616613   9.778630   6.661968   3.884843
    29  H    6.155654   2.890499   4.272853   1.093147   3.782166
    30  H    5.913299   3.417860   4.548345   1.092486   3.444941
    31  H    6.143971   4.145055   5.563815   1.091365   2.448449
    32  H    4.478890   1.097329   2.171056   3.518758   5.011411
    33  H    5.496648   1.094683   2.158030   2.733662   5.098600
    34  H    5.737814   2.172389   1.094136   5.137722   7.114599
    35  H    4.149403   2.180004   1.092535   5.138757   6.484664
    36  H    5.232868   2.180560   1.095832   4.622993   6.539150
    37  C    4.059401   4.597841   5.502082   3.265711   2.433351
    38  C    5.522465   5.190089   6.113771   3.181195   2.975406
    39  C    6.225418   5.557232   6.234382   3.863390   4.283652
    40  H    4.122197   5.551345   6.415467   4.243936   2.678959
    41  H    3.592106   4.250803   4.884483   3.664159   3.377265
    42  H    6.198720   5.722085   6.812202   3.191827   2.682372
    43  H    7.303421   6.314264   6.999302   4.360538   4.958923
    44  H    5.927561   5.403548   5.826451   4.343301   4.912451
                   16         17         18         19         20
    16  Si   0.000000
    17  C    1.888043   0.000000
    18  C    1.887832   3.083479   0.000000
    19  C    1.880590   3.091772   3.080190   0.000000
    20  H    2.521454   3.275758   1.094438   4.047162   0.000000
    21  H    2.502735   4.041173   1.095285   3.326168   1.771425
    22  H    2.482843   3.323967   1.096427   3.239292   1.765301
    23  H    2.490484   3.316075   3.284180   1.095668   4.279807
    24  H    2.492886   4.046055   3.297862   1.094985   4.325894
    25  H    2.497370   3.301861   4.039760   1.094915   4.919502
    26  H    2.510137   1.095017   4.046589   3.318175   4.296597
    27  H    2.522077   1.095150   3.304351   4.058225   3.122323
    28  H    2.477479   1.096484   3.281952   3.278113   3.547666
    29  H    5.345592   6.687679   6.196970   5.611429   6.527601
    30  H    5.050079   5.958052   6.311150   5.441627   6.582700
    31  H    3.873989   5.186188   5.053454   3.960208   5.546248
    32  H    6.481141   7.701847   6.622281   7.445008   6.477961
    33  H    6.738764   7.892635   7.323225   7.439574   7.347694
    34  H    8.690934   9.684750   9.005335   9.660957   8.782012
    35  H    7.956193   8.719450   8.195873   9.207736   7.797859
    36  H    8.154203   8.875086   8.761565   9.188092   8.525535
    37  C    3.589361   3.658256   4.876295   4.840070   4.803648
    38  C    4.092295   4.129695   5.715059   4.808908   5.873996
    39  C    5.417282   5.303535   7.043410   6.029287   7.162211
    40  H    3.315973   2.879617   4.576536   4.735150   4.419371
    41  H    4.583150   4.571867   5.677035   5.914359   5.446211
    42  H    3.596360   3.781121   5.370259   3.949341   5.722192
    43  H    6.001955   5.880696   7.735405   6.317848   7.963066
    44  H    6.110768   5.917856   7.601234   6.928157   7.579318
                   21         22         23         24         25
    21  H    0.000000
    22  H    1.767944   0.000000
    23  H    3.630384   3.064485   0.000000
    24  H    3.172242   3.537721   1.769749   0.000000
    25  H    4.331028   4.251510   1.770198   1.769799   0.000000
    26  H    4.914983   4.324222   3.634370   4.319909   3.155923
    27  H    4.300667   3.646332   4.320187   4.923257   4.322328
    28  H    4.300370   3.148882   3.127639   4.286316   3.576490
    29  H    5.793843   7.165543   6.687419   5.170778   5.542065
    30  H    6.211959   7.261426   6.531459   5.328639   5.123717
    31  H    4.833374   5.926956   5.051090   3.661338   3.797691
    32  H    6.151313   7.697047   8.427094   7.079752   7.710219
    33  H    6.928868   8.389223   8.503857   7.085361   7.460387
    34  H    8.617782  10.095401  10.691389   9.350599   9.764654
    35  H    7.967121   9.283271  10.187970   9.063168   9.370098
    36  H    8.571990   9.853890  10.236312   9.052721   9.149177
    37  C    5.282815   5.772876   5.733742   5.273370   4.700033
    38  C    6.089955   6.518253   5.735011   5.248379   4.339879
    39  C    7.408734   7.844408   6.940442   6.450327   5.439529
    40  H    5.191418   5.356423   5.477382   5.356040   4.649470
    41  H    6.044991   6.614924   6.808390   6.302011   5.790578
    42  H    5.729189   6.078728   4.869747   4.403923   3.351788
    43  H    8.086116   8.473828   7.197483   6.726519   5.572874
    44  H    7.970542   8.452915   7.842027   7.341705   6.419603
                   26         27         28         29         30
    26  H    0.000000
    27  H    1.772030   0.000000
    28  H    1.767965   1.763659   0.000000
    29  H    6.645573   6.959301   7.617797   0.000000
    30  H    5.675522   6.196102   6.963486   1.771880   0.000000
    31  H    5.083584   5.632406   6.061890   1.764759   1.769082
    32  H    7.957165   7.550233   8.657936   3.173336   4.082366
    33  H    7.914829   7.876678   8.905091   2.212857   2.957868
    34  H    9.781051   9.440058  10.713558   4.695710   5.239249
    35  H    8.873109   8.309585   9.744270   5.047193   5.240705
    36  H    8.820648   8.595619   9.951022   4.493766   4.406462
    37  C    3.438083   3.500332   4.753737   4.306108   3.125313
    38  C    3.553303   4.283807   5.156172   4.233987   2.681149
    39  C    4.601062   5.393815   6.297577   4.783233   3.033481
    40  H    2.682301   2.556027   3.948010   5.297811   4.170038
    41  H    4.373139   4.221702   5.657267   4.590953   3.392524
    42  H    3.148334   4.209956   4.714436   4.231623   2.857075
    43  H    5.059317   6.112024   6.796073   5.196496   3.448102
    44  H    5.284329   5.821784   6.941727   5.188170   3.485449
                   31         32         33         34         35
    31  H    0.000000
    32  H    4.389740   0.000000
    33  H    3.757585   1.760088   0.000000
    34  H    6.184031   2.508349   2.488480   0.000000
    35  H    6.159471   2.531774   3.074589   1.771136   0.000000
    36  H    5.711412   3.086440   2.517970   1.768643   1.769662
    37  C    3.456453   5.097759   4.895574   6.519377   5.608628
    38  C    3.202760   5.829565   5.186496   7.063476   6.438954
    39  C    4.067114   6.375389   5.469107   7.163705   6.622277
    40  H    4.269730   5.960393   5.929787   7.454477   6.395798
    41  H    4.128490   4.870502   4.678070   5.951013   4.897659
    42  H    2.845498   6.251659   5.602891   7.700130   7.201146
    43  H    4.434381   7.153132   6.070626   7.858327   7.486896
    44  H    4.765284   6.305150   5.429227   6.785411   6.134275
                   36         37         38         39         40
    36  H    0.000000
    37  C    5.413114   0.000000
    38  C    5.847949   1.504443   0.000000
    39  C    5.740046   2.514735   1.334243   0.000000
    40  H    6.355388   1.098693   2.120555   3.105354   0.000000
    41  H    4.696260   1.096227   2.139726   2.640482   1.750863
    42  H    6.629425   2.208144   1.088339   2.096191   2.614525
    43  H    6.444647   3.504766   2.116346   1.086072   4.027838
    44  H    5.216992   2.779940   2.119617   1.087859   3.368643
                   41         42         43         44
    41  H    0.000000
    42  H    3.089330   0.000000
    43  H    3.723498   2.439279   0.000000
    44  H    2.453179   3.077756   1.849603   0.000000
 Stoichiometry    C14H26O3Si
 Framework group  C1[X(C14H26O3Si)]
 Deg. of freedom   126
 Full point group                 C1      NOp   1
 Largest Abelian subgroup         C1      NOp   1
 Largest concise Abelian subgroup C1      NOp   1
                         Standard orientation:                         
 ---------------------------------------------------------------------
 Center     Atomic      Atomic             Coordinates (Angstroms)
 Number     Number       Type             X           Y           Z
 ---------------------------------------------------------------------
      1          6           0       -2.401560    0.141879   -0.350119
      2          6           0       -1.005449    0.323302   -0.963346
      3          6           0        0.101423    0.039722    0.092271
      4          6           0       -0.091369   -1.429883    0.502673
      5          6           0       -1.494364   -1.778337    0.961789
      6          1           0       -2.608665    0.982993    0.324197
      7          1           0       -0.870255   -0.455399   -1.727172
      8          1           0        0.123381   -2.068892   -0.361889
      9          1           0        0.588149   -1.729736    1.304408
     10          8           0       -2.526426   -1.053705    0.487336
     11          8           0       -1.725936   -2.709556    1.704709
     12          6           0       -3.527539    0.041606   -1.381978
     13          6           0       -4.923801   -0.073971   -0.762820
     14          6           0       -0.879998    1.681826   -1.669469
     15          8           0        1.350682    0.226441   -0.564976
     16         14           0        2.920329   -0.352344   -0.365531
     17          6           0        3.535022   -0.183506    1.411644
     18          6           0        3.064384   -2.153096   -0.913664
     19          6           0        3.934632    0.740458   -1.511651
     20          1           0        2.559767   -2.844280   -0.231447
     21          1           0        2.644140   -2.298563   -1.914605
     22          1           0        4.120532   -2.444897   -0.953106
     23          1           0        4.988886    0.442214   -1.502306
     24          1           0        3.575814    0.667821   -2.543622
     25          1           0        3.881207    1.792013   -1.211287
     26          1           0        3.462791    0.848329    1.771034
     27          1           0        2.988144   -0.824764    2.110977
     28          1           0        4.590208   -0.477599    1.460315
     29          1           0       -1.489359    1.706991   -2.576672
     30          1           0       -1.188779    2.508318   -1.025193
     31          1           0        0.158685    1.846537   -1.961162
     32          1           0       -3.326223   -0.821927   -2.028440
     33          1           0       -3.485187    0.930941   -2.018860
     34          1           0       -5.687271   -0.126700   -1.544783
     35          1           0       -5.008774   -0.969220   -0.142384
     36          1           0       -5.149463    0.794822   -0.134231
     37          6           0        0.049222    0.925627    1.368554
     38          6           0        0.317053    2.395262    1.190265
     39          6           0       -0.385976    3.369590    1.770469
     40          1           0        0.814786    0.518828    2.043500
     41          1           0       -0.908442    0.783753    1.882815
     42          1           0        1.175899    2.649604    0.572060
     43          1           0       -0.122704    4.415450    1.642342
     44          1           0       -1.248505    3.157849    2.398678
 ---------------------------------------------------------------------
 Rotational constants (GHZ):      0.5276037      0.2485200      0.2216601
 Standard basis: 6-311G(d) (5D, 7F)
 There are   428 symmetry adapted cartesian basis functions of A   symmetry.
 There are   410 symmetry adapted basis functions of A   symmetry.
   410 basis functions,   720 primitive gaussians,   428 cartesian basis functions
    74 alpha electrons       74 beta electrons
       nuclear repulsion energy      1616.9544633116 Hartrees.
 NAtoms=   44 NActive=   44 NUniq=   44 SFac= 1.00D+00 NAtFMM=   60 NAOKFM=F Big=F
 Integral buffers will be    131072 words long.
 Raffenetti 2 integral format.
 Two-electron integral symmetry is turned on.
 ------------------------------------------------------------------------------
 Polarizable Continuum Model (PCM)
 =================================
 Model                : PCM (using non-symmetric T matrix).
 Atomic radii         : UFF (Universal Force Field).
 Polarization charges : Total charges.
 Charge compensation  : None.
 Solution method      : On-the-fly selection.
 Cavity type          : Scaled VdW (van der Waals Surface) (Alpha=1.100).
 Cavity algorithm     : GePol (No added spheres)
                        Default sphere list used, NSphG=   44.
                        Lebedev-Laikov grids with approx.  5.0 points / Ang**2.
                        Smoothing algorithm: Karplus/York (Gamma=1.0000).
                        Polarization charges: spherical gaussians, with
                                              point-specific exponents (IZeta= 3).
                        Self-potential: point-specific (ISelfS= 7).
                        Self-field    : sphere-specific E.n sum rule (ISelfD= 2).
 Solvent              : Chloroform, Eps=   4.711300 Eps(inf)=   2.090627
 ------------------------------------------------------------------------------
 One-electron integrals computed using PRISM.
 NBasis=   410 RedAO= T EigKep=  1.12D-03  NBF=   410
 NBsUse=   410 1.00D-06 EigRej= -1.00D+00 NBFU=   410
 ExpMin= 6.54D-02 ExpMax= 6.94D+04 ExpMxC= 2.33D+03 IAcc=2 IRadAn=         4 AccDes= 0.00D+00
 Harris functional with IExCor=  908 and IRadAn=       4 diagonalized for initial guess.
 HarFok:  IExCor=  908 AccDes= 0.00D+00 IRadAn=         4 IDoV= 1 UseB2=F ITyADJ=14
 ICtDFT=  3500011 ScaDFX=  1.000000  1.000000  1.000000  1.000000
 FoFCou: FMM=F IPFlag=           0 FMFlag=      100000 FMFlg1=           0
         NFxFlg=           0 DoJE=T BraDBF=F KetDBF=T FulRan=T
         wScrn=  0.000000 ICntrl=     500 IOpCl=  0 I1Cent=   200000004 NGrid=           0
         NMat0=    1 NMatS0=      1 NMatT0=    0 NMatD0=    1 NMtDS0=    0 NMtDT0=    0
 Petite list used in FoFCou.
 Requested convergence on RMS density matrix=1.00D-08 within 128 cycles.
 Requested convergence on MAX density matrix=1.00D-06.
 Requested convergence on             energy=1.00D-06.
 No special actions if energy rises.
 Inv3:  Mode=1 IEnd=    25614252.
 Iteration    1 A*A^-1 deviation from unit magnitude is 5.33D-15 for   2897.
 Iteration    1 A*A^-1 deviation from orthogonality  is 2.73D-15 for   2392    438.
 Iteration    1 A^-1*A deviation from unit magnitude is 5.77D-15 for   2897.
 Iteration    1 A^-1*A deviation from orthogonality  is 4.44D-10 for   2307   2305.
 Iteration    2 A*A^-1 deviation from unit magnitude is 5.33D-15 for   1446.
 Iteration    2 A*A^-1 deviation from orthogonality  is 2.55D-15 for   2803   1682.
 Iteration    2 A^-1*A deviation from unit magnitude is 8.88D-16 for    552.
 Iteration    2 A^-1*A deviation from orthogonality  is 3.24D-16 for   2059    200.
 Error on total polarization charges =  0.01145
 SCF Done:  E(RmPW1PW91) =  -1064.38326721     A.U. after   13 cycles
            NFock= 13  Conv=0.33D-08     -V/T= 2.0036
 DoSCS=F DFT=T ScalE2(SS,OS)=  1.000000  1.000000
 Range of M.O.s used for correlation:     1   410
 NBasis=   410 NAE=    74 NBE=    74 NFC=     0 NFV=     0
 NROrb=    410 NOA=    74 NOB=    74 NVA=   336 NVB=   336
 NEqPCM:  Using equilibrium solvation (IEInf=0, Eps=   4.7113, EpsInf=   2.0906)
          Differentiating once with respect to magnetic field using GIAOs.
          Electric field/nuclear overlap derivatives assumed to be zero.
 FoFJK:  IHMeth= 1 ICntrl=    6127 DoSepK=F KAlg= 0 I1Cent=   0 FoldK=F
 IRaf=         1 NMat=   1 IRICut=       1 DoRegI=T DoRafI=F ISym2E= 0.
          There are     3 degrees of freedom in the 1st order CPHF.  IDoFFX=0 NUNeed=     3.
      3 vectors produced by pass  0 Test12= 8.29D-13 3.33D-08 XBig12= 3.62D+01 1.01D+00.
 AX will form     3 AO Fock derivatives at one time.
      3 vectors produced by pass  1 Test12= 8.29D-13 3.33D-08 XBig12= 7.57D-02 1.00D-01.
      3 vectors produced by pass  2 Test12= 8.29D-13 3.33D-08 XBig12= 7.55D-04 1.28D-02.
      3 vectors produced by pass  3 Test12= 8.29D-13 3.33D-08 XBig12= 4.34D-06 7.75D-04.
      3 vectors produced by pass  4 Test12= 8.29D-13 3.33D-08 XBig12= 2.49D-08 6.51D-05.
      3 vectors produced by pass  5 Test12= 8.29D-13 3.33D-08 XBig12= 7.38D-11 1.91D-06.
      2 vectors produced by pass  6 Test12= 8.29D-13 3.33D-08 XBig12= 2.07D-13 1.01D-07.
 InvSVY:  IOpt=1 It=  1 EMax= 8.88D-16
 Solved reduced A of dimension    20 with     3 vectors.
 Calculating GIAO nuclear magnetic shielding tensors.
 SCF GIAO Magnetic shielding tensor (ppm):
      1  C    Isotropic =   100.3945   Anisotropy =    51.8325
   XX=    93.2209   YX=    12.3464   ZX=    -3.0770
   XY=    -1.7219   YY=   118.4356   ZY=   -27.0552
   XZ=     3.9765   YZ=   -26.6992   ZZ=    89.5271
   Eigenvalues:    72.9784    93.2556   134.9495
      2  C    Isotropic =   137.5238   Anisotropy =    25.2806
   XX=   148.9014   YX=    -3.4844   ZX=    10.9183
   XY=    -3.9480   YY=   129.0201   ZY=     2.1677
   XZ=     9.8579   YZ=    10.5144   ZZ=   134.6500
   Eigenvalues:   121.7550   136.4389   154.3776
      3  C    Isotropic =   108.5376   Anisotropy =    54.8581
   XX=   136.7952   YX=     3.4993   ZX=   -21.0363
   XY=    -0.9051   YY=    85.9236   ZY=    -0.1508
   XZ=   -16.3627   YZ=    -0.1550   ZZ=   102.8941
   Eigenvalues:    85.8802    94.6229   145.1096
      4  C    Isotropic =   137.1171   Anisotropy =    31.0014
   XX=   137.0192   YX=    12.9017   ZX=    -2.5449
   XY=     7.1204   YY=   147.8104   ZY=    -5.8045
   XZ=    -4.9714   YZ=   -15.6669   ZZ=   126.5217
   Eigenvalues:   122.0349   131.5317   157.7846
      5  C    Isotropic =    13.8104   Anisotropy =    86.8512
   XX=   -62.5462   YX=    33.2104   ZX=   -11.7935
   XY=    43.0867   YY=    43.9570   ZY=    17.6399
   XZ=   -19.1757   YZ=    17.0470   ZZ=    60.0203
   Eigenvalues:   -77.7400    47.4600    71.7112
      6  H    Isotropic =    28.0301   Anisotropy =     2.0893
   XX=    29.2019   YX=     0.2464   ZX=     0.6799
   XY=    -0.0781   YY=    28.5526   ZY=     1.4103
   XZ=     0.3368   YZ=     0.7391   ZZ=    26.3358
   Eigenvalues:    25.8425    28.8249    29.4230
      7  H    Isotropic =    30.2573   Anisotropy =     3.3870
   XX=    30.0795   YX=    -0.5839   ZX=     1.5750
   XY=    -1.0880   YY=    30.2401   ZY=     1.7550
   XZ=     1.3317   YZ=     2.3266   ZZ=    30.4522
   Eigenvalues:    27.3431    30.9134    32.5153
      8  H    Isotropic =    29.5687   Anisotropy =     4.9134
   XX=    31.0422   YX=    -0.7159   ZX=    -1.3096
   XY=    -1.2069   YY=    31.1994   ZY=     1.9638
   XZ=    -1.8841   YZ=     1.0741   ZZ=    26.4646
   Eigenvalues:    25.7022    30.1596    32.8444
      9  H    Isotropic =    29.6421   Anisotropy =     3.9544
   XX=    31.0928   YX=    -0.0568   ZX=     0.9206
   XY=     0.7847   YY=    29.7406   ZY=    -3.3592
   XZ=     0.4318   YZ=    -3.1283   ZZ=    28.0929
   Eigenvalues:    25.4680    31.1799    32.2783
     10  O    Isotropic =    99.5980   Anisotropy =   188.6008
   XX=   160.4410   YX=   -56.1903   ZX=    48.9905
   XY=   -64.7907   YY=    43.1300   ZY=   142.1169
   XZ=    58.2477   YZ=   165.6494   ZZ=    95.2230
   Eigenvalues:  -110.9585   184.4207   225.3318
     11  O    Isotropic =  -102.8725   Anisotropy =   559.6362
   XX=  -221.7719   YX=    89.2763   ZX=   -18.9387
   XY=    76.8891   YY=  -116.6826   ZY=   291.1527
   XZ=     1.9185   YZ=   310.3073   ZZ=    29.8371
   Eigenvalues:  -384.2121  -194.6236   270.2183
     12  C    Isotropic =   156.5133   Anisotropy =    24.2933
   XX=   164.2779   YX=    -0.5596   ZX=    11.1255
   XY=     2.0718   YY=   145.6928   ZY=     4.7823
   XZ=     9.3007   YZ=     2.4822   ZZ=   159.5693
   Eigenvalues:   144.5807   152.2505   172.7088
     13  C    Isotropic =   175.6882   Anisotropy =    21.5661
   XX=   188.2569   YX=     0.0569   ZX=    -4.0545
   XY=     1.6300   YY=   166.3465   ZY=     6.1363
   XZ=    -7.1059   YZ=     5.0921   ZZ=   172.4614
   Eigenvalues:   162.4860   174.5131   190.0656
     14  C    Isotropic =   175.2540   Anisotropy =    15.1681
   XX=   168.7761   YX=    -0.4101   ZX=     3.1140
   XY=     3.3607   YY=   184.7790   ZY=    -2.4819
   XZ=     1.1621   YZ=    -2.7452   ZZ=   172.2069
   Eigenvalues:   167.3917   173.0042   185.3660
     15  O    Isotropic =   246.4493   Anisotropy =    21.3228
   XX=   239.8030   YX=     2.0344   ZX=     4.1013
   XY=   -15.2480   YY=   240.5648   ZY=     6.5174
   XZ=     7.2311   YZ=     0.3077   ZZ=   258.9801
   Eigenvalues:   232.0097   246.6737   260.6645
     16  Si   Isotropic =   332.4708   Anisotropy =    42.1934
   XX=   359.1804   YX=   -13.2372   ZX=     7.5225
   XY=    -0.9255   YY=   323.4841   ZY=    -8.1880
   XZ=    -6.3042   YZ=    -3.7720   ZZ=   314.7477
   Eigenvalues:   311.5518   325.2608   360.5997
     17  C    Isotropic =   185.6914   Anisotropy =     9.6140
   XX=   186.6807   YX=    -1.3743   ZX=     3.2574
   XY=    -2.8350   YY=   179.8337   ZY=     2.2713
   XZ=     2.2240   YZ=     2.5228   ZZ=   190.5596
   Eigenvalues:   178.4403   186.5331   192.1007
     18  C    Isotropic =   184.7466   Anisotropy =    12.2345
   XX=   185.5111   YX=    -2.4805   ZX=     0.1742
   XY=    -0.7116   YY=   190.8294   ZY=     5.4230
   XZ=     0.9883   YZ=     4.9986   ZZ=   177.8992
   Eigenvalues:   175.9377   185.3991   192.9029
     19  C    Isotropic =   186.8940   Anisotropy =    12.2073
   XX=   190.1204   YX=     0.9428   ZX=    -3.6630
   XY=     0.5951   YY=   186.3696   ZY=    -7.4532
   XZ=    -3.6617   YZ=    -8.0462   ZZ=   184.1919
   Eigenvalues:   177.0471   188.6026   195.0322
     20  H    Isotropic =    31.8671   Anisotropy =     6.8777
   XX=    31.2337   YX=     0.7263   ZX=    -2.6353
   XY=     1.4847   YY=    34.3850   ZY=    -2.8608
   XZ=    -2.6594   YZ=    -2.1487   ZZ=    29.9827
   Eigenvalues:    27.6041    31.5450    36.4523
     21  H    Isotropic =    31.9374   Anisotropy =     7.7800
   XX=    30.1351   YX=    -0.2976   ZX=     1.7362
   XY=     0.2031   YY=    30.4064   ZY=     3.4744
   XZ=     1.7785   YZ=     2.7079   ZZ=    35.2706
   Eigenvalues:    28.4381    30.2500    37.1240
     22  H    Isotropic =    32.2010   Anisotropy =    10.3334
   XX=    36.8042   YX=    -4.0498   ZX=    -1.1764
   XY=    -3.8274   YY=    31.5845   ZY=     0.8318
   XZ=    -1.0698   YZ=     0.7463   ZZ=    28.2144
   Eigenvalues:    28.0253    29.4878    39.0900
     23  H    Isotropic =    32.3282   Anisotropy =    10.2846
   XX=    38.8152   YX=    -0.7905   ZX=    -1.8567
   XY=    -1.0990   YY=    29.1851   ZY=    -0.5164
   XZ=    -1.6243   YZ=    -0.5969   ZZ=    28.9843
   Eigenvalues:    28.1619    29.6381    39.1846
     24  H    Isotropic =    31.8620   Anisotropy =     8.2773
   XX=    30.0808   YX=     0.7890   ZX=     0.3549
   XY=     0.3099   YY=    28.2916   ZY=    -1.3439
   XZ=     0.7298   YZ=    -0.8748   ZZ=    37.2137
   Eigenvalues:    27.9761    30.2298    37.3802
     25  H    Isotropic =    31.8393   Anisotropy =     8.2885
   XX=    29.7671   YX=     1.4305   ZX=    -1.2942
   XY=     0.9422   YY=    37.1667   ZY=     0.8839
   XZ=    -1.1338   YZ=     0.1633   ZZ=    28.5840
   Eigenvalues:    27.7010    30.4518    37.3649
     26  H    Isotropic =    31.8764   Anisotropy =     7.4668
   XX=    30.2363   YX=    -0.0256   ZX=     1.1441
   XY=    -0.1613   YY=    34.6657   ZY=     3.3551
   XZ=     1.1995   YZ=     3.8745   ZZ=    30.7272
   Eigenvalues:    28.0609    30.7141    36.8543
     27  H    Isotropic =    31.8728   Anisotropy =     6.9027
   XX=    31.7217   YX=     1.3694   ZX=    -0.7348
   XY=     1.5770   YY=    30.1560   ZY=    -3.1431
   XZ=    -1.5096   YZ=    -3.7697   ZZ=    33.7408
   Eigenvalues:    27.9214    31.2224    36.4746
     28  H    Isotropic =    32.1532   Anisotropy =    10.4974
   XX=    37.9820   YX=    -2.1460   ZX=     2.6037
   XY=    -2.2773   YY=    28.5493   ZY=    -0.4104
   XZ=     2.3278   YZ=    -0.4282   ZZ=    29.9283
   Eigenvalues:    28.0439    29.2642    39.1515
     29  H    Isotropic =    31.3746   Anisotropy =     9.9459
   XX=    30.5576   YX=     0.8361   ZX=     3.8427
   XY=     0.4090   YY=    28.5506   ZY=    -3.3953
   XZ=     3.9297   YZ=    -3.2685   ZZ=    35.0157
   Eigenvalues:    25.9220    30.1967    38.0052
     30  H    Isotropic =    31.2049   Anisotropy =     7.7432
   XX=    27.6792   YX=    -1.4970   ZX=     1.3759
   XY=    -1.6853   YY=    35.2554   ZY=     2.4978
   XZ=     1.0858   YZ=     2.2058   ZZ=    30.6800
   Eigenvalues:    26.5871    30.6605    36.3670
     31  H    Isotropic =    30.4419   Anisotropy =     6.5700
   XX=    34.0165   YX=     0.3036   ZX=    -0.7306
   XY=     1.0697   YY=    28.3987   ZY=    -3.8388
   XZ=    -1.6681   YZ=    -3.9311   ZZ=    28.9104
   Eigenvalues:    24.7500    31.7538    34.8219
     32  H    Isotropic =    30.6456   Anisotropy =     5.6381
   XX=    32.0556   YX=     0.3363   ZX=     0.2687
   XY=     0.2575   YY=    28.8175   ZY=     4.0289
   XZ=     0.2574   YZ=     4.4778   ZZ=    31.0637
   Eigenvalues:    25.5406    31.9918    34.4044
     33  H    Isotropic =    30.2918   Anisotropy =     5.7091
   XX=    32.9744   YX=     1.3236   ZX=     0.8412
   XY=     0.9632   YY=    28.5831   ZY=    -5.1618
   XZ=     1.1682   YZ=    -5.1024   ZZ=    29.3178
   Eigenvalues:    23.5594    33.2182    34.0979
     34  H    Isotropic =    31.0084   Anisotropy =    11.4614
   XX=    36.5334   YX=     0.6708   ZX=     4.3792
   XY=     0.9930   YY=    26.1400   ZY=     0.5899
   XZ=     3.8203   YZ=     0.3415   ZZ=    30.3519
   Eigenvalues:    26.0666    28.3093    38.6494
     35  H    Isotropic =    30.5085   Anisotropy =     7.7991
   XX=    32.5781   YX=     2.2488   ZX=    -1.6688
   XY=     2.0121   YY=    30.7923   ZY=    -3.9953
   XZ=    -0.6741   YZ=    -4.3406   ZZ=    28.1550
   Eigenvalues:    25.0876    30.7299    35.7079
     36  H    Isotropic =    31.1946   Anisotropy =     8.9966
   XX=    32.8671   YX=    -2.9290   ZX=    -2.8768
   XY=    -2.6002   YY=    31.2929   ZY=     3.1855
   XZ=    -2.1002   YZ=     3.8678   ZZ=    29.4238
   Eigenvalues:    26.6909    29.7005    37.1924
     37  C    Isotropic =   142.9351   Anisotropy =    30.9684
   XX=   126.5507   YX=     3.5243   ZX=    -0.3506
   XY=     2.2747   YY=   159.3075   ZY=    10.5424
   XZ=     0.4718   YZ=     7.7223   ZZ=   142.9470
   Eigenvalues:   126.2577   138.9669   163.5807
     38  C    Isotropic =    43.4921   Anisotropy =   184.6025
   XX=    33.7190   YX=   -52.9726   ZX=    94.5181
   XY=   -56.1187   YY=    -4.0406   ZY=    34.7799
   XZ=    92.2217   YZ=    32.9208   ZZ=   100.7980
   Eigenvalues:   -83.6093    47.5252   166.5605
     39  C    Isotropic =    68.6721   Anisotropy =   138.1240
   XX=    66.3879   YX=   -51.2014   ZX=    66.8336
   XY=   -55.8376   YY=    25.5546   ZY=    34.3827
   XZ=    65.9026   YZ=    42.2534   ZZ=   114.0739
   Eigenvalues:   -43.2535    88.5151   160.7548
     40  H    Isotropic =    29.5997   Anisotropy =     5.0600
   XX=    29.9409   YX=    -2.3925   ZX=     1.6733
   XY=    -2.0116   YY=    28.7368   ZY=     0.8488
   XZ=     3.0934   YZ=    -0.5995   ZZ=    30.1213
   Eigenvalues:    26.3078    29.5182    32.9730
     41  H    Isotropic =    29.6435   Anisotropy =     4.8720
   XX=    29.6563   YX=    -0.3772   ZX=    -1.8702
   XY=     1.1281   YY=    28.6806   ZY=     1.6145
   XZ=    -1.6975   YZ=     3.4801   ZZ=    30.5938
   Eigenvalues:    26.3418    29.6973    32.8915
     42  H    Isotropic =    25.5051   Anisotropy =     7.4556
   XX=    24.1983   YX=    -1.0375   ZX=     1.0153
   XY=    -2.0580   YY=    28.8901   ZY=     3.3112
   XZ=     1.2128   YZ=     2.9816   ZZ=    23.4269
   Eigenvalues:    21.0833    24.9565    30.4755
     43  H    Isotropic =    26.9018   Anisotropy =     6.9271
   XX=    25.4510   YX=    -2.7760   ZX=    -0.0818
   XY=    -1.0390   YY=    29.4221   ZY=     1.9522
   XZ=     0.2654   YZ=     3.9430   ZZ=    25.8322
   Eigenvalues:    23.5247    25.6609    31.5199
     44  H    Isotropic =    26.8033   Anisotropy =     7.0436
   XX=    25.8694   YX=    -1.2649   ZX=    -0.1782
   XY=    -3.8406   YY=    27.7375   ZY=     4.2511
   XZ=    -0.3428   YZ=     2.4975   ZZ=    26.8030
   Eigenvalues:    22.9371    25.9738    31.4990
 End of Minotr F.D. properties file   721 does not exist.
 End of Minotr F.D. properties file   722 does not exist.
 End of Minotr F.D. properties file   788 does not exist.

 **********************************************************************

            Population analysis using the SCF density.

 **********************************************************************

 Orbital symmetries:
       Occupied  (A) (A) (A) (A) (A) (A) (A) (A) (A) (A) (A) (A)
                 (A) (A) (A) (A) (A) (A) (A) (A) (A) (A) (A) (A)
                 (A) (A) (A) (A) (A) (A) (A) (A) (A) (A) (A) (A)
                 (A) (A) (A) (A) (A) (A) (A) (A) (A) (A) (A) (A)
                 (A) (A) (A) (A) (A) (A) (A) (A) (A) (A) (A) (A)
                 (A) (A) (A) (A) (A) (A) (A) (A) (A) (A) (A) (A)
                 (A) (A)
       Virtual   (A) (A) (A) (A) (A) (A) (A) (A) (A) (A) (A) (A)
                 (A) (A) (A) (A) (A) (A) (A) (A) (A) (A) (A) (A)
                 (A) (A) (A) (A) (A) (A) (A) (A) (A) (A) (A) (A)
                 (A) (A) (A) (A) (A) (A) (A) (A) (A) (A) (A) (A)
                 (A) (A) (A) (A) (A) (A) (A) (A) (A) (A) (A) (A)
                 (A) (A) (A) (A) (A) (A) (A) (A) (A) (A) (A) (A)
                 (A) (A) (A) (A) (A) (A) (A) (A) (A) (A) (A) (A)
                 (A) (A) (A) (A) (A) (A) (A) (A) (A) (A) (A) (A)
                 (A) (A) (A) (A) (A) (A) (A) (A) (A) (A) (A) (A)
                 (A) (A) (A) (A) (A) (A) (A) (A) (A) (A) (A) (A)
                 (A) (A) (A) (A) (A) (A) (A) (A) (A) (A) (A) (A)
                 (A) (A) (A) (A) (A) (A) (A) (A) (A) (A) (A) (A)
                 (A) (A) (A) (A) (A) (A) (A) (A) (A) (A) (A) (A)
                 (A) (A) (A) (A) (A) (A) (A) (A) (A) (A) (A) (A)
                 (A) (A) (A) (A) (A) (A) (A) (A) (A) (A) (A) (A)
                 (A) (A) (A) (A) (A) (A) (A) (A) (A) (A) (A) (A)
                 (A) (A) (A) (A) (A) (A) (A) (A) (A) (A) (A) (A)
                 (A) (A) (A) (A) (A) (A) (A) (A) (A) (A) (A) (A)
                 (A) (A) (A) (A) (A) (A) (A) (A) (A) (A) (A) (A)
                 (A) (A) (A) (A) (A) (A) (A) (A) (A) (A) (A) (A)
                 (A) (A) (A) (A) (A) (A) (A) (A) (A) (A) (A) (A)
                 (A) (A) (A) (A) (A) (A) (A) (A) (A) (A) (A) (A)
                 (A) (A) (A) (A) (A) (A) (A) (A) (A) (A) (A) (A)
                 (A) (A) (A) (A) (A) (A) (A) (A) (A) (A) (A) (A)
                 (A) (A) (A) (A) (A) (A) (A) (A) (A) (A) (A) (A)
                 (A) (A) (A) (A) (A) (A) (A) (A) (A) (A) (A) (A)
                 (A) (A) (A) (A) (A) (A) (A) (A) (A) (A) (A) (A)
                 (A) (A) (A) (A) (A) (A) (A) (A) (A) (A) (A) (A)
 The electronic state is 1-A.
 Alpha  occ. eigenvalues --  -66.27511 -19.25937 -19.20829 -19.19619 -10.37072
 Alpha  occ. eigenvalues --  -10.31801 -10.30554 -10.25284 -10.25230 -10.24375
 Alpha  occ. eigenvalues --  -10.24214 -10.23773 -10.22727 -10.22177 -10.22017
 Alpha  occ. eigenvalues --  -10.21074 -10.20883 -10.20735  -5.33245  -3.67135
 Alpha  occ. eigenvalues --   -3.66836  -3.66824  -1.13228  -1.04837  -1.04160
 Alpha  occ. eigenvalues --   -0.85875  -0.83129  -0.80824  -0.77736  -0.73996
 Alpha  occ. eigenvalues --   -0.72737  -0.71689  -0.70367  -0.70224  -0.66601
 Alpha  occ. eigenvalues --   -0.63789  -0.61858  -0.58738  -0.56293  -0.53371
 Alpha  occ. eigenvalues --   -0.52361  -0.50605  -0.49029  -0.48251  -0.47192
 Alpha  occ. eigenvalues --   -0.46663  -0.45318  -0.44747  -0.44126  -0.43759
 Alpha  occ. eigenvalues --   -0.42708  -0.42565  -0.42083  -0.41532  -0.41171
 Alpha  occ. eigenvalues --   -0.40951  -0.40385  -0.40077  -0.39753  -0.38725
 Alpha  occ. eigenvalues --   -0.38526  -0.37938  -0.36992  -0.36515  -0.36030
 Alpha  occ. eigenvalues --   -0.35533  -0.34306  -0.33430  -0.32228  -0.31098
 Alpha  occ. eigenvalues --   -0.30435  -0.29538  -0.28249  -0.26869
 Alpha virt. eigenvalues --    0.00566   0.00967   0.03791   0.05777   0.05912
 Alpha virt. eigenvalues --    0.06528   0.07452   0.07805   0.08179   0.09278
 Alpha virt. eigenvalues --    0.09475   0.09979   0.10242   0.10657   0.11182
 Alpha virt. eigenvalues --    0.11905   0.12910   0.13419   0.13494   0.13768
 Alpha virt. eigenvalues --    0.14332   0.14455   0.14611   0.14883   0.15569
 Alpha virt. eigenvalues --    0.15845   0.16205   0.17025   0.17594   0.17703
 Alpha virt. eigenvalues --    0.18350   0.19039   0.19195   0.19822   0.20913
 Alpha virt. eigenvalues --    0.22146   0.23244   0.23607   0.24203   0.24413
 Alpha virt. eigenvalues --    0.24839   0.25786   0.26866   0.27492   0.28012
 Alpha virt. eigenvalues --    0.29347   0.29449   0.31154   0.31796   0.32143
 Alpha virt. eigenvalues --    0.33123   0.33278   0.34125   0.35106   0.36317
 Alpha virt. eigenvalues --    0.37138   0.37860   0.38322   0.39446   0.40166
 Alpha virt. eigenvalues --    0.40874   0.42565   0.43312   0.43594   0.44278
 Alpha virt. eigenvalues --    0.44956   0.45611   0.47031   0.47676   0.48729
 Alpha virt. eigenvalues --    0.50745   0.50929   0.51296   0.51402   0.52328
 Alpha virt. eigenvalues --    0.53418   0.53833   0.54517   0.55532   0.56565
 Alpha virt. eigenvalues --    0.56879   0.58030   0.58130   0.58604   0.58894
 Alpha virt. eigenvalues --    0.59325   0.59546   0.60299   0.60541   0.61110
 Alpha virt. eigenvalues --    0.61285   0.61784   0.62721   0.62945   0.63187
 Alpha virt. eigenvalues --    0.63595   0.63923   0.64655   0.65153   0.65700
 Alpha virt. eigenvalues --    0.66214   0.66930   0.67379   0.67589   0.68108
 Alpha virt. eigenvalues --    0.68775   0.69035   0.69550   0.70288   0.70512
 Alpha virt. eigenvalues --    0.71741   0.72892   0.73202   0.73460   0.74802
 Alpha virt. eigenvalues --    0.75049   0.77089   0.78241   0.79052   0.81539
 Alpha virt. eigenvalues --    0.82245   0.83724   0.86626   0.87330   0.87752
 Alpha virt. eigenvalues --    0.90228   0.90759   0.91312   0.93020   0.93905
 Alpha virt. eigenvalues --    0.94497   0.96160   0.98075   1.00004   1.00694
 Alpha virt. eigenvalues --    1.02518   1.03704   1.04282   1.05325   1.11453
 Alpha virt. eigenvalues --    1.11901   1.14642   1.17899   1.18336   1.19057
 Alpha virt. eigenvalues --    1.21515   1.22740   1.24876   1.26716   1.27935
 Alpha virt. eigenvalues --    1.28698   1.29986   1.31285   1.31935   1.32395
 Alpha virt. eigenvalues --    1.35257   1.37798   1.38861   1.39922   1.41783
 Alpha virt. eigenvalues --    1.42301   1.44438   1.45692   1.47420   1.48521
 Alpha virt. eigenvalues --    1.49884   1.50713   1.51271   1.52139   1.53274
 Alpha virt. eigenvalues --    1.54485   1.54883   1.56007   1.56621   1.57412
 Alpha virt. eigenvalues --    1.58166   1.59243   1.59359   1.59971   1.60547
 Alpha virt. eigenvalues --    1.61146   1.61391   1.61638   1.63453   1.64149
 Alpha virt. eigenvalues --    1.64418   1.65114   1.66583   1.67464   1.68905
 Alpha virt. eigenvalues --    1.69541   1.71512   1.72734   1.73317   1.75233
 Alpha virt. eigenvalues --    1.75865   1.77743   1.78171   1.80060   1.80191
 Alpha virt. eigenvalues --    1.81484   1.81745   1.82803   1.84637   1.87332
 Alpha virt. eigenvalues --    1.89354   1.89750   1.93779   1.94802   1.98388
 Alpha virt. eigenvalues --    1.98885   2.04107   2.07373   2.09285   2.10918
 Alpha virt. eigenvalues --    2.14673   2.17506   2.22000   2.23063   2.26915
 Alpha virt. eigenvalues --    2.29141   2.31078   2.34746   2.35382   2.40707
 Alpha virt. eigenvalues --    2.41575   2.41950   2.42307   2.42765   2.43037
 Alpha virt. eigenvalues --    2.44076   2.44353   2.45232   2.46404   2.47405
 Alpha virt. eigenvalues --    2.47631   2.48436   2.50854   2.51399   2.51867
 Alpha virt. eigenvalues --    2.53363   2.54445   2.54999   2.58068   2.58673
 Alpha virt. eigenvalues --    2.60709   2.63352   2.66805   2.73088   2.79858
 Alpha virt. eigenvalues --    2.83393   2.86625   2.88555   2.90843   2.91540
 Alpha virt. eigenvalues --    2.92238   2.92656   2.94395   2.96408   2.97557
 Alpha virt. eigenvalues --    2.99044   2.99647   3.02334   3.03918   3.04155
 Alpha virt. eigenvalues --    3.06968   3.09816   3.10947   3.12836   3.15349
 Alpha virt. eigenvalues --    3.16393   3.16675   3.18313   3.18828   3.19192
 Alpha virt. eigenvalues --    3.22123   3.22885   3.23082   3.23939   3.24851
 Alpha virt. eigenvalues --    3.25404   3.26598   3.28436   3.29190   3.30045
 Alpha virt. eigenvalues --    3.34187   3.35108   3.37971   3.38963   3.40353
 Alpha virt. eigenvalues --    3.41748   3.50903   3.58279   3.61259   3.65259
 Alpha virt. eigenvalues --    3.78843   3.87848   3.88482   3.98137   4.04958
 Alpha virt. eigenvalues --    4.09634   4.14072   4.18654   4.22633   4.26612
 Alpha virt. eigenvalues --    4.93683   5.00512   5.01921   5.10604   5.14930
 Alpha virt. eigenvalues --    5.23750   5.52707   5.56229   5.76231   5.85253
 Alpha virt. eigenvalues --   11.52759  11.53364  11.56390  23.41237  23.48545
 Alpha virt. eigenvalues --   23.53972  23.54686  23.56994  23.61067  23.72491
 Alpha virt. eigenvalues --   23.72923  23.77989  23.80013  23.82112  23.87999
 Alpha virt. eigenvalues --   23.89000  24.28864  49.98372  50.05811  50.13259
 Alpha virt. eigenvalues --  141.26992
          Condensed to atoms (all electrons):
               1          2          3          4          5          6
     1  C    5.231261   0.265290  -0.047519  -0.002089  -0.048928   0.375784
     2  C    0.265290   5.549813   0.268517  -0.092317  -0.012327  -0.035310
     3  C   -0.047519   0.268517   5.190555   0.257341  -0.018654  -0.017892
     4  C   -0.002089  -0.092317   0.257341   5.878978   0.237981   0.002670
     5  C   -0.048928  -0.012327  -0.018654   0.237981   4.369832  -0.000874
     6  H    0.375784  -0.035310  -0.017892   0.002670  -0.000874   0.487285
     7  H   -0.048909   0.405451  -0.062893  -0.004527   0.000606   0.007396
     8  H    0.002022  -0.008887  -0.034084   0.369786  -0.022568  -0.000109
     9  H   -0.000983   0.008112  -0.028129   0.356821  -0.024260   0.000252
    10  O    0.208855  -0.029195   0.006866  -0.111968   0.353650  -0.033956
    11  O    0.002439  -0.000298   0.003820  -0.097639   0.672353  -0.000140
    12  C    0.326390  -0.067933   0.009082  -0.002539   0.001735  -0.047116
    13  C   -0.070277   0.006893  -0.000114   0.000057  -0.000023  -0.005955
    14  C   -0.062927   0.292297  -0.051762   0.006476   0.000296  -0.001045
    15  O    0.004042  -0.055295   0.216161  -0.020717   0.002002  -0.000079
    16  Si   0.000471   0.001564  -0.047281  -0.005864   0.001028  -0.000164
    17  C    0.000009  -0.000165   0.001032  -0.001238   0.000032   0.000001
    18  C   -0.000007  -0.000089   0.001269  -0.000990   0.000035   0.000001
    19  C   -0.000001   0.000065   0.002217  -0.000101   0.000001   0.000000
    20  H   -0.000004   0.000018   0.000237   0.000923   0.000026   0.000000
    21  H   -0.000011   0.000146   0.000568  -0.000178  -0.000038   0.000000
    22  H    0.000000   0.000004  -0.000071   0.000182   0.000002   0.000000
    23  H    0.000000   0.000000  -0.000068  -0.000002   0.000000   0.000000
    24  H   -0.000002   0.000087  -0.000153  -0.000046   0.000000   0.000000
    25  H    0.000000  -0.000003  -0.000090  -0.000019   0.000000   0.000000
    26  H    0.000003  -0.000075   0.000192   0.000067   0.000005   0.000000
    27  H    0.000006  -0.000057   0.000509   0.000647  -0.000028  -0.000001
    28  H    0.000000   0.000003  -0.000082   0.000039   0.000001   0.000000
    29  H   -0.007003  -0.033062   0.006455  -0.000370  -0.000007  -0.000374
    30  H   -0.005675  -0.041718  -0.006749  -0.000083  -0.000003   0.005889
    31  H    0.007146  -0.039953  -0.007897   0.000549  -0.000098  -0.000205
    32  H   -0.047230  -0.005142  -0.000921   0.000129   0.000129   0.008178
    33  H   -0.042405  -0.006383  -0.000237   0.000121   0.000004  -0.000533
    34  H    0.008046  -0.000220   0.000012   0.000000   0.000000  -0.000258
    35  H   -0.011553   0.000395  -0.000070   0.000391   0.000841   0.000232
    36  H   -0.003834  -0.000069  -0.000003  -0.000006  -0.000091   0.004769
    37  C    0.002836  -0.086857   0.296193  -0.109878   0.000364   0.006695
    38  C   -0.001009  -0.004619  -0.049394   0.008105  -0.000392  -0.000148
    39  C   -0.000390   0.001294  -0.000213  -0.000013  -0.000029   0.001603
    40  H   -0.000629   0.008789  -0.047754  -0.005297  -0.000256   0.000395
    41  H    0.000086  -0.004885  -0.020343  -0.007037   0.003695  -0.003726
    42  H    0.000094  -0.000520  -0.003282  -0.000109  -0.000016  -0.000037
    43  H    0.000010  -0.000021  -0.000265   0.000013   0.000000   0.000010
    44  H    0.000118  -0.000050   0.000093  -0.000033  -0.000013   0.000473
               7          8          9         10         11         12
     1  C   -0.048909   0.002022  -0.000983   0.208855   0.002439   0.326390
     2  C    0.405451  -0.008887   0.008112  -0.029195  -0.000298  -0.067933
     3  C   -0.062893  -0.034084  -0.028129   0.006866   0.003820   0.009082
     4  C   -0.004527   0.369786   0.356821  -0.111968  -0.097639  -0.002539
     5  C    0.000606  -0.022568  -0.024260   0.353650   0.672353   0.001735
     6  H    0.007396  -0.000109   0.000252  -0.033956  -0.000140  -0.047116
     7  H    0.485557   0.003199   0.000430   0.001366  -0.000164  -0.008450
     8  H    0.003199   0.403866  -0.013749   0.001030   0.000976  -0.000023
     9  H    0.000430  -0.013749   0.419195   0.004807   0.012556   0.000044
    10  O    0.001366   0.001030   0.004807   8.044156  -0.077729  -0.053935
    11  O   -0.000164   0.000976   0.012556  -0.077729   7.868202  -0.000145
    12  C   -0.008450  -0.000023   0.000044  -0.053935  -0.000145   5.308912
    13  C   -0.000185   0.000010  -0.000003  -0.006030  -0.000019   0.318290
    14  C   -0.035043   0.000021  -0.000107   0.003248   0.000004  -0.005433
    15  O    0.002579  -0.001590  -0.002171  -0.000011  -0.000020  -0.000076
    16  Si   0.000492  -0.004578  -0.001275  -0.000342  -0.000904  -0.000005
    17  C    0.000039   0.000236   0.002223   0.000000   0.000004   0.000000
    18  C    0.000052  -0.001545  -0.000015   0.000000   0.000007   0.000000
    19  C   -0.000027  -0.000102  -0.000020   0.000000   0.000000   0.000000
    20  H   -0.000027  -0.000429   0.000647   0.000001  -0.000002   0.000000
    21  H    0.000098   0.000331   0.000051   0.000001   0.000002   0.000000
    22  H   -0.000002   0.000266   0.000016   0.000000   0.000000   0.000000
    23  H   -0.000002   0.000001  -0.000003   0.000000   0.000000   0.000000
    24  H   -0.000016  -0.000025  -0.000007   0.000000   0.000000   0.000000
    25  H    0.000001  -0.000006  -0.000009   0.000000   0.000000   0.000000
    26  H    0.000008   0.000017  -0.000172   0.000000   0.000000   0.000000
    27  H    0.000001  -0.000043   0.002239   0.000000  -0.000022   0.000000
    28  H    0.000000   0.000002  -0.000006   0.000000   0.000000   0.000000
    29  H   -0.007984  -0.000028   0.000014  -0.000012   0.000000   0.001786
    30  H    0.007060  -0.000027   0.000031   0.000022   0.000000  -0.000642
    31  H   -0.002685   0.000062  -0.000036  -0.000107   0.000000  -0.000020
    32  H    0.006141  -0.000049   0.000023   0.002825  -0.000127   0.388487
    33  H    0.000278  -0.000014  -0.000002   0.003780   0.000007   0.388208
    34  H   -0.000029   0.000000   0.000000  -0.000150   0.000000  -0.037875
    35  H    0.000029  -0.000015  -0.000009   0.013074   0.000272  -0.038632
    36  H    0.000018   0.000000   0.000000  -0.000367  -0.000003  -0.040930
    37  C    0.009516   0.007565  -0.004995  -0.005188   0.000170  -0.000513
    38  C   -0.000607  -0.000236   0.000082   0.000328  -0.000003   0.000009
    39  C   -0.000050   0.000003  -0.000002  -0.000012   0.000000   0.000008
    40  H   -0.000184  -0.000088   0.003515  -0.000152   0.000007   0.000012
    41  H   -0.000451   0.000135  -0.000540   0.003948  -0.000365   0.000746
    42  H   -0.000081   0.000021  -0.000005   0.000000   0.000000   0.000009
    43  H   -0.000002  -0.000001   0.000000   0.000000   0.000000   0.000000
    44  H    0.000004   0.000002   0.000004  -0.000025   0.000000   0.000001
              13         14         15         16         17         18
     1  C   -0.070277  -0.062927   0.004042   0.000471   0.000009  -0.000007
     2  C    0.006893   0.292297  -0.055295   0.001564  -0.000165  -0.000089
     3  C   -0.000114  -0.051762   0.216161  -0.047281   0.001032   0.001269
     4  C    0.000057   0.006476  -0.020717  -0.005864  -0.001238  -0.000990
     5  C   -0.000023   0.000296   0.002002   0.001028   0.000032   0.000035
     6  H   -0.005955  -0.001045  -0.000079  -0.000164   0.000001   0.000001
     7  H   -0.000185  -0.035043   0.002579   0.000492   0.000039   0.000052
     8  H    0.000010   0.000021  -0.001590  -0.004578   0.000236  -0.001545
     9  H   -0.000003  -0.000107  -0.002171  -0.001275   0.002223  -0.000015
    10  O   -0.006030   0.003248  -0.000011  -0.000342   0.000000   0.000000
    11  O   -0.000019   0.000004  -0.000020  -0.000904   0.000004   0.000007
    12  C    0.318290  -0.005433  -0.000076  -0.000005   0.000000   0.000000
    13  C    5.337416  -0.000264   0.000001   0.000002   0.000000   0.000000
    14  C   -0.000264   5.412161  -0.009262  -0.000526  -0.000020   0.000006
    15  O    0.000001  -0.009262   8.283993   0.350988  -0.023771  -0.025318
    16  Si   0.000002  -0.000526   0.350988  11.519195   0.308669   0.316866
    17  C    0.000000  -0.000020  -0.023771   0.308669   5.788164  -0.055303
    18  C    0.000000   0.000006  -0.025318   0.316866  -0.055303   5.769158
    19  C    0.000000  -0.000001  -0.030446   0.334602  -0.043268  -0.046615
    20  H    0.000000   0.000001  -0.001255  -0.026458  -0.001351   0.371124
    21  H    0.000000  -0.000002  -0.002269  -0.024181   0.002063   0.369789
    22  H    0.000000   0.000000   0.000922  -0.011928   0.000554   0.362620
    23  H    0.000000  -0.000001   0.001205  -0.015025   0.000125   0.000719
    24  H    0.000000   0.000051  -0.001828  -0.023327   0.002076  -0.000627
    25  H    0.000000   0.000015  -0.001454  -0.025697  -0.000674   0.002153
    26  H    0.000000  -0.000001  -0.002336  -0.028390   0.371258   0.002069
    27  H    0.000000  -0.000002  -0.001315  -0.027057   0.368952  -0.000996
    28  H    0.000000   0.000000   0.000819  -0.010695   0.363039   0.000235
    29  H    0.000099   0.388285  -0.000138  -0.000037  -0.000001   0.000002
    30  H   -0.000141   0.384234  -0.000213  -0.000151   0.000002   0.000000
    31  H    0.000019   0.386026   0.011437   0.000572   0.000043  -0.000002
    32  H   -0.040841   0.000967  -0.000016  -0.000035   0.000000   0.000000
    33  H   -0.036897   0.001951  -0.000003  -0.000002   0.000000   0.000000
    34  H    0.392407  -0.000003   0.000000   0.000000   0.000000   0.000000
    35  H    0.384353  -0.000073   0.000000   0.000001   0.000000   0.000000
    36  H    0.384836   0.000038   0.000000   0.000000   0.000000   0.000000
    37  C   -0.000021  -0.003210  -0.068212  -0.014209  -0.001962  -0.000406
    38  C    0.000004  -0.014682   0.003240  -0.000185   0.000577   0.000032
    39  C    0.000000  -0.003567   0.000789   0.000473  -0.000015   0.000000
    40  H   -0.000002  -0.000438  -0.002506  -0.001740  -0.001661  -0.000152
    41  H   -0.000008   0.000514   0.003803   0.001645  -0.000067   0.000010
    42  H    0.000000  -0.000126   0.005095   0.002538  -0.000005   0.000027
    43  H    0.000000   0.000052   0.000016   0.000017  -0.000001   0.000000
    44  H   -0.000001   0.000067  -0.000003  -0.000002  -0.000001   0.000000
              19         20         21         22         23         24
     1  C   -0.000001  -0.000004  -0.000011   0.000000   0.000000  -0.000002
     2  C    0.000065   0.000018   0.000146   0.000004   0.000000   0.000087
     3  C    0.002217   0.000237   0.000568  -0.000071  -0.000068  -0.000153
     4  C   -0.000101   0.000923  -0.000178   0.000182  -0.000002  -0.000046
     5  C    0.000001   0.000026  -0.000038   0.000002   0.000000   0.000000
     6  H    0.000000   0.000000   0.000000   0.000000   0.000000   0.000000
     7  H   -0.000027  -0.000027   0.000098  -0.000002  -0.000002  -0.000016
     8  H   -0.000102  -0.000429   0.000331   0.000266   0.000001  -0.000025
     9  H   -0.000020   0.000647   0.000051   0.000016  -0.000003  -0.000007
    10  O    0.000000   0.000001   0.000001   0.000000   0.000000   0.000000
    11  O    0.000000  -0.000002   0.000002   0.000000   0.000000   0.000000
    12  C    0.000000   0.000000   0.000000   0.000000   0.000000   0.000000
    13  C    0.000000   0.000000   0.000000   0.000000   0.000000   0.000000
    14  C   -0.000001   0.000001  -0.000002   0.000000  -0.000001   0.000051
    15  O   -0.030446  -0.001255  -0.002269   0.000922   0.001205  -0.001828
    16  Si   0.334602  -0.026458  -0.024181  -0.011928  -0.015025  -0.023327
    17  C   -0.043268  -0.001351   0.002063   0.000554   0.000125   0.002076
    18  C   -0.046615   0.371124   0.369789   0.362620   0.000719  -0.000627
    19  C    5.721863   0.002320  -0.000403  -0.000440   0.361261   0.369533
    20  H    0.002320   0.450158  -0.020030  -0.022171  -0.000055  -0.000073
    21  H   -0.000403  -0.020030   0.450329  -0.020852   0.000009   0.001070
    22  H   -0.000440  -0.022171  -0.020852   0.451246   0.000724  -0.000110
    23  H    0.361261  -0.000055   0.000009   0.000724   0.460365  -0.021403
    24  H    0.369533  -0.000073   0.001070  -0.000110  -0.021403   0.452823
    25  H    0.370406  -0.000091  -0.000087  -0.000059  -0.021485  -0.019256
    26  H   -0.000357  -0.000034  -0.000091  -0.000052  -0.000078  -0.000070
    27  H    0.002379   0.000994  -0.000043   0.000005  -0.000059  -0.000082
    28  H   -0.000494   0.000031  -0.000043   0.000435   0.000559  -0.000062
    29  H   -0.000001   0.000000   0.000001   0.000000   0.000000   0.000005
    30  H    0.000001   0.000000   0.000000   0.000000   0.000000  -0.000004
    31  H    0.000054  -0.000001  -0.000010  -0.000001   0.000006   0.000176
    32  H    0.000000   0.000000   0.000000   0.000000   0.000000   0.000000
    33  H    0.000000   0.000000   0.000000   0.000000   0.000000   0.000000
    34  H    0.000000   0.000000   0.000000   0.000000   0.000000   0.000000
    35  H    0.000000   0.000000   0.000000   0.000000   0.000000   0.000000
    36  H    0.000000   0.000000   0.000000   0.000000   0.000000   0.000000
    37  C   -0.000216  -0.000084  -0.000045   0.000008   0.000003  -0.000026
    38  C   -0.000147   0.000004   0.000003  -0.000001  -0.000003  -0.000004
    39  C   -0.000002   0.000000   0.000000   0.000000   0.000000   0.000000
    40  H   -0.000020  -0.000047   0.000002   0.000005   0.000001   0.000000
    41  H    0.000003   0.000005   0.000003   0.000000   0.000000   0.000001
    42  H    0.000376   0.000001   0.000001   0.000000  -0.000013  -0.000032
    43  H   -0.000001   0.000000   0.000000   0.000000   0.000000   0.000000
    44  H    0.000000   0.000000   0.000000   0.000000   0.000000   0.000000
              25         26         27         28         29         30
     1  C    0.000000   0.000003   0.000006   0.000000  -0.007003  -0.005675
     2  C   -0.000003  -0.000075  -0.000057   0.000003  -0.033062  -0.041718
     3  C   -0.000090   0.000192   0.000509  -0.000082   0.006455  -0.006749
     4  C   -0.000019   0.000067   0.000647   0.000039  -0.000370  -0.000083
     5  C    0.000000   0.000005  -0.000028   0.000001  -0.000007  -0.000003
     6  H    0.000000   0.000000  -0.000001   0.000000  -0.000374   0.005889
     7  H    0.000001   0.000008   0.000001   0.000000  -0.007984   0.007060
     8  H   -0.000006   0.000017  -0.000043   0.000002  -0.000028  -0.000027
     9  H   -0.000009  -0.000172   0.002239  -0.000006   0.000014   0.000031
    10  O    0.000000   0.000000   0.000000   0.000000  -0.000012   0.000022
    11  O    0.000000   0.000000  -0.000022   0.000000   0.000000   0.000000
    12  C    0.000000   0.000000   0.000000   0.000000   0.001786  -0.000642
    13  C    0.000000   0.000000   0.000000   0.000000   0.000099  -0.000141
    14  C    0.000015  -0.000001  -0.000002   0.000000   0.388285   0.384234
    15  O   -0.001454  -0.002336  -0.001315   0.000819  -0.000138  -0.000213
    16  Si  -0.025697  -0.028390  -0.027057  -0.010695  -0.000037  -0.000151
    17  C   -0.000674   0.371258   0.368952   0.363039  -0.000001   0.000002
    18  C    0.002153   0.002069  -0.000996   0.000235   0.000002   0.000000
    19  C    0.370406  -0.000357   0.002379  -0.000494  -0.000001   0.000001
    20  H   -0.000091  -0.000034   0.000994   0.000031   0.000000   0.000000
    21  H   -0.000087  -0.000091  -0.000043  -0.000043   0.000001   0.000000
    22  H   -0.000059  -0.000052   0.000005   0.000435   0.000000   0.000000
    23  H   -0.021485  -0.000078  -0.000059   0.000559   0.000000   0.000000
    24  H   -0.019256  -0.000070  -0.000082  -0.000062   0.000005  -0.000004
    25  H    0.453587   0.001072  -0.000052  -0.000083  -0.000001  -0.000004
    26  H    0.001072   0.448204  -0.019925  -0.021177   0.000000  -0.000001
    27  H   -0.000052  -0.019925   0.448619  -0.021214   0.000000   0.000000
    28  H   -0.000083  -0.021177  -0.021214   0.444579   0.000000   0.000000
    29  H   -0.000001   0.000000   0.000000   0.000000   0.463933  -0.025948
    30  H   -0.000004  -0.000001   0.000000   0.000000  -0.025948   0.459135
    31  H    0.000063   0.000001   0.000003   0.000000  -0.024401  -0.024197
    32  H    0.000000   0.000000   0.000000   0.000000   0.000237   0.000107
    33  H    0.000000   0.000000   0.000000   0.000000   0.000591   0.000206
    34  H    0.000000   0.000000   0.000000   0.000000   0.000007   0.000004
    35  H    0.000000   0.000000   0.000000   0.000000  -0.000023  -0.000001
    36  H    0.000000   0.000000   0.000000   0.000000   0.000035  -0.000012
    37  C    0.000011  -0.000067  -0.000357   0.000240  -0.000529   0.002067
    38  C    0.000025   0.001357   0.000125  -0.000047   0.000530   0.002958
    39  C   -0.000007   0.000205  -0.000008  -0.000002   0.000185   0.002065
    40  H   -0.000008  -0.001344   0.000824   0.000396   0.000026   0.000245
    41  H    0.000000  -0.000048  -0.000073  -0.000005   0.000007  -0.000617
    42  H    0.000807   0.000331  -0.000024   0.000005   0.000059  -0.000861
    43  H   -0.000003  -0.000006   0.000000   0.000000  -0.000004   0.000010
    44  H    0.000000   0.000001   0.000001   0.000000   0.000004  -0.000038
              31         32         33         34         35         36
     1  C    0.007146  -0.047230  -0.042405   0.008046  -0.011553  -0.003834
     2  C   -0.039953  -0.005142  -0.006383  -0.000220   0.000395  -0.000069
     3  C   -0.007897  -0.000921  -0.000237   0.000012  -0.000070  -0.000003
     4  C    0.000549   0.000129   0.000121   0.000000   0.000391  -0.000006
     5  C   -0.000098   0.000129   0.000004   0.000000   0.000841  -0.000091
     6  H   -0.000205   0.008178  -0.000533  -0.000258   0.000232   0.004769
     7  H   -0.002685   0.006141   0.000278  -0.000029   0.000029   0.000018
     8  H    0.000062  -0.000049  -0.000014   0.000000  -0.000015   0.000000
     9  H   -0.000036   0.000023  -0.000002   0.000000  -0.000009   0.000000
    10  O   -0.000107   0.002825   0.003780  -0.000150   0.013074  -0.000367
    11  O    0.000000  -0.000127   0.000007   0.000000   0.000272  -0.000003
    12  C   -0.000020   0.388487   0.388208  -0.037875  -0.038632  -0.040930
    13  C    0.000019  -0.040841  -0.036897   0.392407   0.384353   0.384836
    14  C    0.386026   0.000967   0.001951  -0.000003  -0.000073   0.000038
    15  O    0.011437  -0.000016  -0.000003   0.000000   0.000000   0.000000
    16  Si   0.000572  -0.000035  -0.000002   0.000000   0.000001   0.000000
    17  C    0.000043   0.000000   0.000000   0.000000   0.000000   0.000000
    18  C   -0.000002   0.000000   0.000000   0.000000   0.000000   0.000000
    19  C    0.000054   0.000000   0.000000   0.000000   0.000000   0.000000
    20  H   -0.000001   0.000000   0.000000   0.000000   0.000000   0.000000
    21  H   -0.000010   0.000000   0.000000   0.000000   0.000000   0.000000
    22  H   -0.000001   0.000000   0.000000   0.000000   0.000000   0.000000
    23  H    0.000006   0.000000   0.000000   0.000000   0.000000   0.000000
    24  H    0.000176   0.000000   0.000000   0.000000   0.000000   0.000000
    25  H    0.000063   0.000000   0.000000   0.000000   0.000000   0.000000
    26  H    0.000001   0.000000   0.000000   0.000000   0.000000   0.000000
    27  H    0.000003   0.000000   0.000000   0.000000   0.000000   0.000000
    28  H    0.000000   0.000000   0.000000   0.000000   0.000000   0.000000
    29  H   -0.024401   0.000237   0.000591   0.000007  -0.000023   0.000035
    30  H   -0.024197   0.000107   0.000206   0.000004  -0.000001  -0.000012
    31  H    0.433395  -0.000129   0.000392  -0.000001   0.000005  -0.000005
    32  H   -0.000129   0.486672  -0.026019  -0.004744  -0.004194   0.006920
    33  H    0.000392  -0.026019   0.476477  -0.004775   0.006985  -0.004666
    34  H   -0.000001  -0.004744  -0.004775   0.471551  -0.025594  -0.027502
    35  H    0.000005  -0.004194   0.006985  -0.025594   0.460632  -0.027464
    36  H   -0.000005   0.006920  -0.004666  -0.027502  -0.027464   0.485984
    37  C    0.000115   0.000036   0.000029   0.000000  -0.000001  -0.000008
    38  C    0.000332  -0.000010  -0.000008   0.000000   0.000000  -0.000003
    39  C    0.000259   0.000000   0.000002   0.000000   0.000000  -0.000003
    40  H   -0.000119   0.000002   0.000001   0.000000   0.000000   0.000000
    41  H   -0.000059  -0.000037  -0.000038   0.000002  -0.000002  -0.000010
    42  H    0.000218  -0.000001   0.000001   0.000000   0.000000   0.000000
    43  H    0.000005   0.000000   0.000000   0.000000   0.000000   0.000000
    44  H   -0.000014   0.000000   0.000002   0.000000   0.000000   0.000003
              37         38         39         40         41         42
     1  C    0.002836  -0.001009  -0.000390  -0.000629   0.000086   0.000094
     2  C   -0.086857  -0.004619   0.001294   0.008789  -0.004885  -0.000520
     3  C    0.296193  -0.049394  -0.000213  -0.047754  -0.020343  -0.003282
     4  C   -0.109878   0.008105  -0.000013  -0.005297  -0.007037  -0.000109
     5  C    0.000364  -0.000392  -0.000029  -0.000256   0.003695  -0.000016
     6  H    0.006695  -0.000148   0.001603   0.000395  -0.003726  -0.000037
     7  H    0.009516  -0.000607  -0.000050  -0.000184  -0.000451  -0.000081
     8  H    0.007565  -0.000236   0.000003  -0.000088   0.000135   0.000021
     9  H   -0.004995   0.000082  -0.000002   0.003515  -0.000540  -0.000005
    10  O   -0.005188   0.000328  -0.000012  -0.000152   0.003948   0.000000
    11  O    0.000170  -0.000003   0.000000   0.000007  -0.000365   0.000000
    12  C   -0.000513   0.000009   0.000008   0.000012   0.000746   0.000009
    13  C   -0.000021   0.000004   0.000000  -0.000002  -0.000008   0.000000
    14  C   -0.003210  -0.014682  -0.003567  -0.000438   0.000514  -0.000126
    15  O   -0.068212   0.003240   0.000789  -0.002506   0.003803   0.005095
    16  Si  -0.014209  -0.000185   0.000473  -0.001740   0.001645   0.002538
    17  C   -0.001962   0.000577  -0.000015  -0.001661  -0.000067  -0.000005
    18  C   -0.000406   0.000032   0.000000  -0.000152   0.000010   0.000027
    19  C   -0.000216  -0.000147  -0.000002  -0.000020   0.000003   0.000376
    20  H   -0.000084   0.000004   0.000000  -0.000047   0.000005   0.000001
    21  H   -0.000045   0.000003   0.000000   0.000002   0.000003   0.000001
    22  H    0.000008  -0.000001   0.000000   0.000005   0.000000   0.000000
    23  H    0.000003  -0.000003   0.000000   0.000001   0.000000  -0.000013
    24  H   -0.000026  -0.000004   0.000000   0.000000   0.000001  -0.000032
    25  H    0.000011   0.000025  -0.000007  -0.000008   0.000000   0.000807
    26  H   -0.000067   0.001357   0.000205  -0.001344  -0.000048   0.000331
    27  H   -0.000357   0.000125  -0.000008   0.000824  -0.000073  -0.000024
    28  H    0.000240  -0.000047  -0.000002   0.000396  -0.000005   0.000005
    29  H   -0.000529   0.000530   0.000185   0.000026   0.000007   0.000059
    30  H    0.002067   0.002958   0.002065   0.000245  -0.000617  -0.000861
    31  H    0.000115   0.000332   0.000259  -0.000119  -0.000059   0.000218
    32  H    0.000036  -0.000010   0.000000   0.000002  -0.000037  -0.000001
    33  H    0.000029  -0.000008   0.000002   0.000001  -0.000038   0.000001
    34  H    0.000000   0.000000   0.000000   0.000000   0.000002   0.000000
    35  H   -0.000001   0.000000   0.000000   0.000000  -0.000002   0.000000
    36  H   -0.000008  -0.000003  -0.000003   0.000000  -0.000010   0.000000
    37  C    5.474374   0.320126  -0.059262   0.390751   0.379338  -0.047433
    38  C    0.320126   5.064337   0.620807  -0.038983  -0.043648   0.395526
    39  C   -0.059262   0.620807   5.151427  -0.004208   0.002179  -0.038636
    40  H    0.390751  -0.038983  -0.004208   0.461786  -0.025784  -0.000370
    41  H    0.379338  -0.043648   0.002179  -0.025784   0.453341   0.004745
    42  H   -0.047433   0.395526  -0.038636  -0.000370   0.004745   0.455342
    43  H    0.006355  -0.039309   0.393848  -0.000368   0.000105  -0.007712
    44  H   -0.008956  -0.040784   0.388347   0.000281   0.004419   0.005891
              43         44
     1  C    0.000010   0.000118
     2  C   -0.000021  -0.000050
     3  C   -0.000265   0.000093
     4  C    0.000013  -0.000033
     5  C    0.000000  -0.000013
     6  H    0.000010   0.000473
     7  H   -0.000002   0.000004
     8  H   -0.000001   0.000002
     9  H    0.000000   0.000004
    10  O    0.000000  -0.000025
    11  O    0.000000   0.000000
    12  C    0.000000   0.000001
    13  C    0.000000  -0.000001
    14  C    0.000052   0.000067
    15  O    0.000016  -0.000003
    16  Si   0.000017  -0.000002
    17  C   -0.000001  -0.000001
    18  C    0.000000   0.000000
    19  C   -0.000001   0.000000
    20  H    0.000000   0.000000
    21  H    0.000000   0.000000
    22  H    0.000000   0.000000
    23  H    0.000000   0.000000
    24  H    0.000000   0.000000
    25  H   -0.000003   0.000000
    26  H   -0.000006   0.000001
    27  H    0.000000   0.000001
    28  H    0.000000   0.000000
    29  H   -0.000004   0.000004
    30  H    0.000010  -0.000038
    31  H    0.000005  -0.000014
    32  H    0.000000   0.000000
    33  H    0.000000   0.000002
    34  H    0.000000   0.000000
    35  H    0.000000   0.000000
    36  H    0.000000   0.000003
    37  C    0.006355  -0.008956
    38  C   -0.039309  -0.040784
    39  C    0.393848   0.388347
    40  H   -0.000368   0.000281
    41  H    0.000105   0.004419
    42  H   -0.007712   0.005891
    43  H    0.455464  -0.033950
    44  H   -0.033950   0.463192
 Mulliken charges:
               1
     1  C   -0.033523
     2  C   -0.283287
     3  C    0.184802
     4  C   -0.658220
     5  C    0.483988
     6  H    0.246291
     7  H    0.241998
     8  H    0.298646
     9  H    0.265435
    10  O   -0.328779
    11  O   -0.383242
    12  C   -0.439452
    13  C   -0.663604
    14  C   -0.688215
    15  O   -0.636788
    16  Si   1.430933
    17  C   -1.079597
    18  C   -1.064110
    19  C   -1.042419
    20  H    0.245620
    21  H    0.243811
    22  H    0.238698
    23  H    0.233219
    24  H    0.241331
    25  H    0.240944
    26  H    0.249431
    27  H    0.246056
    28  H    0.243525
    29  H    0.237659
    30  H    0.243049
    31  H    0.259062
    32  H    0.228639
    33  H    0.242947
    34  H    0.229126
    35  H    0.240422
    36  H    0.222372
    37  C   -0.484359
    38  C   -0.184285
    39  C   -0.457078
    40  H    0.265069
    41  H    0.249010
    42  H    0.228176
    43  H    0.225737
    44  H    0.220965
 Sum of Mulliken charges =   0.00000
 Mulliken charges with hydrogens summed into heavy atoms:
               1
     1  C    0.212768
     2  C   -0.041289
     3  C    0.184802
     4  C   -0.094139
     5  C    0.483988
    10  O   -0.328779
    11  O   -0.383242
    12  C    0.032133
    13  C    0.028315
    14  C    0.051555
    15  O   -0.636788
    16  Si   1.430933
    17  C   -0.340584
    18  C   -0.335982
    19  C   -0.326926
    37  C    0.029720
    38  C    0.043891
    39  C   -0.010376
 Electronic spatial extent (au):  <R**2>=           5694.5327
 Charge=              0.0000 electrons
 Dipole moment (field-independent basis, Debye):
    X=              2.4567    Y=              3.0841    Z=             -2.5751  Tot=              4.7094
 Quadrupole moment (field-independent basis, Debye-Ang):
   XX=           -116.5397   YY=           -128.1002   ZZ=           -122.6250
   XY=            -11.9089   XZ=              7.8712   YZ=              8.6380
 Traceless Quadrupole moment (field-independent basis, Debye-Ang):
   XX=              5.8819   YY=             -5.6785   ZZ=             -0.2034
   XY=            -11.9089   XZ=              7.8712   YZ=              8.6380
 Octapole moment (field-independent basis, Debye-Ang**2):
  XXX=             20.3200  YYY=             32.3577  ZZZ=            -13.1558  XYY=             18.8826
  XXY=             13.1536  XXZ=            -18.4134  XZZ=             -5.6888  YZZ=              6.1502
  YYZ=            -20.1358  XYZ=            -19.6324
 Hexadecapole moment (field-independent basis, Debye-Ang**3):
 XXXX=          -4694.8266 YYYY=          -1829.2767 ZZZZ=          -1171.9567 XXXY=            -67.3065
 XXXZ=             47.1538 YYYX=            -23.9743 YYYZ=             64.8826 ZZZX=             -4.0849
 ZZZY=             -2.8636 XXYY=          -1145.6328 XXZZ=          -1010.6087 YYZZ=           -540.3907
 XXYZ=             34.5327 YYXZ=             37.1148 ZZXY=            -39.5687
 N-N= 1.616954463312D+03 E-N=-5.729010103862D+03  KE= 1.060533023623D+03
 1\1\GINC-CPU-E-609\SP\RmPW1PW91\6-311G(d)\C14H26O3Si1\KE291\06-Feb-201
 9\0\\# mPW1PW91/6-311g(d) geom=checkpoint nmr=giao scrf=(solvent=chlor
 oform)\\P_ng_correct1ginp003\\0,1\C,0,1.0406342109,-0.2822561397,0.769
 1764203\C,0,-0.4841346431,-0.4634478524,0.7507818781\C,0,-1.1998607032
 ,0.8415938285,1.2030107244\C,0,-0.7976680529,1.9078474213,0.1702084864
 \C,0,0.697900313,2.056124422,-0.0344676177\H,0,1.386913797,-0.26627000
 23,1.8107634656\H,0,-0.7930752064,-0.6046153211,-0.2945465953\H,0,-1.2
 217153686,1.6342147525,-0.8030473657\H,0,-1.1825324629,2.8985695637,0.
 4247372157\O,0,1.4894741354,0.9917570953,0.2019235062\O,0,1.2026154012
 ,3.0813581161,-0.442980258\C,0,1.8064955704,-1.3656594553,0.0060841994
 \C,0,3.3289454982,-1.2155767732,0.0827705541\C,0,-0.9043971948,-1.7221
 108796,1.5247848393\O,0,-2.59858705,0.5805886408,1.1489151676\Si,0,-3.
 9939333044,1.5032547567,0.9482722518\C,0,-4.0528721866,2.9906504956,2.
 1096879223\C,0,-4.1801743931,2.0896790789,-0.8364769479\C,0,-5.3753118
 842,0.2970667576,1.364831465\H,0,-3.4495858765,2.8582378671,-1.1073144
 016\H,0,-4.0733070032,1.2580184253,-1.541153731\H,0,-5.1777783843,2.52
 04737542,-0.9826048719\H,0,-6.3559674637,0.7693135584,1.2391905802\H,0
 ,-5.3409422712,-0.5809661479,0.7114791293\H,0,-5.3017075324,-0.0521180
 225,2.3999604232\H,0,-3.9422841017,2.6933450674,3.1577535268\H,0,-3.28
 01437698,3.7334672723,1.8850369272\H,0,-5.0228075914,3.4919450284,2.00
 86637364\H,0,-0.6003694281,-2.6267793322,0.9917624897\H,0,-0.469537124
 6,-1.7511109419,2.5265743251\H,0,-1.9910373388,-1.7432168666,1.6240078
 769\H,0,1.4755803578,-1.3491588939,-1.0400293335\H,0,1.5164759002,-2.3
 388564144,0.4148710427\H,0,3.822398988,-2.0234164377,-0.4658940889\H,0
 ,3.654919582,-0.2643953882,-0.3445798857\H,0,3.6772811718,-1.256033732
 7,1.1209774258\C,0,-0.82204403,1.3528043928,2.6215906188\C,0,-1.225524
 536,0.4912633953,3.7870515224\C,0,-0.4445740361,0.2181505922,4.8338222
 269\H,0,-1.3201283132,2.3262593214,2.7284707616\H,0,0.2532663985,1.560
 4283977,2.669692978\H,0,-2.2454935894,0.1121622763,3.7663611481\H,0,-0
 .8012064551,-0.3750625652,5.6707588779\H,0,0.5791679713,0.5809618889,4
 .8951193837\\Version=ES64L-G09RevD.01\State=1-A\HF=-1064.3832672\RMSD=
 3.324e-09\Dipole=-1.3035837,-1.1804115,0.58328\Quadrupole=-0.7747212,-
 1.0628481,1.8375692,-11.051151,5.4742623,4.2095044\PG=C01 [X(C14H26O3S
 i1)]\\@


 ERROR IS THE FORCE THAT WELDS MEN TOGETHER....
 TRUTH IS COMMUNICATED TO MEN ONLY BY DEEDS OF TRUTH.
           TOLSTOI,MY RELIGION
 Job cpu time:       0 days  0 hours 20 minutes  8.3 seconds.
 File lengths (MBytes):  RWF=    241 Int=      0 D2E=      0 Chk=     19 Scr=      1
 Normal termination of Gaussian 09 at Wed Feb  6 11:32:14 2019.
