 Entering Gaussian System, Link 0=/usr/local/Cluster-Apps/gaussian/g09/g09
 Initial command:
 /usr/local/Cluster-Apps/gaussian/g09/l1.exe "/home/ke291/rds/hpc-work/06Feb0927IP1/Gau-318214.inp" -scrdir="/home/ke291/rds/hpc-work/06Feb0927IP1/"
 Entering Link 1 = /usr/local/Cluster-Apps/gaussian/g09/l1.exe PID=    318218.
  
 Copyright (c) 1988,1990,1992,1993,1995,1998,2003,2009,2013,
            Gaussian, Inc.  All Rights Reserved.
  
 This is part of the Gaussian(R) 09 program.  It is based on
 the Gaussian(R) 03 system (copyright 2003, Gaussian, Inc.),
 the Gaussian(R) 98 system (copyright 1998, Gaussian, Inc.),
 the Gaussian(R) 94 system (copyright 1995, Gaussian, Inc.),
 the Gaussian 92(TM) system (copyright 1992, Gaussian, Inc.),
 the Gaussian 90(TM) system (copyright 1990, Gaussian, Inc.),
 the Gaussian 88(TM) system (copyright 1988, Gaussian, Inc.),
 the Gaussian 86(TM) system (copyright 1986, Carnegie Mellon
 University), and the Gaussian 82(TM) system (copyright 1983,
 Carnegie Mellon University). Gaussian is a federally registered
 trademark of Gaussian, Inc.
  
 This software contains proprietary and confidential information,
 including trade secrets, belonging to Gaussian, Inc.
  
 This software is provided under written license and may be
 used, copied, transmitted, or stored only in accord with that
 written license.
  
 The following legend is applicable only to US Government
 contracts under FAR:
  
                    RESTRICTED RIGHTS LEGEND
  
 Use, reproduction and disclosure by the US Government is
 subject to restrictions as set forth in subparagraphs (a)
 and (c) of the Commercial Computer Software - Restricted
 Rights clause in FAR 52.227-19.
  
 Gaussian, Inc.
 340 Quinnipiac St., Bldg. 40, Wallingford CT 06492
  
  
 ---------------------------------------------------------------
 Warning -- This program may not be used in any manner that
 competes with the business of Gaussian, Inc. or will provide
 assistance to any competitor of Gaussian, Inc.  The licensee
 of this program is prohibited from giving any competitor of
 Gaussian, Inc. access to this program.  By using this program,
 the user acknowledges that Gaussian, Inc. is engaged in the
 business of creating and licensing software in the field of
 computational chemistry and represents and warrants to the
 licensee that it is not a competitor of Gaussian, Inc. and that
 it will not use this program in any manner prohibited above.
 ---------------------------------------------------------------
  

 Cite this work as:
 Gaussian 09, Revision D.01,
 M. J. Frisch, G. W. Trucks, H. B. Schlegel, G. E. Scuseria, 
 M. A. Robb, J. R. Cheeseman, G. Scalmani, V. Barone, B. Mennucci, 
 G. A. Petersson, H. Nakatsuji, M. Caricato, X. Li, H. P. Hratchian, 
 A. F. Izmaylov, J. Bloino, G. Zheng, J. L. Sonnenberg, M. Hada, 
 M. Ehara, K. Toyota, R. Fukuda, J. Hasegawa, M. Ishida, T. Nakajima, 
 Y. Honda, O. Kitao, H. Nakai, T. Vreven, J. A. Montgomery, Jr., 
 J. E. Peralta, F. Ogliaro, M. Bearpark, J. J. Heyd, E. Brothers, 
 K. N. Kudin, V. N. Staroverov, T. Keith, R. Kobayashi, J. Normand, 
 K. Raghavachari, A. Rendell, J. C. Burant, S. S. Iyengar, J. Tomasi, 
 M. Cossi, N. Rega, J. M. Millam, M. Klene, J. E. Knox, J. B. Cross, 
 V. Bakken, C. Adamo, J. Jaramillo, R. Gomperts, R. E. Stratmann, 
 O. Yazyev, A. J. Austin, R. Cammi, C. Pomelli, J. W. Ochterski, 
 R. L. Martin, K. Morokuma, V. G. Zakrzewski, G. A. Voth, 
 P. Salvador, J. J. Dannenberg, S. Dapprich, A. D. Daniels, 
 O. Farkas, J. B. Foresman, J. V. Ortiz, J. Cioslowski, 
 and D. J. Fox, Gaussian, Inc., Wallingford CT, 2013.
 
 ******************************************
 Gaussian 09:  ES64L-G09RevD.01 24-Apr-2013
                 6-Feb-2019 
 ******************************************
 %nprocshared=2
 Will use up to    2 processors via shared memory.
 %mem=6000MB
 %chk=/home/ke291/rds/hpc-work/06Feb0927IP1/P_ng_3ginp005.chk
 ----------------------------------------------------------------------
 # mPW1PW91/6-311g(d) geom=checkpoint nmr=giao scrf=(solvent=chloroform
 )
 ----------------------------------------------------------------------
 1/29=2,38=1/1;
 2/12=2,40=1/2;
 3/5=4,6=6,7=1,11=2,14=-4,16=1,25=1,30=1,70=2201,72=7,74=-7/1,2,8,3;
 4//1;
 5/5=2,38=5,53=7/2;
 8/6=1,10=90,11=11/1;
 10/13=100,45=16/2;
 6/7=2,8=2,9=2,10=2,28=1/1;
 99/9=1/99;
 -------------
 P_ng_3ginp005
 -------------
 Structure from the checkpoint file:  "/home/ke291/rds/hpc-work/06Feb0927IP1/P_ng_3ginp005.chk"
 Charge =  0 Multiplicity = 1
 Redundant internal coordinates found in file.
 C,0,-0.7254264802,0.3517896951,-0.5626610959
 C,0,-1.0866253179,-0.3537341875,0.7559744922
 C,0,-1.6059671337,0.62760325,1.8464797285
 C,0,-0.9714152608,2.0346423897,1.6285024395
 C,0,0.3024982113,2.0807098392,0.8092658256
 H,0,-0.2254321678,-0.3815318274,-1.2049385571
 H,0,-0.1261766476,-0.7288949944,1.1302292612
 H,0,-1.7016872517,2.6402742008,1.0831869082
 H,0,-0.7741652193,2.5483977082,2.5709878576
 O,0,0.3436204423,1.3190336339,-0.3041650023
 O,0,1.2464652927,2.7969337189,1.0745531823
 C,0,-1.8604525531,0.9838416397,-1.3746982094
 C,0,-1.3786277775,1.6185680443,-2.6835134284
 C,0,-1.9977495189,-1.5651480237,0.5302508218
 O,0,-3.0209649679,0.7382218969,1.7065722937
 Si,0,-4.282500511,1.3002386274,2.6712093885
 C,0,-4.7538505907,0.0372479731,3.992491506
 C,0,-3.8841548339,2.9559537371,3.4884163529
 C,0,-5.7059594606,1.503155213,1.4582132141
 H,0,-3.0561189042,2.8883252574,4.201668774
 H,0,-3.6311603836,3.7242774145,2.7503763099
 H,0,-4.7620215639,3.3081402663,4.0429825766
 H,0,-6.6139149708,1.8358100849,1.9734770664
 H,0,-5.4679886221,2.2422700104,0.6862460093
 H,0,-5.9342866186,0.5567965513,0.9569088972
 H,0,-5.6738885251,0.3530249301,4.4984741725
 H,0,-4.9411093397,-0.9466204714,3.5492265137
 H,0,-3.9805769199,-0.0803029308,4.7578199987
 H,0,-2.1218295151,-2.1382615858,1.45328996
 H,0,-2.9902849585,-1.2668069259,0.1891405124
 H,0,-1.557498394,-2.2354808158,-0.2154683474
 H,0,-2.4045214772,1.7176268075,-0.7737330351
 H,0,-2.5794065265,0.1873513832,-1.5975876219
 H,0,-2.2220875205,2.0261644248,-3.2487854586
 H,0,-0.6726188158,2.4317909781,-2.4943848297
 H,0,-0.8751623874,0.8812870791,-3.3189381041
 C,0,-1.2528746992,0.0932028932,3.2638293985
 C,0,0.2182045306,-0.0273505173,3.5588539938
 C,0,0.8288560935,-1.1555195827,3.9261578636
 H,0,-1.7428028055,-0.8753807106,3.4068063566
 H,0,-1.6993399171,0.7882336097,3.988027313
 H,0,0.8089115068,0.885082149,3.4765543155
 H,0,1.892306625,-1.1816601162,4.1441564089
 H,0,0.285421855,-2.0920247172,4.0287959774
 Recover connectivity data from disk.
                          Input orientation:                          
 ---------------------------------------------------------------------
 Center     Atomic      Atomic             Coordinates (Angstroms)
 Number     Number       Type             X           Y           Z
 ---------------------------------------------------------------------
      1          6           0       -0.725426    0.351790   -0.562661
      2          6           0       -1.086625   -0.353734    0.755974
      3          6           0       -1.605967    0.627603    1.846480
      4          6           0       -0.971415    2.034642    1.628502
      5          6           0        0.302498    2.080710    0.809266
      6          1           0       -0.225432   -0.381532   -1.204939
      7          1           0       -0.126177   -0.728895    1.130229
      8          1           0       -1.701687    2.640274    1.083187
      9          1           0       -0.774165    2.548398    2.570988
     10          8           0        0.343620    1.319034   -0.304165
     11          8           0        1.246465    2.796934    1.074553
     12          6           0       -1.860453    0.983842   -1.374698
     13          6           0       -1.378628    1.618568   -2.683513
     14          6           0       -1.997750   -1.565148    0.530251
     15          8           0       -3.020965    0.738222    1.706572
     16         14           0       -4.282501    1.300239    2.671209
     17          6           0       -4.753851    0.037248    3.992492
     18          6           0       -3.884155    2.955954    3.488416
     19          6           0       -5.705959    1.503155    1.458213
     20          1           0       -3.056119    2.888325    4.201669
     21          1           0       -3.631160    3.724277    2.750376
     22          1           0       -4.762022    3.308140    4.042983
     23          1           0       -6.613915    1.835810    1.973477
     24          1           0       -5.467989    2.242270    0.686246
     25          1           0       -5.934287    0.556797    0.956909
     26          1           0       -5.673889    0.353025    4.498474
     27          1           0       -4.941109   -0.946620    3.549227
     28          1           0       -3.980577   -0.080303    4.757820
     29          1           0       -2.121830   -2.138262    1.453290
     30          1           0       -2.990285   -1.266807    0.189141
     31          1           0       -1.557498   -2.235481   -0.215468
     32          1           0       -2.404521    1.717627   -0.773733
     33          1           0       -2.579407    0.187351   -1.597588
     34          1           0       -2.222088    2.026164   -3.248785
     35          1           0       -0.672619    2.431791   -2.494385
     36          1           0       -0.875162    0.881287   -3.318938
     37          6           0       -1.252875    0.093203    3.263829
     38          6           0        0.218205   -0.027351    3.558854
     39          6           0        0.828856   -1.155520    3.926158
     40          1           0       -1.742803   -0.875381    3.406806
     41          1           0       -1.699340    0.788234    3.988027
     42          1           0        0.808912    0.885082    3.476554
     43          1           0        1.892307   -1.181660    4.144156
     44          1           0        0.285422   -2.092025    4.028796
 ---------------------------------------------------------------------
                    Distance matrix (angstroms):
                    1          2          3          4          5
     1  C    0.000000
     2  C    1.538515   0.000000
     3  C    2.579803   1.556259   0.000000
     4  C    2.773752   2.545372   1.558823   0.000000
     5  C    2.434744   2.803395   2.613345   1.515297   0.000000
     6  H    1.095571   2.141870   3.497911   3.797733   3.224649
     7  H    2.095914   1.096938   2.131404   2.932549   2.860185
     8  H    2.983130   3.073997   2.154675   1.094283   2.098786
     9  H    3.827168   3.437190   2.215007   1.091389   2.116979
    10  O    1.464665   2.442878   2.983997   2.444712   1.349655
    11  O    3.542253   3.933384   3.665820   2.409760   1.214260
    12  C    1.532050   2.632049   3.250793   3.303602   3.263614
    13  C    2.555272   3.975590   4.642686   4.351140   3.903750
    14  C    2.547138   1.532521   2.587298   3.901027   4.319869
    15  O    3.250884   2.416128   1.426194   2.426408   3.694975
    16  Si   4.900025   4.076441   2.880356   3.548221   5.009809
    17  C    6.089052   4.906776   3.855263   4.887212   6.314691
    18  C    5.759380   5.123128   3.647919   3.576611   5.046976
    19  C    5.496843   5.027865   4.210378   4.767325   6.070936
    20  H    5.879199   5.124711   3.572215   3.419934   4.841585
    21  H    5.549160   5.204083   3.808914   3.344804   4.684324
    22  H    6.800446   6.141847   4.687279   4.671210   6.132933
    23  H    6.580928   6.068554   5.153196   5.656531   7.017987
    24  H    5.256004   5.093176   4.343789   4.598927   5.774059
    25  H    5.429857   4.936523   4.419355   5.221605   6.421962
    26  H    7.078303   5.962281   4.863790   5.760020   7.232728
    27  H    6.030379   4.796959   4.062105   5.323118   6.645866
    28  H    6.252218   4.946159   3.823062   4.829149   6.213356
    29  H    3.494904   2.177713   2.840901   4.332122   4.908345
    30  H    2.883513   2.186075   2.872612   4.128821   4.736332
    31  H    2.739864   2.169422   3.528630   4.688035   4.810319
    32  H    2.174724   2.892644   2.948110   2.815143   3.156845
    33  H    2.129637   2.839089   3.605968   4.050405   4.205131
    34  H    3.501255   4.794924   5.319521   5.035096   4.779570
    35  H    2.839146   4.300626   4.792634   4.152735   3.462401
    36  H    2.810667   4.263204   5.223023   5.081010   4.457305
    37  C    3.871317   2.552788   1.555358   2.553958   3.520547
    38  C    4.245123   3.108897   2.586270   3.064844   3.465726
    39  C    4.983701   3.789722   3.665099   4.324041   4.523853
    40  H    4.277578   2.780215   2.170784   3.496518   4.434968
    41  H    4.674158   3.482194   2.149592   2.766002   3.972704
    42  H    4.353603   3.539672   2.924906   2.811823   2.966548
    43  H    5.599833   4.586859   4.559679   4.987386   4.928696
    44  H    5.298634   3.951649   3.966892   4.936642   5.270425
                    6          7          8          9         10
     6  H    0.000000
     7  H    2.362948   0.000000
     8  H    4.067697   3.719643   0.000000
     9  H    4.810740   3.638176   1.755645   0.000000
    10  O    2.006773   2.544053   2.802446   3.320736   0.000000
    11  O    4.179140   3.784008   2.952325   2.526665   2.213635
    12  C    2.136903   3.495117   2.968194   4.381358   2.473122
    13  C    2.741613   4.650145   3.916157   5.370265   2.952483
    14  C    2.748261   2.135902   4.251937   4.752160   3.807462
    15  O    4.188764   3.296119   2.397271   3.011986   3.962429
    16  Si   5.857702   4.875144   3.313323   3.725099   5.500382
    17  C    6.906173   5.494987   4.955351   4.915734   6.788847
    18  C    6.822950   5.767283   3.263119   3.267998   5.910775
    19  C    6.378135   6.018604   4.179459   5.162692   6.303752
    20  H    6.923594   5.576969   3.408951   2.825240   5.858621
    21  H    6.640871   5.894110   2.770821   3.094720   5.560063
    22  H    7.857162   6.802415   4.309534   4.318214   6.994413
    23  H    7.472058   7.027057   5.056655   5.913330   7.339074
    24  H    6.159977   6.128613   3.808017   5.067341   5.967251
    25  H    6.176169   5.951234   4.719293   5.761821   6.448522
    26  H    7.921753   6.579721   5.716124   5.704573   7.759441
    27  H    6.720046   5.392822   5.425958   5.525896   6.921718
    28  H    7.053109   5.332587   5.108601   4.687577   6.802979
    29  H    3.707911   2.464409   4.811226   5.003021   4.595648
    30  H    3.220494   3.062371   4.210117   5.013997   4.247923
    31  H    2.488087   2.475759   5.047800   5.591372   4.031959
    32  H    3.056278   3.847258   2.189385   3.812532   2.816319
    33  H    2.453364   3.781379   3.738151   5.119615   3.390831
    34  H    3.736435   5.582022   4.406124   6.019881   3.969091
    35  H    3.126889   4.840079   3.728467   5.067732   2.658577
    36  H    2.546734   4.790486   4.812056   6.122147   3.281145
    37  C    4.609870   2.549028   3.382929   2.595607   4.096589
    38  C    4.797497   2.551270   4.114746   2.931750   4.092847
    39  C    5.295161   2.985182   5.375331   4.257366   4.924886
    40  H    4.880009   2.796022   4.214348   3.655012   4.789564
    41  H    5.523373   3.597712   3.445019   2.441747   4.783132
    42  H    4.958886   2.997424   3.887417   2.468360   3.833882
    43  H    5.808428   3.655548   6.074003   4.847501   5.332866
    44  H    5.529804   3.229431   5.917759   4.978097   5.514822
                   11         12         13         14         15
    11  O    0.000000
    12  C    4.351905   0.000000
    13  C    4.733152   1.532328   0.000000
    14  C    5.463419   3.185126   4.565922   0.000000
    15  O    4.780032   3.301719   4.769186   2.781405   0.000000
    16  Si   5.946332   4.726076   6.099743   4.244318   1.684595
    17  C    7.220389   6.170455   7.646028   4.706472   2.952911
    18  C    5.672326   5.624454   6.794040   5.722729   2.972945
    19  C    7.082180   4.804477   5.991078   4.901675   2.802856
    20  H    5.319721   6.012699   7.199444   5.867954   3.293886
    21  H    5.240189   5.259433   6.247805   5.964479   3.221551
    22  H    6.721222   6.570596   7.716719   6.612823   3.885173
    23  H    7.969780   5.876354   7.010206   5.912563   3.766328
    24  H    6.748505   4.341135   5.335462   5.153962   3.048139
    25  H    7.522982   4.713267   5.927399   4.492328   3.013694
    26  H    8.098594   7.030959   8.463558   5.739354   3.870542
    27  H    7.643578   6.120634   7.623550   4.261474   3.149766
    28  H    7.011912   6.575341   8.064102   4.899868   3.301659
    29  H    5.987070   4.220588   5.637310   1.093552   3.024360
    30  H    5.937002   2.964377   4.378923   1.091096   2.514693
    31  H    5.903521   3.435059   4.580058   1.095109   3.831303
    32  H    4.232112   1.093440   2.170146   3.555622   2.736997
    33  H    5.346733   1.095888   2.160899   2.817317   3.378743
    34  H    5.596088   2.174723   1.094117   5.218138   5.181947
    35  H    4.068603   2.182018   1.093412   5.184584   5.102053
    36  H    5.241543   2.182059   1.095822   4.696967   5.466323
    37  C    4.283666   4.762177   6.141127   3.282898   2.442794
    38  C    3.899443   5.448235   6.650269   4.055578   3.809103
    39  C    4.891619   6.317303   7.500420   4.437305   4.830522
    40  H    5.278354   5.131602   6.591237   2.969065   2.669870
    41  H    4.604452   5.368710   6.730659   4.193289   2.637088
    42  H    3.101006   5.538042   6.577976   4.749914   4.221653
    43  H    5.066437   7.016435   8.072011   5.323525   5.811024
    44  H    5.792501   6.577498   7.848099   4.210735   4.933073
                   16         17         18         19         20
    16  Si   0.000000
    17  C    1.887618   0.000000
    18  C    1.888888   3.086957   0.000000
    19  C    1.881162   3.078630   3.090521   0.000000
    20  H    2.523556   3.324859   1.094964   4.057943   0.000000
    21  H    2.511270   4.049379   1.095003   3.302705   1.770802
    22  H    2.478582   3.271292   1.096462   3.290900   1.763953
    23  H    2.491819   3.281933   3.316829   1.095691   4.327879
    24  H    2.496575   4.037744   3.296973   1.094922   4.311925
    25  H    2.493979   3.298200   4.045680   1.095004   4.924261
    26  H    2.484365   1.096450   3.316414   3.250695   3.656304
    27  H    2.500611   1.095238   4.043629   3.310398   4.322693
    28  H    2.520118   1.094303   3.292345   4.046194   3.158588
    29  H    4.239706   4.255340   5.761819   5.109396   5.804572
    30  H    3.797395   4.390467   5.432857   4.081436   5.776663
    31  H    5.316000   5.752294   6.788452   5.829952   6.928950
    32  H    3.945712   5.573142   4.678535   3.990874   5.152644
    33  H    4.728813   5.999977   5.935905   4.565588   6.415130
    34  H    6.310199   7.924753   7.001204   5.879349   7.546403
    35  H    6.402735   8.029312   6.810479   6.466832   7.122263
    36  H    6.904154   8.319473   7.726471   6.822353   8.083582
    37  C    3.314629   3.576438   3.894794   5.007812   3.456001
    38  C    4.775642   4.991347   5.072910   6.469224   4.431204
    39  C    5.807892   5.709090   6.269633   7.474163   5.614412
    40  H    3.424104   3.200364   4.389894   5.016080   4.064737
    41  H    2.944296   3.145478   3.118018   4.792084   2.509358
    42  H    5.171403   5.650605   5.129671   6.848303   4.413302
    43  H    6.815984   6.758709   7.135639   8.494479   6.407418
    44  H    5.849479   5.470776   6.569586   7.445124   5.999972
                   21         22         23         24         25
    21  H    0.000000
    22  H    1.767158   0.000000
    23  H    3.614790   3.143266   0.000000
    24  H    3.135429   3.591956   1.770684   0.000000
    25  H    4.307418   4.297435   1.769514   1.769608   0.000000
    26  H    4.312068   3.125969   3.075372   4.259663   3.556967
    27  H    4.916443   4.287057   3.608765   4.317787   3.157020
    28  H    4.315872   3.550098   4.284685   4.917769   4.320857
    29  H    6.191113   6.583344   6.020189   5.565446   4.695164
    30  H    5.646377   6.238693   5.093210   4.324321   3.547132
    31  H    6.972448   7.689935   6.850857   6.012926   5.322364
    32  H    4.236819   5.593594   5.027934   3.433893   4.099011
    33  H    5.702703   6.805818   5.634463   4.216929   4.232867
    34  H    6.392106   7.827171   6.826156   5.105590   5.798908
    35  H    6.158816   7.760694   7.457612   5.757421   6.565987
    36  H    7.246702   8.671515   7.864735   6.244023   6.631960
    37  C    4.370879   4.822553   5.782944   5.387913   5.239506
    38  C    5.435619   6.013529   7.256903   6.762828   6.705557
    39  C    6.714658   7.155125   8.255656   7.854442   7.582121
    40  H    5.015341   5.198293   5.756103   5.567603   5.061785
    41  H    3.726133   3.966481   5.413767   5.217154   5.213062
    42  H    5.320019   6.101422   7.632921   7.001946   7.206046
    43  H    7.517947   8.027990   9.282930   8.823513   8.627650
    44  H    7.127646   7.391797   8.200797   7.941063   7.425464
                   26         27         28         29         30
    26  H    0.000000
    27  H    1.768365   0.000000
    28  H    1.767014   1.770262   0.000000
    29  H    5.300639   3.709622   4.313937   0.000000
    30  H    5.328784   3.898514   4.822997   1.764007   0.000000
    31  H    6.772465   5.223305   5.937146   1.764278   1.776208
    32  H    6.351934   5.676308   6.026158   4.461773   3.190155
    33  H    6.838511   5.775225   6.513534   3.863380   2.340042
    34  H    8.644904   7.902120   8.463759   6.281879   4.822149
    35  H    8.845001   8.133813   8.357492   6.210453   5.123720
    36  H    9.187969   8.188092   8.706450   5.783253   4.625437
    37  C    4.597523   3.842624   3.114879   3.002094   3.784433
    38  C    5.978656   5.240579   4.366931   3.790133   4.815145
    39  C    6.699921   5.786036   4.997839   3.973337   5.344485
    40  H    4.260769   3.202268   2.732219   2.356853   3.473154
    41  H    4.030757   3.702882   2.559488   3.894581   4.507912
    42  H    6.584383   6.035160   5.051021   4.671557   5.465493
    43  H    7.728396   6.863291   6.006691   4.926372   6.284035
    44  H    6.458502   5.372017   4.772551   3.525653   5.114117
                   31         32         33         34         35
    31  H    0.000000
    32  H    4.081197   0.000000
    33  H    2.970634   1.746730   0.000000
    34  H    5.272979   2.500872   2.497071   0.000000
    35  H    5.268766   2.543651   3.078570   1.770454   0.000000
    36  H    4.450994   3.084878   2.519731   1.769145   1.767760
    37  C    4.197747   4.501883   5.040032   6.862206   6.242013
    38  C    4.719584   5.356767   5.870402   7.517706   6.594137
    39  C    4.900415   6.387384   6.628071   8.420878   7.506437
    40  H    3.873640   4.963715   5.183943   7.276371   6.848849
    41  H    5.179995   4.902593   5.686358   7.360516   6.765878
    42  H    5.382271   5.392979   6.141209   7.464531   6.343450
    43  H    5.658447   7.145224   7.405271   9.048423   7.981610
    44  H    4.629332   6.694290   6.712599   8.729850   7.995914
                   36         37         38         39         40
    36  H    0.000000
    37  C    6.640525   0.000000
    38  C    7.023183   1.505207   0.000000
    39  C    7.716455   2.516265   1.334381   0.000000
    40  H    7.005307   1.094818   2.141921   2.638491   0.000000
    41  H    7.353888   1.098572   2.127521   3.189636   1.762759
    42  H    7.001060   2.218848   1.090065   2.089640   3.100861
    43  H    8.222677   3.506054   2.116040   1.085879   3.721762
    44  H    8.011038   2.779703   2.118547   1.087611   2.445565
                   41         42         43         44
    41  H    0.000000
    42  H    2.561701   0.000000
    43  H    4.099364   2.427110   0.000000
    44  H    3.498118   3.072813   1.850446   0.000000
 Stoichiometry    C14H26O3Si
 Framework group  C1[X(C14H26O3Si)]
 Deg. of freedom   126
 Full point group                 C1      NOp   1
 Largest Abelian subgroup         C1      NOp   1
 Largest concise Abelian subgroup C1      NOp   1
                         Standard orientation:                         
 ---------------------------------------------------------------------
 Center     Atomic      Atomic             Coordinates (Angstroms)
 Number     Number       Type             X           Y           Z
 ---------------------------------------------------------------------
      1          6           0       -2.147592   -0.780463   -0.774269
      2          6           0       -1.077048    0.236720   -1.205897
      3          6           0       -0.007613    0.495631   -0.105344
      4          6           0       -0.641742    0.276236    1.301666
      5          6           0       -2.153019    0.353754    1.380145
      6          1           0       -2.934313   -0.777540   -1.536723
      7          1           0       -1.629296    1.179005   -1.307853
      8          1           0       -0.375304   -0.734701    1.624890
      9          1           0       -0.238779    0.963912    2.047220
     10          8           0       -2.850325   -0.258052    0.399824
     11          8           0       -2.752122    0.883851    2.293655
     12          6           0       -1.713689   -2.233986   -0.559382
     13          6           0       -2.875766   -3.154548   -0.171861
     14          6           0       -0.482960   -0.099589   -2.577968
     15          8           0        1.048424   -0.446468   -0.282156
     16         14           0        2.638611   -0.582653    0.256935
     17          6           0        3.797028    0.537031   -0.726672
     18          6           0        2.810166   -0.211186    2.100974
     19          6           0        3.064773   -2.383122   -0.082874
     20          1           0        2.567015    0.827317    2.348631
     21          1           0        2.171645   -0.860814    2.708678
     22          1           0        3.847288   -0.384478    2.411743
     23          1           0        4.102692   -2.598035    0.194751
     24          1           0        2.418076   -3.058864    0.486344
     25          1           0        2.946924   -2.622161   -1.144951
     26          1           0        4.839088    0.313052   -0.469484
     27          1           0        3.680431    0.376937   -1.803855
     28          1           0        3.628650    1.599197   -0.524313
     29          1           0        0.162474    0.708570   -2.933143
     30          1           0        0.114463   -1.012082   -2.547432
     31          1           0       -1.282755   -0.228615   -3.314816
     32          1           0       -0.916025   -2.293849    0.186111
     33          1           0       -1.270818   -2.580435   -1.500025
     34          1           0       -2.530925   -4.187144   -0.062673
     35          1           0       -3.328194   -2.846331    0.774639
     36          1           0       -3.661229   -3.143222   -0.935893
     37          6           0        0.547470    1.943703   -0.224122
     38          6           0       -0.461648    3.039979   -0.010796
     39          6           0       -0.739701    3.998681   -0.896319
     40          1           0        1.022533    2.059178   -1.203717
     41          1           0        1.339591    2.045412    0.530239
     42          1           0       -0.982019    3.044772    0.947030
     43          1           0       -1.466137    4.776996   -0.682660
     44          1           0       -0.245396    4.043383   -1.864080
 ---------------------------------------------------------------------
 Rotational constants (GHZ):      0.4360111      0.3030137      0.2450861
 Standard basis: 6-311G(d) (5D, 7F)
 There are   428 symmetry adapted cartesian basis functions of A   symmetry.
 There are   410 symmetry adapted basis functions of A   symmetry.
   410 basis functions,   720 primitive gaussians,   428 cartesian basis functions
    74 alpha electrons       74 beta electrons
       nuclear repulsion energy      1636.1308565803 Hartrees.
 NAtoms=   44 NActive=   44 NUniq=   44 SFac= 1.00D+00 NAtFMM=   60 NAOKFM=F Big=F
 Integral buffers will be    131072 words long.
 Raffenetti 2 integral format.
 Two-electron integral symmetry is turned on.
 ------------------------------------------------------------------------------
 Polarizable Continuum Model (PCM)
 =================================
 Model                : PCM (using non-symmetric T matrix).
 Atomic radii         : UFF (Universal Force Field).
 Polarization charges : Total charges.
 Charge compensation  : None.
 Solution method      : On-the-fly selection.
 Cavity type          : Scaled VdW (van der Waals Surface) (Alpha=1.100).
 Cavity algorithm     : GePol (No added spheres)
                        Default sphere list used, NSphG=   44.
                        Lebedev-Laikov grids with approx.  5.0 points / Ang**2.
                        Smoothing algorithm: Karplus/York (Gamma=1.0000).
                        Polarization charges: spherical gaussians, with
                                              point-specific exponents (IZeta= 3).
                        Self-potential: point-specific (ISelfS= 7).
                        Self-field    : sphere-specific E.n sum rule (ISelfD= 2).
 Solvent              : Chloroform, Eps=   4.711300 Eps(inf)=   2.090627
 ------------------------------------------------------------------------------
 One-electron integrals computed using PRISM.
 NBasis=   410 RedAO= T EigKep=  6.47D-04  NBF=   410
 NBsUse=   410 1.00D-06 EigRej= -1.00D+00 NBFU=   410
 ExpMin= 6.54D-02 ExpMax= 6.94D+04 ExpMxC= 2.33D+03 IAcc=2 IRadAn=         4 AccDes= 0.00D+00
 Harris functional with IExCor=  908 and IRadAn=       4 diagonalized for initial guess.
 HarFok:  IExCor=  908 AccDes= 0.00D+00 IRadAn=         4 IDoV= 1 UseB2=F ITyADJ=14
 ICtDFT=  3500011 ScaDFX=  1.000000  1.000000  1.000000  1.000000
 FoFCou: FMM=F IPFlag=           0 FMFlag=      100000 FMFlg1=           0
         NFxFlg=           0 DoJE=T BraDBF=F KetDBF=T FulRan=T
         wScrn=  0.000000 ICntrl=     500 IOpCl=  0 I1Cent=   200000004 NGrid=           0
         NMat0=    1 NMatS0=      1 NMatT0=    0 NMatD0=    1 NMtDS0=    0 NMtDT0=    0
 Petite list used in FoFCou.
 Requested convergence on RMS density matrix=1.00D-08 within 128 cycles.
 Requested convergence on MAX density matrix=1.00D-06.
 Requested convergence on             energy=1.00D-06.
 No special actions if energy rises.
 Inv3:  Mode=1 IEnd=    25195212.
 Iteration    1 A*A^-1 deviation from unit magnitude is 3.55D-15 for   1448.
 Iteration    1 A*A^-1 deviation from orthogonality  is 2.75D-15 for   2344    954.
 Iteration    1 A^-1*A deviation from unit magnitude is 3.33D-15 for   2888.
 Iteration    1 A^-1*A deviation from orthogonality  is 2.33D-10 for   2558   2537.
 Iteration    2 A*A^-1 deviation from unit magnitude is 4.77D-15 for   1447.
 Iteration    2 A*A^-1 deviation from orthogonality  is 2.67D-15 for   2293    387.
 Iteration    2 A^-1*A deviation from unit magnitude is 8.88D-16 for     72.
 Iteration    2 A^-1*A deviation from orthogonality  is 4.78D-16 for   2593   1473.
 Error on total polarization charges =  0.01119
 SCF Done:  E(RmPW1PW91) =  -1064.38196740     A.U. after   12 cycles
            NFock= 12  Conv=0.87D-08     -V/T= 2.0036
 DoSCS=F DFT=T ScalE2(SS,OS)=  1.000000  1.000000
 Range of M.O.s used for correlation:     1   410
 NBasis=   410 NAE=    74 NBE=    74 NFC=     0 NFV=     0
 NROrb=    410 NOA=    74 NOB=    74 NVA=   336 NVB=   336
 NEqPCM:  Using equilibrium solvation (IEInf=0, Eps=   4.7113, EpsInf=   2.0906)
          Differentiating once with respect to magnetic field using GIAOs.
          Electric field/nuclear overlap derivatives assumed to be zero.
 FoFJK:  IHMeth= 1 ICntrl=    6127 DoSepK=F KAlg= 0 I1Cent=   0 FoldK=F
 IRaf=         1 NMat=   1 IRICut=       1 DoRegI=T DoRafI=F ISym2E= 0.
          There are     3 degrees of freedom in the 1st order CPHF.  IDoFFX=0 NUNeed=     3.
      3 vectors produced by pass  0 Test12= 8.29D-13 3.33D-08 XBig12= 2.95D+01 8.17D-01.
 AX will form     3 AO Fock derivatives at one time.
      3 vectors produced by pass  1 Test12= 8.29D-13 3.33D-08 XBig12= 6.56D-02 8.72D-02.
      3 vectors produced by pass  2 Test12= 8.29D-13 3.33D-08 XBig12= 4.88D-04 5.80D-03.
      3 vectors produced by pass  3 Test12= 8.29D-13 3.33D-08 XBig12= 1.76D-06 2.06D-04.
      3 vectors produced by pass  4 Test12= 8.29D-13 3.33D-08 XBig12= 6.87D-09 1.32D-05.
      3 vectors produced by pass  5 Test12= 8.29D-13 3.33D-08 XBig12= 1.79D-11 7.92D-07.
      1 vectors produced by pass  6 Test12= 8.29D-13 3.33D-08 XBig12= 6.90D-14 4.85D-08.
 InvSVY:  IOpt=1 It=  1 EMax= 8.88D-16
 Solved reduced A of dimension    19 with     3 vectors.
 Calculating GIAO nuclear magnetic shielding tensors.
 SCF GIAO Magnetic shielding tensor (ppm):
      1  C    Isotropic =    98.4298   Anisotropy =    49.2627
   XX=    83.7112   YX=    -4.1722   ZX=   -25.3665
   XY=     4.2891   YY=    92.5304   ZY=     3.6474
   XZ=   -18.8277   YZ=    13.8225   ZZ=   119.0477
   Eigenvalues:    72.3178    91.7000   131.2716
      2  C    Isotropic =   145.2051   Anisotropy =     7.0745
   XX=   146.5985   YX=     2.6113   ZX=    -6.9829
   XY=     1.9881   YY=   144.5161   ZY=     8.0932
   XZ=     3.7825   YZ=     2.5442   ZZ=   144.5006
   Eigenvalues:   138.2740   147.4198   149.9214
      3  C    Isotropic =   106.7368   Anisotropy =    49.0932
   XX=   118.0783   YX=   -22.7960   ZX=    -0.5863
   XY=   -25.3998   YY=   111.9507   ZY=     3.4917
   XZ=     0.1584   YZ=     4.4822   ZZ=    90.1813
   Eigenvalues:    87.5053    93.2395   139.4656
      4  C    Isotropic =   138.7579   Anisotropy =    30.5354
   XX=   149.8431   YX=    -0.8005   ZX=   -10.9119
   XY=    -2.9671   YY=   125.7616   ZY=     3.2155
   XZ=   -15.1879   YZ=    -5.3036   ZZ=   140.6690
   Eigenvalues:   125.1368   132.0222   159.1149
      5  C    Isotropic =    10.9309   Anisotropy =    97.9858
   XX=   -35.4832   YX=   -27.0745   ZX=   -42.4945
   XY=   -33.4666   YY=    51.8942   ZY=   -38.8174
   XZ=   -55.4874   YZ=   -37.5437   ZZ=    16.3818
   Eigenvalues:   -80.9320    37.4699    76.2548
      6  H    Isotropic =    27.8898   Anisotropy =     4.6172
   XX=    29.4776   YX=     0.9877   ZX=     0.9753
   XY=     0.3349   YY=    25.4990   ZY=    -0.1544
   XZ=     2.6525   YZ=    -0.2742   ZZ=    28.6929
   Eigenvalues:    25.2980    27.4035    30.9680
      7  H    Isotropic =    30.0030   Anisotropy =     6.5020
   XX=    29.2836   YX=    -1.0040   ZX=     1.6915
   XY=    -1.8510   YY=    33.8120   ZY=    -0.9066
   XZ=     0.8778   YZ=    -0.2328   ZZ=    26.9134
   Eigenvalues:    26.3504    29.3210    34.3377
      8  H    Isotropic =    29.3766   Anisotropy =     2.2972
   XX=    30.0622   YX=    -0.2128   ZX=    -0.3331
   XY=    -0.2965   YY=    28.6245   ZY=    -1.0105
   XZ=     1.1496   YZ=    -2.0891   ZZ=    29.4431
   Eigenvalues:    27.4299    29.7918    30.9080
      9  H    Isotropic =    29.3247   Anisotropy =     4.6612
   XX=    29.6005   YX=     0.4319   ZX=    -0.4316
   XY=    -0.2402   YY=    27.1290   ZY=     2.0463
   XZ=    -1.6222   YZ=     2.1801   ZZ=    31.2447
   Eigenvalues:    26.1651    29.3769    32.4322
     10  O    Isotropic =    87.4545   Anisotropy =   203.2762
   XX=    62.6776   YX=    52.5653   ZX=   115.9060
   XY=    75.0715   YY=   175.7372   ZY=  -106.3412
   XZ=   119.2074   YZ=   -86.5072   ZZ=    23.9487
   Eigenvalues:  -120.4349   159.8264   222.9720
     11  O    Isotropic =  -101.6271   Anisotropy =   564.0175
   XX=  -198.9086   YX=   -21.5773   ZX=   -10.2736
   XY=     3.6817   YY=    96.7300   ZY=  -299.9651
   XZ=    -5.7564   YZ=  -282.2379   ZZ=  -202.7027
   Eigenvalues:  -381.0583  -198.2075   274.3846
     12  C    Isotropic =   162.6320   Anisotropy =    11.1255
   XX=   162.1368   YX=     1.6714   ZX=    -2.4637
   XY=    -2.0381   YY=   169.6382   ZY=    -0.6144
   XZ=    -0.1213   YZ=    -4.1685   ZZ=   156.1210
   Eigenvalues:   155.4555   162.3915   170.0491
     13  C    Isotropic =   175.5704   Anisotropy =    22.7589
   XX=   182.1581   YX=    11.8335   ZX=     1.2865
   XY=     8.4706   YY=   178.1990   ZY=    -4.0683
   XZ=     2.0286   YZ=    -7.0550   ZZ=   166.3542
   Eigenvalues:   162.3530   173.6152   190.7431
     14  C    Isotropic =   176.5226   Anisotropy =    16.4154
   XX=   174.8154   YX=     1.2106   ZX=    -2.0721
   XY=    -0.7654   YY=   168.1405   ZY=     2.2679
   XZ=    -3.5836   YZ=     1.9750   ZZ=   186.6119
   Eigenvalues:   167.8555   174.2461   187.4662
     15  O    Isotropic =   233.0605   Anisotropy =    51.7695
   XX=   202.4581   YX=     3.0928   ZX=   -21.5582
   XY=    -5.2735   YY=   255.6274   ZY=   -17.0356
   XZ=   -13.2646   YZ=   -15.8143   ZZ=   241.0960
   Eigenvalues:   194.9249   236.6831   267.5735
     16  Si   Isotropic =   333.0973   Anisotropy =    42.0586
   XX=   353.2824   YX=     0.0303   ZX=    19.9725
   XY=   -15.6978   YY=   327.4210   ZY=    -6.4361
   XZ=    10.7500   YZ=     1.0862   ZZ=   318.5887
   Eigenvalues:   312.7591   325.3965   361.1364
     17  C    Isotropic =   184.8937   Anisotropy =    12.7593
   XX=   189.5889   YX=     3.7564   ZX=    -2.9926
   XY=     2.6762   YY=   183.0032   ZY=    -6.5364
   XZ=    -1.8169   YZ=    -6.7524   ZZ=   182.0890
   Eigenvalues:   175.8708   185.4105   193.3999
     18  C    Isotropic =   186.0992   Anisotropy =     9.1243
   XX=   186.9250   YX=    -1.1021   ZX=     2.0166
   XY=    -1.5832   YY=   179.5037   ZY=     1.4564
   XZ=    -0.3458   YZ=     1.9541   ZZ=   191.8688
   Eigenvalues:   179.0089   187.1066   192.1820
     19  C    Isotropic =   186.7854   Anisotropy =    11.9814
   XX=   188.2219   YX=    -2.2660   ZX=     1.9886
   XY=    -1.3353   YY=   194.0066   ZY=     2.2757
   XZ=     1.9464   YZ=     2.9811   ZZ=   178.1277
   Eigenvalues:   177.2460   188.3371   194.7730
     20  H    Isotropic =    31.8620   Anisotropy =     6.8771
   XX=    29.8552   YX=    -1.6622   ZX=     1.3427
   XY=    -1.8747   YY=    34.6380   ZY=     2.5273
   XZ=     0.6286   YZ=     3.2731   ZZ=    31.0928
   Eigenvalues:    27.8645    31.2748    36.4468
     21  H    Isotropic =    31.9002   Anisotropy =     7.3903
   XX=    31.6231   YX=     1.8467   ZX=    -1.3871
   XY=     1.7043   YY=    30.2468   ZY=    -2.9825
   XZ=    -2.1354   YZ=    -3.3894   ZZ=    33.8307
   Eigenvalues:    28.2252    30.6484    36.8270
     22  H    Isotropic =    32.1489   Anisotropy =    10.5428
   XX=    36.6221   YX=    -1.2337   ZX=     4.4902
   XY=    -1.3348   YY=    28.2003   ZY=    -0.2694
   XZ=     3.9898   YZ=    -0.0937   ZZ=    31.6243
   Eigenvalues:    27.8942    29.3751    39.1774
     23  H    Isotropic =    32.3450   Anisotropy =    10.4458
   XX=    37.2212   YX=    -3.8939   ZX=     1.7918
   XY=    -3.5665   YY=    31.2248   ZY=    -0.2941
   XZ=     1.8387   YZ=    -0.4223   ZZ=    28.5890
   Eigenvalues:    28.1308    29.5953    39.3089
     24  H    Isotropic =    32.0172   Anisotropy =     7.9743
   XX=    31.6743   YX=     1.7571   ZX=    -1.9143
   XY=     2.4244   YY=    34.9821   ZY=    -2.9681
   XZ=    -1.7192   YZ=    -2.5048   ZZ=    29.3950
   Eigenvalues:    27.9969    30.7212    37.3334
     25  H    Isotropic =    31.8881   Anisotropy =     7.9646
   XX=    29.2763   YX=    -1.2598   ZX=     0.4226
   XY=    -0.9686   YY=    31.1057   ZY=     3.7753
   XZ=     0.4588   YZ=     3.0491   ZZ=    35.2823
   Eigenvalues:    28.0454    30.4210    37.1978
     26  H    Isotropic =    32.2535   Anisotropy =    10.3973
   XX=    39.1393   YX=    -0.3055   ZX=     0.4850
   XY=    -0.4169   YY=    28.9740   ZY=    -0.6680
   XZ=     0.6427   YZ=    -0.6946   ZZ=    28.6472
   Eigenvalues:    28.1055    29.4699    39.1850
     27  H    Isotropic =    31.8910   Anisotropy =     7.7857
   XX=    30.4663   YX=     0.4730   ZX=    -1.4198
   XY=     0.3348   YY=    28.2955   ZY=    -0.4335
   XZ=    -0.6791   YZ=     0.1997   ZZ=    36.9112
   Eigenvalues:    28.2222    30.3694    37.0815
     28  H    Isotropic =    31.9234   Anisotropy =     6.6685
   XX=    31.3872   YX=     0.4205   ZX=    -1.0446
   XY=    -0.3232   YY=    36.3664   ZY=     0.4469
   XZ=    -0.8288   YZ=    -0.1634   ZZ=    28.0165
   Eigenvalues:    27.7711    31.6300    36.3690
     29  H    Isotropic =    31.0543   Anisotropy =     8.4920
   XX=    29.4377   YX=     4.0209   ZX=    -1.9421
   XY=     3.2356   YY=    30.3677   ZY=    -2.2364
   XZ=    -2.4555   YZ=    -2.5649   ZZ=    33.3576
   Eigenvalues:    26.2440    30.2033    36.7156
     30  H    Isotropic =    30.8935   Anisotropy =     5.7893
   XX=    30.2148   YX=    -3.0590   ZX=    -0.2238
   XY=    -3.1157   YY=    31.5624   ZY=     1.6081
   XZ=    -0.6612   YZ=     1.8643   ZZ=    30.9034
   Eigenvalues:    27.5410    30.3865    34.7531
     31  H    Isotropic =    31.4551   Anisotropy =    10.8649
   XX=    30.8070   YX=     1.0634   ZX=     3.8614
   XY=     1.0669   YY=    27.0025   ZY=     0.6854
   XZ=     4.1439   YZ=     0.5126   ZZ=    36.5557
   Eigenvalues:    26.6945    28.9724    38.6983
     32  H    Isotropic =    30.1520   Anisotropy =     8.5053
   XX=    33.1750   YX=     2.9033   ZX=     3.8528
   XY=     2.5864   YY=    31.0188   ZY=    -1.1186
   XZ=     3.8067   YZ=    -1.2138   ZZ=    26.2621
   Eigenvalues:    23.8588    30.7749    35.8222
     33  H    Isotropic =    30.4744   Anisotropy =     5.1674
   XX=    29.3789   YX=     1.7051   ZX=    -4.1539
   XY=     1.8576   YY=    31.9056   ZY=     1.9361
   XZ=    -4.0376   YZ=     1.9507   ZZ=    30.1385
   Eigenvalues:    24.6893    32.8145    33.9193
     34  H    Isotropic =    30.9827   Anisotropy =    10.8393
   XX=    28.9156   YX=     1.0522   ZX=    -0.2593
   XY=     0.3575   YY=    37.8634   ZY=    -1.5395
   XZ=    -0.0818   YZ=    -2.1848   ZZ=    26.1692
   Eigenvalues:    25.8786    28.8606    38.2089
     35  H    Isotropic =    30.7827   Anisotropy =     7.8838
   XX=    30.1156   YX=     2.0827   ZX=    -4.6714
   XY=     2.8092   YY=    30.1686   ZY=     0.3365
   XZ=    -4.3207   YZ=     0.0723   ZZ=    32.0640
   Eigenvalues:    25.5562    30.7534    36.0386
     36  H    Isotropic =    31.2363   Anisotropy =    10.2942
   XX=    34.3528   YX=     3.1488   ZX=     4.3845
   XY=     3.8062   YY=    29.3718   ZY=     0.8827
   XZ=     3.6588   YZ=     0.7908   ZZ=    29.9843
   Eigenvalues:    26.7941    28.8157    38.0991
     37  C    Isotropic =   136.6810   Anisotropy =    28.6875
   XX=   139.5642   YX=    -2.4539   ZX=     1.3106
   XY=    -2.0180   YY=   155.4963   ZY=    -2.4133
   XZ=    -3.6147   YZ=     1.5436   ZZ=   114.9826
   Eigenvalues:   114.9216   139.3155   155.8060
     38  C    Isotropic =    46.1304   Anisotropy =   175.3514
   XX=    55.7956   YX=    72.0307   ZX=    88.5963
   XY=    76.2404   YY=    75.7475   ZY=    -5.7504
   XZ=    85.6183   YZ=    -3.7295   ZZ=     6.8482
   Eigenvalues:   -76.4581    51.8180   163.0314
     39  C    Isotropic =    63.5445   Anisotropy =   143.9848
   XX=    62.4345   YX=    69.3427   ZX=    76.7938
   XY=    65.1317   YY=    89.8186   ZY=   -17.5729
   XZ=    78.1017   YZ=   -15.5207   ZZ=    38.3803
   Eigenvalues:   -51.8644    82.9636   159.5344
     40  H    Isotropic =    29.4812   Anisotropy =     3.8743
   XX=    29.4600   YX=     0.3811   ZX=    -1.8320
   XY=     0.5403   YY=    30.8832   ZY=    -1.6772
   XZ=    -0.7274   YZ=    -1.6996   ZZ=    28.1005
   Eigenvalues:    26.9118    29.4678    32.0641
     41  H    Isotropic =    29.7325   Anisotropy =     5.3481
   XX=    31.8753   YX=    -1.6459   ZX=     3.3001
   XY=    -0.2353   YY=    30.5533   ZY=     1.0476
   XZ=     2.3202   YZ=    -0.2133   ZZ=    26.7690
   Eigenvalues:    25.4110    30.4887    33.2979
     42  H    Isotropic =    26.0628   Anisotropy =     6.8631
   XX=    23.5692   YX=    -1.5603   ZX=     0.9747
   XY=    -0.6983   YY=    30.4038   ZY=    -0.8518
   XZ=     0.3532   YZ=    -0.1083   ZZ=    24.2156
   Eigenvalues:    23.0799    24.4704    30.6382
     43  H    Isotropic =    26.7759   Anisotropy =     6.8000
   XX=    25.0117   YX=    -0.6386   ZX=     0.9503
   XY=    -1.6648   YY=    30.0587   ZY=    -1.3746
   XZ=     2.1074   YZ=    -2.9273   ZZ=    25.2573
   Eigenvalues:    23.5220    25.4965    31.3092
     44  H    Isotropic =    26.7372   Anisotropy =     7.4102
   XX=    24.4182   YX=    -0.5142   ZX=     2.4906
   XY=     0.7352   YY=    29.8455   ZY=    -4.1311
   XZ=     0.8416   YZ=    -2.1761   ZZ=    25.9479
   Eigenvalues:    22.7635    25.7707    31.6773
 End of Minotr F.D. properties file   721 does not exist.
 End of Minotr F.D. properties file   722 does not exist.
 End of Minotr F.D. properties file   788 does not exist.

 **********************************************************************

            Population analysis using the SCF density.

 **********************************************************************

 Orbital symmetries:
       Occupied  (A) (A) (A) (A) (A) (A) (A) (A) (A) (A) (A) (A)
                 (A) (A) (A) (A) (A) (A) (A) (A) (A) (A) (A) (A)
                 (A) (A) (A) (A) (A) (A) (A) (A) (A) (A) (A) (A)
                 (A) (A) (A) (A) (A) (A) (A) (A) (A) (A) (A) (A)
                 (A) (A) (A) (A) (A) (A) (A) (A) (A) (A) (A) (A)
                 (A) (A) (A) (A) (A) (A) (A) (A) (A) (A) (A) (A)
                 (A) (A)
       Virtual   (A) (A) (A) (A) (A) (A) (A) (A) (A) (A) (A) (A)
                 (A) (A) (A) (A) (A) (A) (A) (A) (A) (A) (A) (A)
                 (A) (A) (A) (A) (A) (A) (A) (A) (A) (A) (A) (A)
                 (A) (A) (A) (A) (A) (A) (A) (A) (A) (A) (A) (A)
                 (A) (A) (A) (A) (A) (A) (A) (A) (A) (A) (A) (A)
                 (A) (A) (A) (A) (A) (A) (A) (A) (A) (A) (A) (A)
                 (A) (A) (A) (A) (A) (A) (A) (A) (A) (A) (A) (A)
                 (A) (A) (A) (A) (A) (A) (A) (A) (A) (A) (A) (A)
                 (A) (A) (A) (A) (A) (A) (A) (A) (A) (A) (A) (A)
                 (A) (A) (A) (A) (A) (A) (A) (A) (A) (A) (A) (A)
                 (A) (A) (A) (A) (A) (A) (A) (A) (A) (A) (A) (A)
                 (A) (A) (A) (A) (A) (A) (A) (A) (A) (A) (A) (A)
                 (A) (A) (A) (A) (A) (A) (A) (A) (A) (A) (A) (A)
                 (A) (A) (A) (A) (A) (A) (A) (A) (A) (A) (A) (A)
                 (A) (A) (A) (A) (A) (A) (A) (A) (A) (A) (A) (A)
                 (A) (A) (A) (A) (A) (A) (A) (A) (A) (A) (A) (A)
                 (A) (A) (A) (A) (A) (A) (A) (A) (A) (A) (A) (A)
                 (A) (A) (A) (A) (A) (A) (A) (A) (A) (A) (A) (A)
                 (A) (A) (A) (A) (A) (A) (A) (A) (A) (A) (A) (A)
                 (A) (A) (A) (A) (A) (A) (A) (A) (A) (A) (A) (A)
                 (A) (A) (A) (A) (A) (A) (A) (A) (A) (A) (A) (A)
                 (A) (A) (A) (A) (A) (A) (A) (A) (A) (A) (A) (A)
                 (A) (A) (A) (A) (A) (A) (A) (A) (A) (A) (A) (A)
                 (A) (A) (A) (A) (A) (A) (A) (A) (A) (A) (A) (A)
                 (A) (A) (A) (A) (A) (A) (A) (A) (A) (A) (A) (A)
                 (A) (A) (A) (A) (A) (A) (A) (A) (A) (A) (A) (A)
                 (A) (A) (A) (A) (A) (A) (A) (A) (A) (A) (A) (A)
                 (A) (A) (A) (A) (A) (A) (A) (A) (A) (A) (A) (A)
 The electronic state is 1-A.
 Alpha  occ. eigenvalues --  -66.27459 -19.25653 -19.20635 -19.19528 -10.36703
 Alpha  occ. eigenvalues --  -10.31969 -10.30105 -10.25060 -10.24902 -10.24557
 Alpha  occ. eigenvalues --  -10.24493 -10.23545 -10.23203 -10.22509 -10.22084
 Alpha  occ. eigenvalues --  -10.21091 -10.20839 -10.20731  -5.33193  -3.67080
 Alpha  occ. eigenvalues --   -3.66789  -3.66772  -1.13037  -1.04697  -1.03959
 Alpha  occ. eigenvalues --   -0.85677  -0.82947  -0.80103  -0.78128  -0.73883
 Alpha  occ. eigenvalues --   -0.73028  -0.71722  -0.70394  -0.70167  -0.66429
 Alpha  occ. eigenvalues --   -0.64021  -0.62215  -0.58112  -0.54530  -0.54117
 Alpha  occ. eigenvalues --   -0.52009  -0.50841  -0.49308  -0.48833  -0.46635
 Alpha  occ. eigenvalues --   -0.46371  -0.45575  -0.44450  -0.44183  -0.43372
 Alpha  occ. eigenvalues --   -0.43192  -0.42531  -0.42032  -0.41425  -0.41243
 Alpha  occ. eigenvalues --   -0.40777  -0.40382  -0.40149  -0.39744  -0.39310
 Alpha  occ. eigenvalues --   -0.38403  -0.38104  -0.37019  -0.36596  -0.35601
 Alpha  occ. eigenvalues --   -0.35125  -0.34652  -0.33443  -0.32268  -0.30720
 Alpha  occ. eigenvalues --   -0.30124  -0.29832  -0.28127  -0.27063
 Alpha virt. eigenvalues --   -0.00341   0.01634   0.03748   0.05562   0.06179
 Alpha virt. eigenvalues --    0.06536   0.06955   0.08133   0.08351   0.09005
 Alpha virt. eigenvalues --    0.09324   0.09903   0.10313   0.10858   0.11712
 Alpha virt. eigenvalues --    0.11791   0.12356   0.12941   0.13382   0.13713
 Alpha virt. eigenvalues --    0.14073   0.14453   0.14528   0.15378   0.15445
 Alpha virt. eigenvalues --    0.16206   0.16793   0.17400   0.17516   0.18119
 Alpha virt. eigenvalues --    0.18489   0.19003   0.20021   0.20283   0.21684
 Alpha virt. eigenvalues --    0.22459   0.22775   0.23284   0.23500   0.24440
 Alpha virt. eigenvalues --    0.24719   0.26404   0.26699   0.26992   0.29115
 Alpha virt. eigenvalues --    0.29449   0.30188   0.30906   0.31579   0.32704
 Alpha virt. eigenvalues --    0.33004   0.33644   0.34434   0.34888   0.35495
 Alpha virt. eigenvalues --    0.36706   0.38366   0.39138   0.39589   0.40834
 Alpha virt. eigenvalues --    0.41696   0.41980   0.42796   0.44107   0.44644
 Alpha virt. eigenvalues --    0.44767   0.45593   0.46292   0.47998   0.49167
 Alpha virt. eigenvalues --    0.49777   0.50733   0.51293   0.51799   0.52978
 Alpha virt. eigenvalues --    0.53333   0.53567   0.54945   0.55280   0.55589
 Alpha virt. eigenvalues --    0.56496   0.56831   0.57699   0.58047   0.59054
 Alpha virt. eigenvalues --    0.59663   0.60349   0.60477   0.60918   0.61492
 Alpha virt. eigenvalues --    0.61551   0.61968   0.62089   0.62877   0.63116
 Alpha virt. eigenvalues --    0.63419   0.64022   0.64372   0.65061   0.65986
 Alpha virt. eigenvalues --    0.66525   0.66693   0.67361   0.68173   0.68258
 Alpha virt. eigenvalues --    0.68631   0.69548   0.69797   0.70244   0.70617
 Alpha virt. eigenvalues --    0.72455   0.72697   0.73337   0.73819   0.75086
 Alpha virt. eigenvalues --    0.75850   0.77982   0.78067   0.79154   0.80783
 Alpha virt. eigenvalues --    0.82099   0.83564   0.85554   0.85956   0.88299
 Alpha virt. eigenvalues --    0.88866   0.89800   0.90583   0.94123   0.94465
 Alpha virt. eigenvalues --    0.94810   0.95959   0.97183   0.98540   0.99122
 Alpha virt. eigenvalues --    1.01372   1.02692   1.05357   1.08537   1.10673
 Alpha virt. eigenvalues --    1.11632   1.14999   1.15963   1.18227   1.21322
 Alpha virt. eigenvalues --    1.22500   1.23505   1.25662   1.26642   1.28444
 Alpha virt. eigenvalues --    1.29473   1.30001   1.31760   1.32210   1.32881
 Alpha virt. eigenvalues --    1.35118   1.36739   1.38984   1.40622   1.41273
 Alpha virt. eigenvalues --    1.44055   1.44635   1.45590   1.46730   1.49152
 Alpha virt. eigenvalues --    1.51207   1.51878   1.52588   1.53151   1.53925
 Alpha virt. eigenvalues --    1.54287   1.55339   1.55959   1.57182   1.58104
 Alpha virt. eigenvalues --    1.58815   1.59570   1.60010   1.60393   1.61130
 Alpha virt. eigenvalues --    1.61411   1.62161   1.62928   1.64096   1.65490
 Alpha virt. eigenvalues --    1.65605   1.66116   1.67166   1.67774   1.68579
 Alpha virt. eigenvalues --    1.69579   1.70115   1.73370   1.73781   1.74991
 Alpha virt. eigenvalues --    1.75653   1.78379   1.79336   1.80671   1.81417
 Alpha virt. eigenvalues --    1.82009   1.82812   1.84739   1.85561   1.86410
 Alpha virt. eigenvalues --    1.88184   1.91171   1.92842   1.94648   1.98010
 Alpha virt. eigenvalues --    2.00912   2.05516   2.06287   2.09865   2.10925
 Alpha virt. eigenvalues --    2.15769   2.16665   2.20348   2.21379   2.24402
 Alpha virt. eigenvalues --    2.25696   2.28008   2.34911   2.35590   2.39953
 Alpha virt. eigenvalues --    2.41754   2.41863   2.42354   2.42662   2.43196
 Alpha virt. eigenvalues --    2.43478   2.45077   2.45844   2.46698   2.46935
 Alpha virt. eigenvalues --    2.47864   2.48109   2.49798   2.51282   2.53104
 Alpha virt. eigenvalues --    2.54211   2.55114   2.57335   2.59265   2.62060
 Alpha virt. eigenvalues --    2.62581   2.63441   2.64452   2.71331   2.81537
 Alpha virt. eigenvalues --    2.82771   2.87012   2.87444   2.90954   2.91221
 Alpha virt. eigenvalues --    2.92627   2.92841   2.93863   2.94671   2.96049
 Alpha virt. eigenvalues --    2.98356   3.00335   3.01225   3.05017   3.07758
 Alpha virt. eigenvalues --    3.08863   3.11365   3.13145   3.14436   3.15774
 Alpha virt. eigenvalues --    3.16332   3.16573   3.18445   3.20342   3.21938
 Alpha virt. eigenvalues --    3.22346   3.22787   3.23245   3.23818   3.25294
 Alpha virt. eigenvalues --    3.26414   3.27223   3.28188   3.28977   3.31019
 Alpha virt. eigenvalues --    3.33137   3.34830   3.37349   3.38250   3.42166
 Alpha virt. eigenvalues --    3.45010   3.52409   3.56073   3.58643   3.61594
 Alpha virt. eigenvalues --    3.77951   3.87872   3.90916   3.98641   4.00268
 Alpha virt. eigenvalues --    4.11417   4.12508   4.16019   4.19051   4.26576
 Alpha virt. eigenvalues --    4.96020   5.01024   5.02797   5.10836   5.17149
 Alpha virt. eigenvalues --    5.23968   5.53552   5.55574   5.76752   5.84602
 Alpha virt. eigenvalues --   11.52688  11.53517  11.57352  23.41650  23.47848
 Alpha virt. eigenvalues --   23.54251  23.54353  23.57157  23.61081  23.70594
 Alpha virt. eigenvalues --   23.75627  23.79457  23.80617  23.83364  23.85481
 Alpha virt. eigenvalues --   23.91449  24.28790  49.99569  50.05811  50.12730
 Alpha virt. eigenvalues --  141.28284
          Condensed to atoms (all electrons):
               1          2          3          4          5          6
     1  C    5.190761   0.371725  -0.053459  -0.018005  -0.054296   0.405379
     2  C    0.371725   5.510836   0.256902  -0.063220  -0.018723  -0.037752
     3  C   -0.053459   0.256902   5.127701   0.213420  -0.023623   0.007059
     4  C   -0.018005  -0.063220   0.213420   5.933326   0.240254  -0.000414
     5  C   -0.054296  -0.018723  -0.023623   0.240254   4.397472   0.002521
     6  H    0.405379  -0.037752   0.007059  -0.000414   0.002521   0.465270
     7  H   -0.064078   0.410594  -0.054303   0.002977  -0.000349  -0.009604
     8  H   -0.000552  -0.001666  -0.028258   0.363433  -0.026023  -0.000052
     9  H   -0.000148   0.005249  -0.033960   0.364997  -0.026396   0.000140
    10  O    0.199578  -0.029213  -0.000231  -0.102972   0.338432  -0.027267
    11  O    0.003456  -0.001674   0.005423  -0.099500   0.673633  -0.000199
    12  C    0.285248  -0.072000  -0.013125  -0.000825  -0.009951  -0.053092
    13  C   -0.077146   0.007981  -0.000414   0.000164   0.000599  -0.006390
    14  C   -0.071059   0.284199  -0.067162   0.006355   0.000368  -0.004986
    15  O   -0.003398  -0.065485   0.208661  -0.043422   0.001330  -0.000342
    16  Si  -0.000362   0.004888  -0.045087  -0.012605   0.001143  -0.000027
    17  C    0.000002  -0.000141   0.001116  -0.000356   0.000000   0.000000
    18  C   -0.000006  -0.000418   0.000517  -0.002913  -0.000075  -0.000001
    19  C    0.000015   0.000096   0.002350  -0.000245  -0.000004   0.000000
    20  H    0.000000  -0.000063   0.000448   0.000159  -0.000078   0.000000
    21  H   -0.000001  -0.000076  -0.000006   0.000658  -0.000066   0.000000
    22  H    0.000000   0.000007  -0.000079   0.000148   0.000002   0.000000
    23  H   -0.000001   0.000004  -0.000063  -0.000003   0.000000   0.000000
    24  H   -0.000013   0.000001  -0.000040   0.000028  -0.000001   0.000002
    25  H   -0.000001   0.000079  -0.000116  -0.000027   0.000001   0.000001
    26  H    0.000000   0.000008  -0.000068   0.000003   0.000000   0.000000
    27  H    0.000003   0.000048   0.000468  -0.000031   0.000000   0.000000
    28  H    0.000000  -0.000022   0.000245  -0.000046   0.000002   0.000000
    29  H    0.007113  -0.031655  -0.005232   0.000059  -0.000066  -0.000170
    30  H   -0.008547  -0.032136  -0.010710   0.000360  -0.000027  -0.000628
    31  H   -0.003881  -0.041419   0.008232  -0.000232   0.000006   0.004955
    32  H   -0.035987  -0.004134   0.000129  -0.000264   0.000026   0.006295
    33  H   -0.036207  -0.005495   0.000546  -0.000201   0.000398  -0.001658
    34  H    0.007469  -0.000234   0.000009   0.000023  -0.000048  -0.000158
    35  H   -0.010760   0.000148  -0.000053   0.000442   0.000946  -0.000242
    36  H   -0.003211  -0.000083   0.000012  -0.000001  -0.000035   0.005336
    37  C    0.006294  -0.101371   0.359139  -0.069827   0.001445  -0.000424
    38  C    0.000573  -0.010684  -0.054047  -0.007078  -0.002228   0.000051
    39  C    0.000098  -0.002777  -0.001383  -0.000556   0.000103   0.000021
    40  H    0.000061  -0.009165  -0.034683   0.007897  -0.000255   0.000001
    41  H   -0.000246   0.007081  -0.043513  -0.007682   0.000194   0.000007
    42  H   -0.000028   0.000368  -0.003432   0.000279   0.001782   0.000055
    43  H   -0.000003   0.000008  -0.000243   0.000052  -0.000024  -0.000001
    44  H    0.000002   0.000277  -0.000038   0.000004  -0.000007   0.000002
               7          8          9         10         11         12
     1  C   -0.064078  -0.000552  -0.000148   0.199578   0.003456   0.285248
     2  C    0.410594  -0.001666   0.005249  -0.029213  -0.001674  -0.072000
     3  C   -0.054303  -0.028258  -0.033960  -0.000231   0.005423  -0.013125
     4  C    0.002977   0.363433   0.364997  -0.102972  -0.099500  -0.000825
     5  C   -0.000349  -0.026023  -0.026396   0.338432   0.673633  -0.009951
     6  H   -0.009604  -0.000052   0.000140  -0.027267  -0.000199  -0.053092
     7  H    0.459999  -0.000006  -0.000708   0.003683  -0.000774   0.010248
     8  H   -0.000006   0.401115  -0.015847   0.000307   0.001125   0.000741
     9  H   -0.000708  -0.015847   0.419041   0.004954   0.008709   0.000113
    10  O    0.003683   0.000307   0.004954   8.043725  -0.077136  -0.044385
    11  O   -0.000774   0.001125   0.008709  -0.077136   7.867828  -0.000262
    12  C    0.010248   0.000741   0.000113  -0.044385  -0.000262   5.376693
    13  C   -0.000305   0.000301  -0.000036  -0.002803   0.000003   0.303343
    14  C   -0.026533  -0.000319  -0.000178   0.004329  -0.000006   0.003543
    15  O    0.003643  -0.005481   0.001160  -0.000017  -0.000021   0.005962
    16  Si  -0.000133  -0.000421   0.000305  -0.000229  -0.000145  -0.000480
    17  C   -0.000004   0.000037  -0.000028   0.000000   0.000000   0.000003
    18  C    0.000005   0.000723  -0.001250  -0.000001  -0.000001   0.000014
    19  C    0.000005  -0.000301   0.000014   0.000000   0.000000   0.000009
    20  H    0.000001  -0.000281   0.000655  -0.000001  -0.000008   0.000000
    21  H    0.000001   0.001870  -0.000384   0.000002   0.000004  -0.000011
    22  H    0.000000   0.000032   0.000067   0.000000   0.000000   0.000000
    23  H    0.000000   0.000007  -0.000001   0.000000   0.000000   0.000001
    24  H    0.000000  -0.000010   0.000003   0.000000   0.000000   0.000169
    25  H    0.000001  -0.000018   0.000000   0.000000   0.000000   0.000035
    26  H    0.000000   0.000001  -0.000001   0.000000   0.000000   0.000000
    27  H   -0.000002  -0.000003   0.000001   0.000000   0.000000   0.000000
    28  H   -0.000001   0.000005  -0.000005   0.000000   0.000000   0.000000
    29  H   -0.005549   0.000004   0.000000  -0.000151   0.000000  -0.000096
    30  H    0.006082   0.000006  -0.000025  -0.000013  -0.000001   0.003152
    31  H   -0.004735   0.000012   0.000017   0.000066   0.000001  -0.001206
    32  H   -0.000398   0.003557   0.000614   0.000233  -0.000100   0.385724
    33  H   -0.000370   0.000141  -0.000008   0.003625   0.000007   0.385615
    34  H    0.000021  -0.000012  -0.000001  -0.000018   0.000000  -0.037111
    35  H   -0.000025   0.000114  -0.000025   0.009778  -0.000127  -0.036515
    36  H   -0.000037  -0.000021   0.000003  -0.000307   0.000000  -0.040109
    37  C   -0.009062   0.003599  -0.004628   0.000199  -0.000237   0.000205
    38  C    0.009869   0.000438  -0.002292  -0.000222  -0.001489  -0.000064
    39  C    0.003876  -0.000003   0.000005   0.000004   0.000002  -0.000003
    40  H   -0.000865  -0.000177   0.000442   0.000012  -0.000002  -0.000010
    41  H    0.000998  -0.000156   0.002067  -0.000015  -0.000071   0.000014
    42  H   -0.001083   0.000481   0.002515  -0.000547   0.006907  -0.000026
    43  H    0.000133  -0.000003  -0.000005   0.000005  -0.000020   0.000000
    44  H   -0.000142   0.000004   0.000003  -0.000003   0.000001   0.000000
              13         14         15         16         17         18
     1  C   -0.077146  -0.071059  -0.003398  -0.000362   0.000002  -0.000006
     2  C    0.007981   0.284199  -0.065485   0.004888  -0.000141  -0.000418
     3  C   -0.000414  -0.067162   0.208661  -0.045087   0.001116   0.000517
     4  C    0.000164   0.006355  -0.043422  -0.012605  -0.000356  -0.002913
     5  C    0.000599   0.000368   0.001330   0.001143   0.000000  -0.000075
     6  H   -0.006390  -0.004986  -0.000342  -0.000027   0.000000  -0.000001
     7  H   -0.000305  -0.026533   0.003643  -0.000133  -0.000004   0.000005
     8  H    0.000301  -0.000319  -0.005481  -0.000421   0.000037   0.000723
     9  H   -0.000036  -0.000178   0.001160   0.000305  -0.000028  -0.001250
    10  O   -0.002803   0.004329  -0.000017  -0.000229   0.000000  -0.000001
    11  O    0.000003  -0.000006  -0.000021  -0.000145   0.000000  -0.000001
    12  C    0.303343   0.003543   0.005962  -0.000480   0.000003   0.000014
    13  C    5.355781  -0.000372   0.000217   0.000246   0.000000   0.000000
    14  C   -0.000372   5.375165   0.001058  -0.000662   0.000003   0.000022
    15  O    0.000217   0.001058   8.296729   0.344969  -0.024251  -0.023802
    16  Si   0.000246  -0.000662   0.344969  11.508665   0.315822   0.313646
    17  C    0.000000   0.000003  -0.024251   0.315822   5.766401  -0.054511
    18  C    0.000000   0.000022  -0.023802   0.313646  -0.054511   5.778046
    19  C   -0.000004  -0.000084  -0.030295   0.334143  -0.047539  -0.043233
    20  H    0.000000   0.000003  -0.001149  -0.027772  -0.001147   0.368694
    21  H    0.000000   0.000002  -0.002057  -0.025907   0.002090   0.369268
    22  H    0.000000   0.000000   0.000868  -0.011700   0.000120   0.363183
    23  H    0.000000  -0.000003   0.001171  -0.014317   0.000869  -0.000013
    24  H   -0.000010  -0.000001  -0.001685  -0.024016   0.002167  -0.000645
    25  H   -0.000003   0.000059  -0.001717  -0.023701  -0.000570   0.002090
    26  H    0.000000  -0.000001   0.000917  -0.012081   0.362011   0.000479
    27  H    0.000000   0.000111  -0.002108  -0.024957   0.370930   0.002063
    28  H    0.000000  -0.000018  -0.001507  -0.027567   0.372064  -0.001333
    29  H    0.000018   0.383976  -0.000805  -0.000779   0.000244   0.000002
    30  H    0.000160   0.386314   0.005476  -0.000259   0.000045   0.000015
    31  H   -0.000168   0.388119   0.000488   0.000287  -0.000006   0.000001
    32  H   -0.043293  -0.000143   0.003198   0.000398   0.000011  -0.000120
    33  H   -0.038899  -0.000055  -0.000202  -0.000285  -0.000001   0.000000
    34  H    0.392307   0.000005  -0.000003  -0.000006   0.000000   0.000000
    35  H    0.385020  -0.000065   0.000002  -0.000001   0.000000   0.000000
    36  H    0.383719  -0.000009  -0.000005  -0.000009   0.000000   0.000000
    37  C    0.000014  -0.001608  -0.035285  -0.002062  -0.002974  -0.002567
    38  C    0.000000   0.000587   0.004439   0.002469   0.000059  -0.000048
    39  C    0.000000   0.000445  -0.000085  -0.000275   0.000010   0.000001
    40  H    0.000000   0.002408   0.000312  -0.003139  -0.001700   0.000253
    41  H    0.000000  -0.000203  -0.003745   0.009092  -0.000603   0.001642
    42  H    0.000000  -0.000213  -0.000070  -0.000057  -0.000009   0.000006
    43  H    0.000000   0.000013   0.000004   0.000008   0.000000   0.000000
    44  H    0.000000  -0.000052  -0.000021  -0.000032   0.000001   0.000000
              19         20         21         22         23         24
     1  C    0.000015   0.000000  -0.000001   0.000000  -0.000001  -0.000013
     2  C    0.000096  -0.000063  -0.000076   0.000007   0.000004   0.000001
     3  C    0.002350   0.000448  -0.000006  -0.000079  -0.000063  -0.000040
     4  C   -0.000245   0.000159   0.000658   0.000148  -0.000003   0.000028
     5  C   -0.000004  -0.000078  -0.000066   0.000002   0.000000  -0.000001
     6  H    0.000000   0.000000   0.000000   0.000000   0.000000   0.000002
     7  H    0.000005   0.000001   0.000001   0.000000   0.000000   0.000000
     8  H   -0.000301  -0.000281   0.001870   0.000032   0.000007  -0.000010
     9  H    0.000014   0.000655  -0.000384   0.000067  -0.000001   0.000003
    10  O    0.000000  -0.000001   0.000002   0.000000   0.000000   0.000000
    11  O    0.000000  -0.000008   0.000004   0.000000   0.000000   0.000000
    12  C    0.000009   0.000000  -0.000011   0.000000   0.000001   0.000169
    13  C   -0.000004   0.000000   0.000000   0.000000   0.000000  -0.000010
    14  C   -0.000084   0.000003   0.000002   0.000000  -0.000003  -0.000001
    15  O   -0.030295  -0.001149  -0.002057   0.000868   0.001171  -0.001685
    16  Si   0.334143  -0.027772  -0.025907  -0.011700  -0.014317  -0.024016
    17  C   -0.047539  -0.001147   0.002090   0.000120   0.000869   0.002167
    18  C   -0.043233   0.368694   0.369268   0.363183  -0.000013  -0.000645
    19  C    5.721768   0.002388  -0.000387  -0.000222   0.361176   0.369497
    20  H    0.002388   0.445514  -0.019295  -0.020668  -0.000078  -0.000078
    21  H   -0.000387  -0.019295   0.448486  -0.021302  -0.000056   0.001270
    22  H   -0.000222  -0.020668  -0.021302   0.446774   0.000573  -0.000074
    23  H    0.361176  -0.000078  -0.000056   0.000573   0.460829  -0.021855
    24  H    0.369497  -0.000078   0.001270  -0.000074  -0.021855   0.454737
    25  H    0.370239  -0.000086  -0.000063  -0.000079  -0.021658  -0.019344
    26  H   -0.000160   0.000075  -0.000045   0.000511   0.000736  -0.000038
    27  H   -0.000453  -0.000043  -0.000086  -0.000052   0.000006  -0.000077
    28  H    0.002281   0.000675  -0.000036   0.000034  -0.000063  -0.000095
    29  H   -0.000002   0.000000   0.000000   0.000000   0.000000  -0.000001
    30  H    0.000279   0.000000   0.000000  -0.000001  -0.000010  -0.000043
    31  H   -0.000002   0.000000   0.000000   0.000000   0.000000   0.000001
    32  H    0.000128  -0.000004  -0.000058   0.000001   0.000013   0.000551
    33  H    0.000017   0.000000   0.000001   0.000000   0.000000   0.000022
    34  H    0.000001   0.000000   0.000000   0.000000   0.000000   0.000005
    35  H    0.000000   0.000000   0.000000   0.000000   0.000000   0.000000
    36  H    0.000000   0.000000   0.000000   0.000000   0.000000   0.000000
    37  C   -0.000088  -0.000226   0.000262   0.000073   0.000007  -0.000008
    38  C    0.000004   0.000035   0.000005   0.000001   0.000000   0.000001
    39  C    0.000000  -0.000002   0.000000   0.000000   0.000000   0.000000
    40  H   -0.000054   0.000036  -0.000006  -0.000007  -0.000001  -0.000002
    41  H    0.000017   0.003882  -0.000215  -0.000030   0.000011   0.000002
    42  H    0.000000  -0.000008  -0.000001   0.000000   0.000000   0.000000
    43  H    0.000000   0.000000   0.000000   0.000000   0.000000   0.000000
    44  H    0.000000   0.000000   0.000000   0.000000   0.000000   0.000000
              25         26         27         28         29         30
     1  C   -0.000001   0.000000   0.000003   0.000000   0.007113  -0.008547
     2  C    0.000079   0.000008   0.000048  -0.000022  -0.031655  -0.032136
     3  C   -0.000116  -0.000068   0.000468   0.000245  -0.005232  -0.010710
     4  C   -0.000027   0.000003  -0.000031  -0.000046   0.000059   0.000360
     5  C    0.000001   0.000000   0.000000   0.000002  -0.000066  -0.000027
     6  H    0.000001   0.000000   0.000000   0.000000  -0.000170  -0.000628
     7  H    0.000001   0.000000  -0.000002  -0.000001  -0.005549   0.006082
     8  H   -0.000018   0.000001  -0.000003   0.000005   0.000004   0.000006
     9  H    0.000000  -0.000001   0.000001  -0.000005   0.000000  -0.000025
    10  O    0.000000   0.000000   0.000000   0.000000  -0.000151  -0.000013
    11  O    0.000000   0.000000   0.000000   0.000000   0.000000  -0.000001
    12  C    0.000035   0.000000   0.000000   0.000000  -0.000096   0.003152
    13  C   -0.000003   0.000000   0.000000   0.000000   0.000018   0.000160
    14  C    0.000059  -0.000001   0.000111  -0.000018   0.383976   0.386314
    15  O   -0.001717   0.000917  -0.002108  -0.001507  -0.000805   0.005476
    16  Si  -0.023701  -0.012081  -0.024957  -0.027567  -0.000779  -0.000259
    17  C   -0.000570   0.362011   0.370930   0.372064   0.000244   0.000045
    18  C    0.002090   0.000479   0.002063  -0.001333   0.000002   0.000015
    19  C    0.370239  -0.000160  -0.000453   0.002281  -0.000002   0.000279
    20  H   -0.000086   0.000075  -0.000043   0.000675   0.000000   0.000000
    21  H   -0.000063  -0.000045  -0.000086  -0.000036   0.000000   0.000000
    22  H   -0.000079   0.000511  -0.000052   0.000034   0.000000  -0.000001
    23  H   -0.021658   0.000736   0.000006  -0.000063   0.000000  -0.000010
    24  H   -0.019344  -0.000038  -0.000077  -0.000095  -0.000001  -0.000043
    25  H    0.453058  -0.000123   0.001170  -0.000083  -0.000006   0.000458
    26  H   -0.000123   0.454949  -0.021506  -0.022864  -0.000006  -0.000004
    27  H    0.001170  -0.021506   0.451473  -0.019522   0.000296   0.000111
    28  H   -0.000083  -0.022864  -0.019522   0.451464  -0.000009   0.000000
    29  H   -0.000006  -0.000006   0.000296  -0.000009   0.462947  -0.024878
    30  H    0.000458  -0.000004   0.000111   0.000000  -0.024878   0.448901
    31  H   -0.000003   0.000000  -0.000010   0.000000  -0.026042  -0.026901
    32  H   -0.000006   0.000000   0.000002   0.000000  -0.000102   0.000042
    33  H    0.000035   0.000000  -0.000002   0.000000   0.000327   0.000584
    34  H    0.000000   0.000000   0.000000   0.000000  -0.000001   0.000012
    35  H    0.000000   0.000000   0.000000   0.000000   0.000004  -0.000010
    36  H    0.000000   0.000000   0.000000   0.000000  -0.000003   0.000013
    37  C   -0.000021   0.000166  -0.000145   0.000354   0.001884   0.000450
    38  C    0.000000  -0.000001  -0.000050   0.000040   0.000277  -0.000058
    39  C    0.000000   0.000000   0.000003   0.000031   0.000422  -0.000013
    40  H   -0.000014   0.000179   0.000043  -0.000476   0.002686   0.000028
    41  H    0.000006  -0.000005  -0.000041   0.001653   0.000060  -0.000004
    42  H    0.000000   0.000000   0.000000   0.000002   0.000030   0.000001
    43  H    0.000000   0.000000   0.000000  -0.000001  -0.000009   0.000000
    44  H    0.000000   0.000000   0.000002   0.000013   0.000197   0.000003
              31         32         33         34         35         36
     1  C   -0.003881  -0.035987  -0.036207   0.007469  -0.010760  -0.003211
     2  C   -0.041419  -0.004134  -0.005495  -0.000234   0.000148  -0.000083
     3  C    0.008232   0.000129   0.000546   0.000009  -0.000053   0.000012
     4  C   -0.000232  -0.000264  -0.000201   0.000023   0.000442  -0.000001
     5  C    0.000006   0.000026   0.000398  -0.000048   0.000946  -0.000035
     6  H    0.004955   0.006295  -0.001658  -0.000158  -0.000242   0.005336
     7  H   -0.004735  -0.000398  -0.000370   0.000021  -0.000025  -0.000037
     8  H    0.000012   0.003557   0.000141  -0.000012   0.000114  -0.000021
     9  H    0.000017   0.000614  -0.000008  -0.000001  -0.000025   0.000003
    10  O    0.000066   0.000233   0.003625  -0.000018   0.009778  -0.000307
    11  O    0.000001  -0.000100   0.000007   0.000000  -0.000127   0.000000
    12  C   -0.001206   0.385724   0.385615  -0.037111  -0.036515  -0.040109
    13  C   -0.000168  -0.043293  -0.038899   0.392307   0.385020   0.383719
    14  C    0.388119  -0.000143  -0.000055   0.000005  -0.000065  -0.000009
    15  O    0.000488   0.003198  -0.000202  -0.000003   0.000002  -0.000005
    16  Si   0.000287   0.000398  -0.000285  -0.000006  -0.000001  -0.000009
    17  C   -0.000006   0.000011  -0.000001   0.000000   0.000000   0.000000
    18  C    0.000001  -0.000120   0.000000   0.000000   0.000000   0.000000
    19  C   -0.000002   0.000128   0.000017   0.000001   0.000000   0.000000
    20  H    0.000000  -0.000004   0.000000   0.000000   0.000000   0.000000
    21  H    0.000000  -0.000058   0.000001   0.000000   0.000000   0.000000
    22  H    0.000000   0.000001   0.000000   0.000000   0.000000   0.000000
    23  H    0.000000   0.000013   0.000000   0.000000   0.000000   0.000000
    24  H    0.000001   0.000551   0.000022   0.000005   0.000000   0.000000
    25  H   -0.000003  -0.000006   0.000035   0.000000   0.000000   0.000000
    26  H    0.000000   0.000000   0.000000   0.000000   0.000000   0.000000
    27  H   -0.000010   0.000002  -0.000002   0.000000   0.000000   0.000000
    28  H    0.000000   0.000000   0.000000   0.000000   0.000000   0.000000
    29  H   -0.026042  -0.000102   0.000327  -0.000001   0.000004  -0.000003
    30  H   -0.026901   0.000042   0.000584   0.000012  -0.000010   0.000013
    31  H    0.471122   0.000085   0.000371   0.000001  -0.000006   0.000001
    32  H    0.000085   0.468272  -0.026729  -0.004689  -0.004801   0.007002
    33  H    0.000371  -0.026729   0.479777  -0.004304   0.006880  -0.004659
    34  H    0.000001  -0.004689  -0.004304   0.471237  -0.025553  -0.027455
    35  H   -0.000006  -0.004801   0.006880  -0.025553   0.466570  -0.027957
    36  H    0.000001   0.007002  -0.004659  -0.027455  -0.027957   0.484427
    37  C   -0.000317   0.000255  -0.000042   0.000000  -0.000001   0.000000
    38  C   -0.000015  -0.000017   0.000005   0.000000   0.000000   0.000000
    39  C    0.000025   0.000000   0.000000   0.000000   0.000000   0.000000
    40  H   -0.000007  -0.000008  -0.000004   0.000000   0.000000   0.000000
    41  H    0.000017   0.000009   0.000000   0.000000   0.000000   0.000000
    42  H    0.000009   0.000010   0.000004   0.000000   0.000001   0.000000
    43  H   -0.000001   0.000000   0.000000   0.000000   0.000000   0.000000
    44  H    0.000011   0.000000   0.000000   0.000000   0.000000   0.000000
              37         38         39         40         41         42
     1  C    0.006294   0.000573   0.000098   0.000061  -0.000246  -0.000028
     2  C   -0.101371  -0.010684  -0.002777  -0.009165   0.007081   0.000368
     3  C    0.359139  -0.054047  -0.001383  -0.034683  -0.043513  -0.003432
     4  C   -0.069827  -0.007078  -0.000556   0.007897  -0.007682   0.000279
     5  C    0.001445  -0.002228   0.000103  -0.000255   0.000194   0.001782
     6  H   -0.000424   0.000051   0.000021   0.000001   0.000007   0.000055
     7  H   -0.009062   0.009869   0.003876  -0.000865   0.000998  -0.001083
     8  H    0.003599   0.000438  -0.000003  -0.000177  -0.000156   0.000481
     9  H   -0.004628  -0.002292   0.000005   0.000442   0.002067   0.002515
    10  O    0.000199  -0.000222   0.000004   0.000012  -0.000015  -0.000547
    11  O   -0.000237  -0.001489   0.000002  -0.000002  -0.000071   0.006907
    12  C    0.000205  -0.000064  -0.000003  -0.000010   0.000014  -0.000026
    13  C    0.000014   0.000000   0.000000   0.000000   0.000000   0.000000
    14  C   -0.001608   0.000587   0.000445   0.002408  -0.000203  -0.000213
    15  O   -0.035285   0.004439  -0.000085   0.000312  -0.003745  -0.000070
    16  Si  -0.002062   0.002469  -0.000275  -0.003139   0.009092  -0.000057
    17  C   -0.002974   0.000059   0.000010  -0.001700  -0.000603  -0.000009
    18  C   -0.002567  -0.000048   0.000001   0.000253   0.001642   0.000006
    19  C   -0.000088   0.000004   0.000000  -0.000054   0.000017   0.000000
    20  H   -0.000226   0.000035  -0.000002   0.000036   0.003882  -0.000008
    21  H    0.000262   0.000005   0.000000  -0.000006  -0.000215  -0.000001
    22  H    0.000073   0.000001   0.000000  -0.000007  -0.000030   0.000000
    23  H    0.000007   0.000000   0.000000  -0.000001   0.000011   0.000000
    24  H   -0.000008   0.000001   0.000000  -0.000002   0.000002   0.000000
    25  H   -0.000021   0.000000   0.000000  -0.000014   0.000006   0.000000
    26  H    0.000166  -0.000001   0.000000   0.000179  -0.000005   0.000000
    27  H   -0.000145  -0.000050   0.000003   0.000043  -0.000041   0.000000
    28  H    0.000354   0.000040   0.000031  -0.000476   0.001653   0.000002
    29  H    0.001884   0.000277   0.000422   0.002686   0.000060   0.000030
    30  H    0.000450  -0.000058  -0.000013   0.000028  -0.000004   0.000001
    31  H   -0.000317  -0.000015   0.000025  -0.000007   0.000017   0.000009
    32  H    0.000255  -0.000017   0.000000  -0.000008   0.000009   0.000010
    33  H   -0.000042   0.000005   0.000000  -0.000004   0.000000   0.000004
    34  H    0.000000   0.000000   0.000000   0.000000   0.000000   0.000000
    35  H   -0.000001   0.000000   0.000000   0.000000   0.000000   0.000001
    36  H    0.000000   0.000000   0.000000   0.000000   0.000000   0.000000
    37  C    5.420587   0.298814  -0.052274   0.397479   0.392031  -0.050356
    38  C    0.298814   5.104946   0.630661  -0.044652  -0.041949   0.389691
    39  C   -0.052274   0.630661   5.120016  -0.000001   0.000309  -0.034256
    40  H    0.397479  -0.044652  -0.000001   0.440961  -0.025094   0.004239
    41  H    0.392031  -0.041949   0.000309  -0.025094   0.452736  -0.002047
    42  H   -0.050356   0.389691  -0.034256   0.004239  -0.002047   0.462825
    43  H    0.005852  -0.036283   0.391146   0.000183  -0.000338  -0.008406
    44  H   -0.008421  -0.043529   0.390462   0.004157   0.000190   0.006060
              43         44
     1  C   -0.000003   0.000002
     2  C    0.000008   0.000277
     3  C   -0.000243  -0.000038
     4  C    0.000052   0.000004
     5  C   -0.000024  -0.000007
     6  H   -0.000001   0.000002
     7  H    0.000133  -0.000142
     8  H   -0.000003   0.000004
     9  H   -0.000005   0.000003
    10  O    0.000005  -0.000003
    11  O   -0.000020   0.000001
    12  C    0.000000   0.000000
    13  C    0.000000   0.000000
    14  C    0.000013  -0.000052
    15  O    0.000004  -0.000021
    16  Si   0.000008  -0.000032
    17  C    0.000000   0.000001
    18  C    0.000000   0.000000
    19  C    0.000000   0.000000
    20  H    0.000000   0.000000
    21  H    0.000000   0.000000
    22  H    0.000000   0.000000
    23  H    0.000000   0.000000
    24  H    0.000000   0.000000
    25  H    0.000000   0.000000
    26  H    0.000000   0.000000
    27  H    0.000000   0.000002
    28  H   -0.000001   0.000013
    29  H   -0.000009   0.000197
    30  H    0.000000   0.000003
    31  H   -0.000001   0.000011
    32  H    0.000000   0.000000
    33  H    0.000000   0.000000
    34  H    0.000000   0.000000
    35  H    0.000000   0.000000
    36  H    0.000000   0.000000
    37  C    0.005852  -0.008421
    38  C   -0.036283  -0.043529
    39  C    0.391146   0.390462
    40  H    0.000183   0.004157
    41  H   -0.000338   0.000190
    42  H   -0.008406   0.006060
    43  H    0.449718  -0.033347
    44  H   -0.033347   0.461452
 Mulliken charges:
               1
     1  C   -0.036384
     2  C   -0.330893
     3  C    0.280950
     4  C   -0.704612
     5  C    0.501618
     6  H    0.246313
     7  H    0.266932
     8  H    0.301556
     9  H    0.274850
    10  O   -0.323403
    11  O   -0.385327
    12  C   -0.451562
    13  C   -0.660029
    14  C   -0.663354
    15  O   -0.633647
    16  Si   1.422991
    17  C   -1.060166
    18  C   -1.069734
    19  C   -1.041353
    20  H    0.248424
    21  H    0.246143
    22  H    0.241820
    23  H    0.232722
    24  H    0.239580
    25  H    0.240408
    26  H    0.236868
    27  H    0.242360
    28  H    0.244783
    29  H    0.235017
    30  H    0.251780
    31  H    0.231123
    32  H    0.244297
    33  H    0.240765
    34  H    0.228504
    35  H    0.236236
    36  H    0.223388
    37  C   -0.547164
    38  C   -0.198259
    39  C   -0.446010
    40  H    0.258945
    41  H    0.253939
    42  H    0.225271
    43  H    0.231563
    44  H    0.222749
 Sum of Mulliken charges =   0.00000
 Mulliken charges with hydrogens summed into heavy atoms:
               1
     1  C    0.209929
     2  C   -0.063961
     3  C    0.280950
     4  C   -0.128206
     5  C    0.501618
    10  O   -0.323403
    11  O   -0.385327
    12  C    0.033500
    13  C    0.028100
    14  C    0.054567
    15  O   -0.633647
    16  Si   1.422991
    17  C   -0.336155
    18  C   -0.333348
    19  C   -0.328642
    37  C   -0.034279
    38  C    0.027012
    39  C    0.008302
 Electronic spatial extent (au):  <R**2>=           5292.6980
 Charge=              0.0000 electrons
 Dipole moment (field-independent basis, Debye):
    X=              4.4964    Y=             -1.0722    Z=             -3.1609  Tot=              5.5999
 Quadrupole moment (field-independent basis, Debye-Ang):
   XX=           -129.6393   YY=           -116.1836   ZZ=           -122.4754
   XY=              3.8665   XZ=             13.8095   YZ=             -4.3499
 Traceless Quadrupole moment (field-independent basis, Debye-Ang):
   XX=             -6.8732   YY=              6.5825   ZZ=              0.2907
   XY=              3.8665   XZ=             13.8095   YZ=             -4.3499
 Octapole moment (field-independent basis, Debye-Ang**2):
  XXX=             56.8374  YYY=              2.4070  ZZZ=            -22.1801  XYY=            -15.8408
  XXY=            -18.2243  XXZ=            -31.7188  XZZ=             15.4653  YZZ=             -9.1704
  YYZ=             -5.0210  XYZ=              6.6691
 Hexadecapole moment (field-independent basis, Debye-Ang**3):
 XXXX=          -3684.7084 YYYY=          -2359.6004 ZZZZ=          -1262.2404 XXXY=             -1.9694
 XXXZ=            133.4989 YYYX=            -42.6637 YYYZ=            -24.5572 ZZZX=             34.4262
 ZZZY=            -22.3930 XXYY=          -1008.3285 XXZZ=           -866.1823 YYZZ=           -582.8302
 XXYZ=            -18.3683 YYXZ=              6.1597 ZZXY=             30.2289
 N-N= 1.636130856580D+03 E-N=-5.767487311187D+03  KE= 1.060526391391D+03
 1\1\GINC-CPU-E-611\SP\RmPW1PW91\6-311G(d)\C14H26O3Si1\KE291\06-Feb-201
 9\0\\# mPW1PW91/6-311g(d) geom=checkpoint nmr=giao scrf=(solvent=chlor
 oform)\\P_ng_3ginp005\\0,1\C,0,-0.7254264802,0.3517896951,-0.562661095
 9\C,0,-1.0866253179,-0.3537341875,0.7559744922\C,0,-1.6059671337,0.627
 60325,1.8464797285\C,0,-0.9714152608,2.0346423897,1.6285024395\C,0,0.3
 024982113,2.0807098392,0.8092658256\H,0,-0.2254321678,-0.3815318274,-1
 .2049385571\H,0,-0.1261766476,-0.7288949944,1.1302292612\H,0,-1.701687
 2517,2.6402742008,1.0831869082\H,0,-0.7741652193,2.5483977082,2.570987
 8576\O,0,0.3436204423,1.3190336339,-0.3041650023\O,0,1.2464652927,2.79
 69337189,1.0745531823\C,0,-1.8604525531,0.9838416397,-1.3746982094\C,0
 ,-1.3786277775,1.6185680443,-2.6835134284\C,0,-1.9977495189,-1.5651480
 237,0.5302508218\O,0,-3.0209649679,0.7382218969,1.7065722937\Si,0,-4.2
 82500511,1.3002386274,2.6712093885\C,0,-4.7538505907,0.0372479731,3.99
 2491506\C,0,-3.8841548339,2.9559537371,3.4884163529\C,0,-5.7059594606,
 1.503155213,1.4582132141\H,0,-3.0561189042,2.8883252574,4.201668774\H,
 0,-3.6311603836,3.7242774145,2.7503763099\H,0,-4.7620215639,3.30814026
 63,4.0429825766\H,0,-6.6139149708,1.8358100849,1.9734770664\H,0,-5.467
 9886221,2.2422700104,0.6862460093\H,0,-5.9342866186,0.5567965513,0.956
 9088972\H,0,-5.6738885251,0.3530249301,4.4984741725\H,0,-4.9411093397,
 -0.9466204714,3.5492265137\H,0,-3.9805769199,-0.0803029308,4.757819998
 7\H,0,-2.1218295151,-2.1382615858,1.45328996\H,0,-2.9902849585,-1.2668
 069259,0.1891405124\H,0,-1.557498394,-2.2354808158,-0.2154683474\H,0,-
 2.4045214772,1.7176268075,-0.7737330351\H,0,-2.5794065265,0.1873513832
 ,-1.5975876219\H,0,-2.2220875205,2.0261644248,-3.2487854586\H,0,-0.672
 6188158,2.4317909781,-2.4943848297\H,0,-0.8751623874,0.8812870791,-3.3
 189381041\C,0,-1.2528746992,0.0932028932,3.2638293985\C,0,0.2182045306
 ,-0.0273505173,3.5588539938\C,0,0.8288560935,-1.1555195827,3.926157863
 6\H,0,-1.7428028055,-0.8753807106,3.4068063566\H,0,-1.6993399171,0.788
 2336097,3.988027313\H,0,0.8089115068,0.885082149,3.4765543155\H,0,1.89
 2306625,-1.1816601162,4.1441564089\H,0,0.285421855,-2.0920247172,4.028
 7959774\\Version=ES64L-G09RevD.01\State=1-A\HF=-1064.3819674\RMSD=8.73
 0e-09\Dipole=-1.882341,-1.0586349,0.4358427\Quadrupole=-7.9197756,2.49
 82043,5.4215713,-9.5535381,2.0594134,2.1212356\PG=C01 [X(C14H26O3Si1)]
 \\@


 COLLEGE PROFESSOR: SOMEONE WHO TALKS IN OTHER PEOPLE'S SLEEP.
 Job cpu time:       0 days  0 hours 22 minutes  5.5 seconds.
 File lengths (MBytes):  RWF=    238 Int=      0 D2E=      0 Chk=     19 Scr=      1
 Normal termination of Gaussian 09 at Wed Feb  6 11:21:43 2019.
