 Entering Gaussian System, Link 0=/usr/local/Cluster-Apps/gaussian/g09/g09
 Initial command:
 /usr/local/Cluster-Apps/gaussian/g09/l1.exe "/home/ke291/rds/hpc-work/06Feb0927IP1/Gau-375727.inp" -scrdir="/home/ke291/rds/hpc-work/06Feb0927IP1/"
 Entering Link 1 = /usr/local/Cluster-Apps/gaussian/g09/l1.exe PID=    375732.
  
 Copyright (c) 1988,1990,1992,1993,1995,1998,2003,2009,2013,
            Gaussian, Inc.  All Rights Reserved.
  
 This is part of the Gaussian(R) 09 program.  It is based on
 the Gaussian(R) 03 system (copyright 2003, Gaussian, Inc.),
 the Gaussian(R) 98 system (copyright 1998, Gaussian, Inc.),
 the Gaussian(R) 94 system (copyright 1995, Gaussian, Inc.),
 the Gaussian 92(TM) system (copyright 1992, Gaussian, Inc.),
 the Gaussian 90(TM) system (copyright 1990, Gaussian, Inc.),
 the Gaussian 88(TM) system (copyright 1988, Gaussian, Inc.),
 the Gaussian 86(TM) system (copyright 1986, Carnegie Mellon
 University), and the Gaussian 82(TM) system (copyright 1983,
 Carnegie Mellon University). Gaussian is a federally registered
 trademark of Gaussian, Inc.
  
 This software contains proprietary and confidential information,
 including trade secrets, belonging to Gaussian, Inc.
  
 This software is provided under written license and may be
 used, copied, transmitted, or stored only in accord with that
 written license.
  
 The following legend is applicable only to US Government
 contracts under FAR:
  
                    RESTRICTED RIGHTS LEGEND
  
 Use, reproduction and disclosure by the US Government is
 subject to restrictions as set forth in subparagraphs (a)
 and (c) of the Commercial Computer Software - Restricted
 Rights clause in FAR 52.227-19.
  
 Gaussian, Inc.
 340 Quinnipiac St., Bldg. 40, Wallingford CT 06492
  
  
 ---------------------------------------------------------------
 Warning -- This program may not be used in any manner that
 competes with the business of Gaussian, Inc. or will provide
 assistance to any competitor of Gaussian, Inc.  The licensee
 of this program is prohibited from giving any competitor of
 Gaussian, Inc. access to this program.  By using this program,
 the user acknowledges that Gaussian, Inc. is engaged in the
 business of creating and licensing software in the field of
 computational chemistry and represents and warrants to the
 licensee that it is not a competitor of Gaussian, Inc. and that
 it will not use this program in any manner prohibited above.
 ---------------------------------------------------------------
  

 Cite this work as:
 Gaussian 09, Revision D.01,
 M. J. Frisch, G. W. Trucks, H. B. Schlegel, G. E. Scuseria, 
 M. A. Robb, J. R. Cheeseman, G. Scalmani, V. Barone, B. Mennucci, 
 G. A. Petersson, H. Nakatsuji, M. Caricato, X. Li, H. P. Hratchian, 
 A. F. Izmaylov, J. Bloino, G. Zheng, J. L. Sonnenberg, M. Hada, 
 M. Ehara, K. Toyota, R. Fukuda, J. Hasegawa, M. Ishida, T. Nakajima, 
 Y. Honda, O. Kitao, H. Nakai, T. Vreven, J. A. Montgomery, Jr., 
 J. E. Peralta, F. Ogliaro, M. Bearpark, J. J. Heyd, E. Brothers, 
 K. N. Kudin, V. N. Staroverov, T. Keith, R. Kobayashi, J. Normand, 
 K. Raghavachari, A. Rendell, J. C. Burant, S. S. Iyengar, J. Tomasi, 
 M. Cossi, N. Rega, J. M. Millam, M. Klene, J. E. Knox, J. B. Cross, 
 V. Bakken, C. Adamo, J. Jaramillo, R. Gomperts, R. E. Stratmann, 
 O. Yazyev, A. J. Austin, R. Cammi, C. Pomelli, J. W. Ochterski, 
 R. L. Martin, K. Morokuma, V. G. Zakrzewski, G. A. Voth, 
 P. Salvador, J. J. Dannenberg, S. Dapprich, A. D. Daniels, 
 O. Farkas, J. B. Foresman, J. V. Ortiz, J. Cioslowski, 
 and D. J. Fox, Gaussian, Inc., Wallingford CT, 2013.
 
 ******************************************
 Gaussian 09:  ES64L-G09RevD.01 24-Apr-2013
                 6-Feb-2019 
 ******************************************
 %nprocshared=2
 Will use up to    2 processors via shared memory.
 %mem=6000MB
 %chk=/home/ke291/rds/hpc-work/06Feb0927IP1/P_ng_correct1ginp013.chk
 ----------------------------------------------------------------------
 # mPW1PW91/6-311g(d) geom=checkpoint nmr=giao scrf=(solvent=chloroform
 )
 ----------------------------------------------------------------------
 1/29=2,38=1/1;
 2/12=2,40=1/2;
 3/5=4,6=6,7=1,11=2,14=-4,16=1,25=1,30=1,70=2201,72=7,74=-7/1,2,8,3;
 4//1;
 5/5=2,38=5,53=7/2;
 8/6=1,10=90,11=11/1;
 10/13=100,45=16/2;
 6/7=2,8=2,9=2,10=2,28=1/1;
 99/9=1/99;
 --------------------
 P_ng_correct1ginp013
 --------------------
 Structure from the checkpoint file:  "/home/ke291/rds/hpc-work/06Feb0927IP1/P_ng_correct1ginp013.chk"
 Charge =  0 Multiplicity = 1
 Redundant internal coordinates found in file.
 C,0,1.0339463087,-0.3169136676,0.3890919533
 C,0,-0.5000325903,-0.4613230123,0.5818563299
 C,0,-1.0963602013,0.6151222839,1.5330228732
 C,0,-0.5953354209,1.9792533005,1.0345974467
 C,0,0.914314127,2.0821429281,1.0537226319
 H,0,1.5409348499,-1.0553573712,1.0196208903
 H,0,-0.9728085329,-0.2613682991,-0.388459923
 H,0,-0.9280176872,2.1396966259,0.001666054
 H,0,-0.9809431443,2.799469645,1.6410366981
 O,0,1.6153950276,0.9480976854,0.848446268
 O,0,1.5149670964,3.114391928,1.2649585822
 C,0,1.5125157493,-0.4768919446,-1.0612113214
 C,0,1.2538459489,-1.8471868966,-1.694631054
 C,0,-0.8679399863,-1.8946717237,0.9959606144
 O,0,-2.5179593718,0.5290247334,1.4946018197
 Si,0,-3.7629970445,1.1649205022,0.5580981766
 C,0,-5.2745998881,0.2008824099,1.126144773
 C,0,-4.005338798,3.0042801327,0.9017796697
 C,0,-3.4927472799,0.8906917247,-1.291456237
 H,0,-4.1062335337,3.1937587792,1.9757074461
 H,0,-3.1779719816,3.6162076509,0.5291722034
 H,0,-4.9215700389,3.3585167239,0.4149235408
 H,0,-4.3713301127,1.2436691404,-1.8446284983
 H,0,-2.6262304782,1.4326264986,-1.684632621
 H,0,-3.3618114316,-0.1710625619,-1.5259663863
 H,0,-6.1736847249,0.5422081916,0.6010052797
 H,0,-5.1568247841,-0.8696360624,0.9285965311
 H,0,-5.4463825314,0.3270571601,2.200089422
 H,0,-0.5959082668,-2.6140751068,0.2204972652
 H,0,-0.3540672182,-2.1939757149,1.914649454
 H,0,-1.9444263377,-1.9712520027,1.1664955844
 H,0,2.588250039,-0.2706895403,-1.0668020742
 H,0,1.0407219596,0.308244641,-1.6661444207
 H,0,1.7166048913,-1.8934210358,-2.6848343433
 H,0,1.6810029667,-2.6557856974,-1.0916644302
 H,0,0.1864867374,-2.0487191387,-1.823953789
 C,0,-0.6958264242,0.3827597611,3.0150476591
 C,0,-1.2013769424,1.4386778048,3.9597391137
 C,0,-0.4302912527,2.1852085907,4.7520030189
 H,0,0.3936962687,0.3021561513,3.0952528634
 H,0,-1.1159448157,-0.5858819548,3.3087041057
 H,0,-2.2816368909,1.5722979825,3.9839819686
 H,0,-0.8531659345,2.9243154175,5.4263435489
 H,0,0.6525346752,2.0832073372,4.7587883125
 Recover connectivity data from disk.
                          Input orientation:                          
 ---------------------------------------------------------------------
 Center     Atomic      Atomic             Coordinates (Angstroms)
 Number     Number       Type             X           Y           Z
 ---------------------------------------------------------------------
      1          6           0        1.033946   -0.316914    0.389092
      2          6           0       -0.500033   -0.461323    0.581856
      3          6           0       -1.096360    0.615122    1.533023
      4          6           0       -0.595335    1.979253    1.034597
      5          6           0        0.914314    2.082143    1.053723
      6          1           0        1.540935   -1.055357    1.019621
      7          1           0       -0.972809   -0.261368   -0.388460
      8          1           0       -0.928018    2.139697    0.001666
      9          1           0       -0.980943    2.799470    1.641037
     10          8           0        1.615395    0.948098    0.848446
     11          8           0        1.514967    3.114392    1.264959
     12          6           0        1.512516   -0.476892   -1.061211
     13          6           0        1.253846   -1.847187   -1.694631
     14          6           0       -0.867940   -1.894672    0.995961
     15          8           0       -2.517959    0.529025    1.494602
     16         14           0       -3.762997    1.164921    0.558098
     17          6           0       -5.274600    0.200882    1.126145
     18          6           0       -4.005339    3.004280    0.901780
     19          6           0       -3.492747    0.890692   -1.291456
     20          1           0       -4.106234    3.193759    1.975707
     21          1           0       -3.177972    3.616208    0.529172
     22          1           0       -4.921570    3.358517    0.414924
     23          1           0       -4.371330    1.243669   -1.844628
     24          1           0       -2.626230    1.432626   -1.684633
     25          1           0       -3.361811   -0.171063   -1.525966
     26          1           0       -6.173685    0.542208    0.601005
     27          1           0       -5.156825   -0.869636    0.928597
     28          1           0       -5.446383    0.327057    2.200089
     29          1           0       -0.595908   -2.614075    0.220497
     30          1           0       -0.354067   -2.193976    1.914649
     31          1           0       -1.944426   -1.971252    1.166496
     32          1           0        2.588250   -0.270690   -1.066802
     33          1           0        1.040722    0.308245   -1.666144
     34          1           0        1.716605   -1.893421   -2.684834
     35          1           0        1.681003   -2.655786   -1.091664
     36          1           0        0.186487   -2.048719   -1.823954
     37          6           0       -0.695826    0.382760    3.015048
     38          6           0       -1.201377    1.438678    3.959739
     39          6           0       -0.430291    2.185209    4.752003
     40          1           0        0.393696    0.302156    3.095253
     41          1           0       -1.115945   -0.585882    3.308704
     42          1           0       -2.281637    1.572298    3.983982
     43          1           0       -0.853166    2.924315    5.426344
     44          1           0        0.652535    2.083207    4.758788
 ---------------------------------------------------------------------
                    Distance matrix (angstroms):
                    1          2          3          4          5
     1  C    0.000000
     2  C    1.552773   0.000000
     3  C    2.591423   1.555332   0.000000
     4  C    2.888532   2.484043   1.536329   0.000000
     5  C    2.492292   2.948263   2.534697   1.513273   0.000000
     6  H    1.095401   2.170268   3.163765   3.711164   3.199644
     7  H    2.152844   1.097731   2.115561   2.681038   3.336640
     8  H    3.167702   2.699092   2.167422   1.096981   2.122339
     9  H    3.916502   3.462067   2.190060   1.090512   2.109857
    10  O    1.466064   2.555889   2.816582   2.446480   1.348967
    11  O    3.573847   4.160840   3.624533   2.407277   1.212824
    12  C    1.535579   2.598127   3.837809   3.855918   3.373344
    13  C    2.594609   3.190471   4.690862   5.050723   4.807116
    14  C    2.544559   1.536661   2.576757   3.883697   4.358305
    15  O    3.814944   2.426092   1.424722   2.451785   3.793027
    16  Si   5.023451   3.645843   2.892008   3.305188   4.792096
    17  C    6.372528   4.850903   4.218392   5.006646   6.468929
    18  C    6.057027   4.939628   3.816897   3.563207   5.007635
    19  C    4.977299   3.780686   3.714336   3.871755   5.132408
    20  H    6.423676   5.320444   3.988066   3.832377   5.224141
    21  H    5.764488   4.878564   3.787788   3.099207   4.401740
    22  H    6.998402   5.845429   4.838242   4.582867   6.007890
    23  H    6.053259   4.876656   4.746475   4.805118   6.086174
    24  H    4.556108   3.639332   3.655424   3.437666   4.522822
    25  H    4.797021   3.566083   3.886872   4.339785   5.478775
    26  H    7.261745   5.761751   5.162673   5.776771   7.267467
    27  H    6.238767   4.687501   4.365457   5.379088   6.751843
    28  H    6.759369   5.263706   4.410290   5.255548   6.697234
    29  H    2.821666   2.184975   3.521490   4.664914   5.002949
    30  H    2.788776   2.190828   2.930473   4.271831   4.542596
    31  H    3.494552   2.169784   2.746432   4.176594   4.961363
    32  H    2.130170   3.505981   4.595662   4.428695   3.582528
    33  H    2.148224   2.831902   3.859529   3.572529   3.249672
    34  H    3.521423   4.199483   5.656490   5.846097   5.515939
    35  H    2.842823   3.517564   5.030066   5.584469   5.257230
    36  H    2.935117   2.962947   4.473370   5.000712   5.086725
    37  C    3.221382   2.582873   1.552681   2.545795   3.054055
    38  C    4.563802   3.938525   2.564805   3.035780   3.651729
    39  C    5.238282   4.939546   3.642891   3.726763   3.936479
    40  H    2.848943   2.774674   2.181462   2.834985   2.758123
    41  H    3.635727   2.798314   2.143791   3.467350   4.040452
    42  H    5.242656   4.345594   2.885874   3.421709   4.365829
    43  H    6.280180   5.920837   4.533151   4.499673   4.790935
    44  H    5.000030   5.024919   3.952147   3.929069   3.714302
                    6          7          8          9         10
     6  H    0.000000
     7  H    2.988648   0.000000
     8  H    4.164172   2.432965   0.000000
     9  H    4.648195   3.672554   1.767947   0.000000
    10  O    2.012133   3.113124   2.933580   3.285841   0.000000
    11  O    4.177041   4.507613   2.917895   2.543655   2.208257
    12  C    2.159929   2.583773   3.732619   4.924838   2.384947
    13  C    2.841932   3.029669   4.851102   6.141041   3.796258
    14  C    2.551017   2.143665   4.155522   4.739605   3.777572
    15  O    4.382978   2.560885   2.711279   2.745684   4.204493
    16  Si   5.768391   3.273442   3.049084   3.403576   5.390586
    17  C    6.931161   4.584006   4.890422   5.045122   6.935955
    18  C    6.874278   4.639549   3.320785   3.120163   5.985264
    19  C    5.870787   2.914230   3.132095   4.307216   5.538555
    20  H    7.131592   5.229297   3.887022   3.167792   6.249060
    21  H    6.658239   4.554162   2.742379   2.594270   5.495190
    22  H    7.849326   5.416799   4.195803   4.164664   6.980686
    23  H    6.960196   3.991931   4.008500   5.105399   6.571217
    24  H    5.555926   2.698793   2.495492   3.954151   4.964136
    25  H    5.594543   2.647529   3.687360   4.952020   5.626983
    26  H    7.889411   5.354801   5.516176   5.756862   7.803572
    27  H    6.700952   4.428388   5.272390   5.604275   7.012385
    28  H    7.219916   5.201894   5.341755   5.134736   7.216740
    29  H    2.763023   2.459291   4.770380   5.610049   4.239488
    30  H    2.385070   3.069548   4.771754   5.040073   3.858523
    31  H    3.606685   2.507116   4.392017   4.890120   4.614768
    32  H    2.462871   3.625103   4.394966   5.431152   2.469831
    33  H    3.053352   2.451783   3.164134   4.607687   2.657598
    34  H    3.802131   3.894853   5.520630   6.929152   4.535256
    35  H    2.653020   3.642862   5.567676   6.656833   4.093447
    36  H    3.302607   2.568897   4.702960   6.072395   4.261973
    37  C    3.324607   3.474980   3.495885   2.794581   3.217998
    38  C    4.731256   4.674317   4.028957   2.697541   4.225520
    39  C    5.321436   5.718778   4.776558   3.218485   4.577448
    40  H    2.732626   3.784330   3.833244   3.200149   2.637789
    41  H    3.538265   3.714138   4.289592   3.776234   3.983237
    42  H    5.504913   4.918700   4.244180   2.947397   5.040642
    43  H    6.402243   6.631352   5.481638   3.789520   5.563845
    44  H    4.961977   5.884976   5.013138   3.591888   4.184059
                   11         12         13         14         15
    11  O    0.000000
    12  C    4.278831   0.000000
    13  C    5.783132   1.531613   0.000000
    14  C    5.553497   3.450888   3.426881   0.000000
    15  O    4.795973   4.877374   5.481250   2.974140   0.000000
    16  Si   5.670714   5.757495   6.270271   4.234877   1.682712
    17  C    7.389589   7.163019   7.400809   4.881285   2.800447
    18  C    5.533335   6.813121   7.611643   5.818236   2.947987
    19  C    6.046264   5.193838   5.494422   4.458715   2.973741
    20  H    5.666512   7.366607   8.222711   6.110530   3.139249
    21  H    4.776702   6.425221   7.378007   5.993658   3.301268
    22  H    6.497012   7.634579   8.347774   6.660744   3.866403
    23  H    6.915029   6.180106   6.420163   5.494713   3.885378
    24  H    5.355179   4.600449   5.080578   4.620398   3.306925
    25  H    6.508951   4.905975   4.913465   3.943392   3.213416
    26  H    8.134638   7.929641   8.133103   5.851948   3.763378
    27  H    7.778073   6.970917   6.995258   4.410189   3.039774
    28  H    7.556725   7.727139   8.049177   5.229545   3.018968
    29  H    6.193709   3.264319   2.770817   1.092193   3.898294
    30  H    5.665170   3.910020   3.966428   1.094366   3.503370
    31  H    6.151493   4.375642   4.293062   1.092598   2.586112
    32  H    4.248273   1.095333   2.158737   4.340226   5.768337
    33  H    4.085430   1.097713   2.166130   3.947485   4.764795
    34  H    6.381200   2.164338   1.093977   4.497569   6.423976
    35  H    6.235077   2.185611   1.095383   3.381506   5.870526
    36  H    6.161490   2.193347   1.093890   3.014542   4.997160
    37  C    3.925842   4.715046   5.563718   3.048447   2.377671
    38  C    4.177126   6.020346   6.985480   4.472849   2.939007
    39  C    4.099621   6.682420   7.788172   5.562806   4.208559
    40  H    3.537781   4.374342   5.320011   3.290107   3.330359
    41  H    4.979018   5.100671   5.678042   2.668936   2.549437
    42  H    4.917860   6.636923   7.512600   4.790270   2.709480
    43  H    4.791796   7.697599   8.826948   6.546079   4.895666
    44  H    3.743525   6.416079   7.579987   5.682802   4.808579
                   16         17         18         19         20
    16  Si   0.000000
    17  C    1.880689   0.000000
    18  C    1.886820   3.085515   0.000000
    19  C    1.889203   3.081498   3.088736   0.000000
    20  H    2.498722   3.323273   1.095172   4.044112   0.000000
    21  H    2.520298   4.051749   1.094453   3.292751   1.769914
    22  H    2.484885   3.255936   1.096354   3.323165   1.768605
    23  H    2.479792   3.275484   3.282752   1.096586   4.297452
    24  H    2.528586   4.053582   3.325893   1.095049   4.323203
    25  H    2.507813   3.291018   4.048565   1.095199   4.913034
    26  H    2.490186   1.095732   3.294539   3.300042   3.632476
    27  H    2.493882   1.094946   4.041518   3.285809   4.325663
    28  H    2.496385   1.094891   3.306015   4.040454   3.172432
    29  H    4.942189   5.534830   6.607138   4.791771   7.009571
    30  H    4.974255   5.528899   6.432694   5.444777   6.565833
    31  H    3.675993   3.976160   5.391971   4.077934   5.657347
    32  H    6.711156   8.176540   7.620771   6.194982   8.128676
    33  H    5.362543   6.905917   6.271010   4.586064   6.934005
    34  H    7.063717   8.233263   8.342177   6.068784   9.028039
    35  H    6.852492   7.839620   8.267082   6.275756   8.781688
    36  H    5.621394   6.602065   7.108715   4.739246   7.768426
    37  C    4.006983   4.956430   4.721350   5.160110   4.540134
    38  C    4.267084   5.113955   4.434459   5.755495   3.931270
    39  C    5.453142   6.368024   5.317524   6.897667   4.715670
    40  H    4.945666   6.001435   5.609305   5.890164   5.464807
    41  H    4.199765   4.762035   5.199149   5.384323   5.000439
    42  H    3.754606   4.359569   3.810734   5.455421   3.160926
    43  H    5.938215   6.742246   5.514913   7.498790   4.749941
    44  H    6.163276   7.202095   6.117244   7.430405   5.623588
                   21         22         23         24         25
    21  H    0.000000
    22  H    1.766237   0.000000
    23  H    3.562018   3.143393   0.000000
    24  H    3.158065   3.658657   1.762577   0.000000
    25  H    4.312865   4.319471   1.766958   1.771461   0.000000
    26  H    4.292893   3.087719   3.117957   4.312936   3.597137
    27  H    4.919166   4.265733   3.574051   4.305030   3.120089
    28  H    4.330838   3.556964   4.284350   4.926115   4.298494
    29  H    6.751204   7.377059   5.779338   4.911977   4.082728
    30  H    6.606982   7.344483   6.487524   5.591941   4.997653
    31  H    5.757388   6.150990   5.029160   4.492235   3.535394
    32  H    7.134733   8.471366   7.164779   5.520309   5.968583
    33  H    5.793049   7.013126   5.495196   3.835507   4.430766
    34  H    8.040070   9.014251   6.900017   5.560865   5.486329
    35  H    8.097818   9.057351   7.239022   5.968164   5.638479
    36  H    6.996298   7.768077   5.622628   4.477785   4.025520
    37  C    4.774496   5.785558   6.153612   5.188032   5.294809
    38  C    4.518557   5.485557   6.616443   5.821441   6.111604
    39  C    5.237347   6.352834   7.741694   6.842427   7.318383
    40  H    5.506771   6.691604   6.927796   5.765867   5.973562
    41  H    5.443832   6.197986   6.364089   5.593635   5.346965
    42  H    4.112991   4.785186   6.200606   5.680796   5.879253
    43  H    5.464954   6.469527   8.250399   7.478962   8.013069
    44  H    5.908682   7.180962   8.339614   7.258872   7.790690
                   26         27         28         29         30
    26  H    0.000000
    27  H    1.770487   0.000000
    28  H    1.769839   1.769919   0.000000
    29  H    6.420164   4.934210   6.008007   0.000000
    30  H    6.563559   5.078647   5.689355   1.762136   0.000000
    31  H    4.952160   3.404359   4.314422   1.768229   1.771604
    32  H    8.956220   8.020383   8.693975   4.157819   4.609264
    33  H    7.565869   6.821266   7.551864   3.844207   4.585698
    34  H    8.887390   7.832564   8.949938   3.782593   5.053045
    35  H    8.648030   7.350352   8.398370   2.628276   3.659604
    36  H    7.283208   6.125173   7.318911   2.260874   3.780271
    37  C    5.988318   5.081563   4.820274   4.098843   2.822630
    38  C    6.067009   5.491967   4.727805   5.547371   4.253998
    39  C    7.274394   6.803722   5.926733   6.602658   5.218586
    40  H    7.029181   6.072543   5.908338   4.212831   2.860708
    41  H    5.846790   4.698312   4.562365   3.731089   2.260489
    42  H    5.258674   4.854393   3.840379   5.876327   4.709828
    43  H    7.567446   7.290081   6.184829   7.605313   6.227198
    44  H    8.139970   7.558989   6.843084   6.649749   5.234183
                   31         32         33         34         35
    31  H    0.000000
    32  H    5.331481   0.000000
    33  H    4.704367   1.757617   0.000000
    34  H    5.314316   2.451745   2.518309   0.000000
    35  H    4.325692   2.551940   3.086335   1.766538   0.000000
    36  H    3.672816   3.082716   2.511951   1.762525   1.771541
    37  C    3.243072   5.279550   4.993467   6.594655   5.634462
    38  C    4.470118   6.522984   6.160800   7.985478   7.112624
    39  C    5.694263   7.000109   6.846860   8.749339   7.876626
    40  H    3.788840   4.739928   4.805162   6.322978   5.285533
    41  H    2.682292   5.741556   5.495434   6.756885   5.609872
    42  H    4.539679   7.254159   6.675315   8.512946   7.703336
    43  H    6.580557   8.013260   7.793204   9.777807   8.946729
    44  H    6.007280   6.574597   6.676896   8.506076   7.598921
                   36         37         38         39         40
    36  H    0.000000
    37  C    5.486939   0.000000
    38  C    6.894868   1.504323   0.000000
    39  C    7.845366   2.517210   1.334003   0.000000
    40  H    5.456019   1.095440   2.140859   2.640012   0.000000
    41  H    5.493669   1.095902   2.128377   3.198777   1.764423
    42  H    7.275680   2.206497   1.088762   2.095948   3.092007
    43  H    8.853178   3.506937   2.116435   1.086203   3.723489
    44  H    7.786046   2.783924   2.119171   1.087641   2.450814
                   41         42         43         44
    41  H    0.000000
    42  H    2.544126   0.000000
    43  H    4.107911   2.439034   0.000000
    44  H    3.514869   3.077453   1.849386   0.000000
 Stoichiometry    C14H26O3Si
 Framework group  C1[X(C14H26O3Si)]
 Deg. of freedom   126
 Full point group                 C1      NOp   1
 Largest Abelian subgroup         C1      NOp   1
 Largest concise Abelian subgroup C1      NOp   1
                         Standard orientation:                         
 ---------------------------------------------------------------------
 Center     Atomic      Atomic             Coordinates (Angstroms)
 Number     Number       Type             X           Y           Z
 ---------------------------------------------------------------------
      1          6           0        2.438045   -0.423690    0.252018
      2          6           0        0.982075   -0.798640    0.640176
      3          6           0       -0.025845    0.363446    0.410580
      4          6           0        0.191098    0.866569   -1.024728
      5          6           0        1.597303    1.377775   -1.251111
      6          1           0        2.997404   -0.186554    1.163494
      7          1           0        0.651881   -1.587406   -0.048179
      8          1           0        0.015180    0.047868   -1.733352
      9          1           0       -0.490730    1.679323   -1.277232
     10          8           0        2.588587    0.799352   -0.542242
     11          8           0        1.868871    2.284291   -2.009676
     12          6           0        3.188429   -1.508913   -0.533613
     13          6           0        3.402197   -2.832097    0.207552
     14          6           0        0.924140   -1.367033    2.066675
     15          8           0       -1.349196   -0.128029    0.603007
     16         14           0       -2.530678   -0.876263   -0.332816
     17          6           0       -3.822723   -1.399865    0.929503
     18          6           0       -3.289405    0.330995   -1.568516
     19          6           0       -1.879276   -2.397799   -1.243691
     20          1           0       -3.622051    1.247367   -1.069506
     21          1           0       -2.592822    0.615424   -2.363311
     22          1           0       -4.165445   -0.123378   -2.046105
     23          1           0       -2.707551   -2.893881   -1.763655
     24          1           0       -1.124043   -2.156462   -1.999014
     25          1           0       -1.443482   -3.125604   -0.550983
     26          1           0       -4.672452   -1.886333    0.437631
     27          1           0       -3.403704   -2.107334    1.652564
     28          1           0       -4.206685   -0.538838    1.486272
     29          1           0        1.501972   -2.290107    2.149926
     30          1           0        1.327754   -0.661235    2.799193
     31          1           0       -0.110090   -1.588942    2.340341
     32          1           0        4.160019   -1.086852   -0.812240
     33          1           0        2.646170   -1.690130   -1.470677
     34          1           0        4.027855   -3.498880   -0.393063
     35          1           0        3.908318   -2.678289    1.166744
     36          1           0        2.461063   -3.354920    0.401250
     37          6           0        0.154077    1.514541    1.436945
     38          6           0       -0.761151    2.686743    1.210479
     39          6           0       -0.356786    3.941750    1.007967
     40          1           0        1.196685    1.850634    1.436481
     41          1           0       -0.050592    1.091293    2.426880
     42          1           0       -1.826769    2.464296    1.229951
     43          1           0       -1.065340    4.752408    0.864364
     44          1           0        0.697782    4.206604    0.981518
 ---------------------------------------------------------------------
 Rotational constants (GHZ):      0.4286720      0.3071832      0.2375852
 Standard basis: 6-311G(d) (5D, 7F)
 There are   428 symmetry adapted cartesian basis functions of A   symmetry.
 There are   410 symmetry adapted basis functions of A   symmetry.
   410 basis functions,   720 primitive gaussians,   428 cartesian basis functions
    74 alpha electrons       74 beta electrons
       nuclear repulsion energy      1631.1343677153 Hartrees.
 NAtoms=   44 NActive=   44 NUniq=   44 SFac= 1.00D+00 NAtFMM=   60 NAOKFM=F Big=F
 Integral buffers will be    131072 words long.
 Raffenetti 2 integral format.
 Two-electron integral symmetry is turned on.
 ------------------------------------------------------------------------------
 Polarizable Continuum Model (PCM)
 =================================
 Model                : PCM (using non-symmetric T matrix).
 Atomic radii         : UFF (Universal Force Field).
 Polarization charges : Total charges.
 Charge compensation  : None.
 Solution method      : On-the-fly selection.
 Cavity type          : Scaled VdW (van der Waals Surface) (Alpha=1.100).
 Cavity algorithm     : GePol (No added spheres)
                        Default sphere list used, NSphG=   44.
                        Lebedev-Laikov grids with approx.  5.0 points / Ang**2.
                        Smoothing algorithm: Karplus/York (Gamma=1.0000).
                        Polarization charges: spherical gaussians, with
                                              point-specific exponents (IZeta= 3).
                        Self-potential: point-specific (ISelfS= 7).
                        Self-field    : sphere-specific E.n sum rule (ISelfD= 2).
 Solvent              : Chloroform, Eps=   4.711300 Eps(inf)=   2.090627
 ------------------------------------------------------------------------------
 One-electron integrals computed using PRISM.
 NBasis=   410 RedAO= T EigKep=  9.72D-04  NBF=   410
 NBsUse=   410 1.00D-06 EigRej= -1.00D+00 NBFU=   410
 ExpMin= 6.54D-02 ExpMax= 6.94D+04 ExpMxC= 2.33D+03 IAcc=2 IRadAn=         4 AccDes= 0.00D+00
 Harris functional with IExCor=  908 and IRadAn=       4 diagonalized for initial guess.
 HarFok:  IExCor=  908 AccDes= 0.00D+00 IRadAn=         4 IDoV= 1 UseB2=F ITyADJ=14
 ICtDFT=  3500011 ScaDFX=  1.000000  1.000000  1.000000  1.000000
 FoFCou: FMM=F IPFlag=           0 FMFlag=      100000 FMFlg1=           0
         NFxFlg=           0 DoJE=T BraDBF=F KetDBF=T FulRan=T
         wScrn=  0.000000 ICntrl=     500 IOpCl=  0 I1Cent=   200000004 NGrid=           0
         NMat0=    1 NMatS0=      1 NMatT0=    0 NMatD0=    1 NMtDS0=    0 NMtDT0=    0
 Petite list used in FoFCou.
 Requested convergence on RMS density matrix=1.00D-08 within 128 cycles.
 Requested convergence on MAX density matrix=1.00D-06.
 Requested convergence on             energy=1.00D-06.
 No special actions if energy rises.
 Inv3:  Mode=1 IEnd=    25684428.
 Iteration    1 A*A^-1 deviation from unit magnitude is 4.22D-15 for   1449.
 Iteration    1 A*A^-1 deviation from orthogonality  is 3.14D-15 for   2906   2624.
 Iteration    1 A^-1*A deviation from unit magnitude is 4.00D-15 for   2901.
 Iteration    1 A^-1*A deviation from orthogonality  is 3.97D-12 for   2190   2161.
 Error on total polarization charges =  0.01116
 SCF Done:  E(RmPW1PW91) =  -1064.38112759     A.U. after   12 cycles
            NFock= 12  Conv=0.96D-08     -V/T= 2.0036
 DoSCS=F DFT=T ScalE2(SS,OS)=  1.000000  1.000000
 Range of M.O.s used for correlation:     1   410
 NBasis=   410 NAE=    74 NBE=    74 NFC=     0 NFV=     0
 NROrb=    410 NOA=    74 NOB=    74 NVA=   336 NVB=   336
 NEqPCM:  Using equilibrium solvation (IEInf=0, Eps=   4.7113, EpsInf=   2.0906)
          Differentiating once with respect to magnetic field using GIAOs.
          Electric field/nuclear overlap derivatives assumed to be zero.
 FoFJK:  IHMeth= 1 ICntrl=    6127 DoSepK=F KAlg= 0 I1Cent=   0 FoldK=F
 IRaf=         1 NMat=   1 IRICut=       1 DoRegI=T DoRafI=F ISym2E= 0.
          There are     3 degrees of freedom in the 1st order CPHF.  IDoFFX=0 NUNeed=     3.
      3 vectors produced by pass  0 Test12= 8.29D-13 3.33D-08 XBig12= 3.65D+01 1.03D+00.
 AX will form     3 AO Fock derivatives at one time.
      3 vectors produced by pass  1 Test12= 8.29D-13 3.33D-08 XBig12= 6.92D-02 9.05D-02.
      3 vectors produced by pass  2 Test12= 8.29D-13 3.33D-08 XBig12= 6.67D-04 1.01D-02.
      3 vectors produced by pass  3 Test12= 8.29D-13 3.33D-08 XBig12= 2.65D-06 3.10D-04.
      3 vectors produced by pass  4 Test12= 8.29D-13 3.33D-08 XBig12= 9.54D-09 2.38D-05.
      3 vectors produced by pass  5 Test12= 8.29D-13 3.33D-08 XBig12= 3.45D-11 9.78D-07.
      2 vectors produced by pass  6 Test12= 8.29D-13 3.33D-08 XBig12= 1.17D-13 5.99D-08.
 InvSVY:  IOpt=1 It=  1 EMax= 8.88D-16
 Solved reduced A of dimension    20 with     3 vectors.
 Calculating GIAO nuclear magnetic shielding tensors.
 SCF GIAO Magnetic shielding tensor (ppm):
      1  C    Isotropic =    99.6614   Anisotropy =    57.1739
   XX=    84.7326   YX=    -4.7076   ZX=    -4.3909
   XY=    -5.8095   YY=   112.7678   ZY=   -30.7257
   XZ=    -5.3321   YZ=   -29.4953   ZZ=   101.4839
   Eigenvalues:    72.4001    88.8069   137.7774
      2  C    Isotropic =   139.6177   Anisotropy =    21.1430
   XX=   150.0544   YX=    -8.0139   ZX=    -0.5169
   XY=    -6.0072   YY=   139.5702   ZY=    12.2647
   XZ=     3.7323   YZ=     2.1105   ZZ=   129.2284
   Eigenvalues:   124.6443   140.4957   153.7130
      3  C    Isotropic =   106.8344   Anisotropy =    54.6819
   XX=   137.2551   YX=    17.7046   ZX=    -1.8592
   XY=    14.6638   YY=    99.8001   ZY=     0.9852
   XZ=     0.0430   YZ=    -0.4763   ZZ=    83.4480
   Eigenvalues:    83.4086    93.8056   143.2890
      4  C    Isotropic =   143.3051   Anisotropy =    28.6781
   XX=   151.7585   YX=     9.1568   ZX=    -8.4075
   XY=     7.8145   YY=   134.3606   ZY=   -11.2539
   XZ=    -9.1010   YZ=    -6.0473   ZZ=   143.7963
   Eigenvalues:   128.7274   138.7641   162.4239
      5  C    Isotropic =    13.0735   Anisotropy =    86.8747
   XX=   -59.1760   YX=    17.6204   ZX=   -36.6261
   XY=    25.0793   YY=    51.2719   ZY=    21.0321
   XZ=   -47.9912   YZ=    18.4596   ZZ=    47.1246
   Eigenvalues:   -79.4402    47.6707    70.9899
      6  H    Isotropic =    28.0461   Anisotropy =     2.7828
   XX=    28.9562   YX=     0.7979   ZX=     1.2389
   XY=     0.5802   YY=    27.3131   ZY=    -1.1906
   XZ=     1.5165   YZ=    -0.3714   ZZ=    27.8690
   Eigenvalues:    26.0697    28.1673    29.9013
      7  H    Isotropic =    30.2375   Anisotropy =     4.5675
   XX=    32.3061   YX=    -0.3366   ZX=     1.8596
   XY=    -0.2653   YY=    30.0464   ZY=     2.9336
   XZ=     1.8621   YZ=     2.3731   ZZ=    28.3600
   Eigenvalues:    25.9654    31.4645    33.2825
      8  H    Isotropic =    29.9445   Anisotropy =     4.2082
   XX=    30.3135   YX=     2.0609   ZX=     0.8915
   XY=     2.0149   YY=    28.6261   ZY=     0.5108
   XZ=     1.1973   YZ=     1.4340   ZZ=    30.8940
   Eigenvalues:    27.2479    29.8357    32.7500
      9  H    Isotropic =    29.3597   Anisotropy =     3.3050
   XX=    29.5723   YX=    -1.2549   ZX=     0.8910
   XY=    -0.0402   YY=    29.9110   ZY=    -1.9976
   XZ=    -0.0912   YZ=    -1.8220   ZZ=    28.5959
   Eigenvalues:    27.2325    29.2837    31.5631
     10  O    Isotropic =    91.7363   Anisotropy =   191.4928
   XX=   155.9129   YX=   -77.0283   ZX=    33.2665
   XY=   -79.2783   YY=    30.3408   ZY=   136.5536
   XZ=    39.8313   YZ=   155.0032   ZZ=    88.9550
   Eigenvalues:  -114.9926   170.8032   219.3982
     11  O    Isotropic =  -108.6738   Anisotropy =   560.2909
   XX=  -219.4555   YX=    14.9248   ZX=   -91.0896
   XY=    -7.9239   YY=   -88.0110   ZY=   305.1207
   XZ=   -80.8681   YZ=   311.3033   ZZ=   -18.5548
   Eigenvalues:  -385.8129  -205.0619   264.8535
     12  C    Isotropic =   151.8164   Anisotropy =    29.3709
   XX=   147.9630   YX=    -9.7386   ZX=   -12.0120
   XY=   -14.7926   YY=   157.1667   ZY=     1.8734
   XZ=   -10.8904   YZ=     8.1317   ZZ=   150.3195
   Eigenvalues:   135.5524   148.4998   171.3970
     13  C    Isotropic =   176.2145   Anisotropy =    13.5715
   XX=   172.0491   YX=    -4.8755   ZX=    -0.1420
   XY=    -4.3500   YY=   180.8011   ZY=    -5.0988
   XZ=     0.8017   YZ=    -5.0573   ZZ=   175.7933
   Eigenvalues:   169.4411   173.9402   185.2622
     14  C    Isotropic =   173.1853   Anisotropy =    21.9794
   XX=   167.9479   YX=     1.5558   ZX=    -3.1239
   XY=     8.3323   YY=   166.7988   ZY=    -6.4966
   XZ=    -5.2482   YZ=    -4.4689   ZZ=   184.8092
   Eigenvalues:   162.3003   169.4174   187.8382
     15  O    Isotropic =   247.4316   Anisotropy =    19.8290
   XX=   232.4807   YX=     6.8688   ZX=    -9.4597
   XY=    15.5475   YY=   253.7948   ZY=     0.9348
   XZ=     1.5144   YZ=     8.4740   ZZ=   256.0192
   Eigenvalues:   226.6319   255.0119   260.6509
     16  Si   Isotropic =   333.6328   Anisotropy =    40.8247
   XX=   343.2235   YX=    20.4696   ZX=    21.1813
   XY=    16.3545   YY=   325.9197   ZY=     9.2241
   XZ=     3.2481   YZ=     1.2458   ZZ=   331.7552
   Eigenvalues:   313.8965   326.1526   360.8493
     17  C    Isotropic =   186.7352   Anisotropy =    12.5727
   XX=   189.4430   YX=     5.4954   ZX=    -3.8873
   XY=     5.5228   YY=   179.7497   ZY=    -0.8115
   XZ=    -3.2780   YZ=    -0.8228   ZZ=   191.0130
   Eigenvalues:   177.2174   187.8713   195.1170
     18  C    Isotropic =   185.3108   Anisotropy =    12.2672
   XX=   184.5795   YX=    -1.0806   ZX=     6.7187
   XY=     0.6488   YY=   187.6760   ZY=    -4.5525
   XZ=     6.1671   YZ=    -6.0762   ZZ=   183.6769
   Eigenvalues:   176.3190   186.1246   193.4890
     19  C    Isotropic =   186.0326   Anisotropy =     9.0542
   XX=   187.2060   YX=    -1.3188   ZX=     1.2492
   XY=    -4.0025   YY=   188.4224   ZY=     4.5530
   XZ=     1.2908   YZ=     5.8480   ZZ=   182.4693
   Eigenvalues:   178.7362   187.2928   192.0687
     20  H    Isotropic =    31.8488   Anisotropy =     8.1371
   XX=    31.0097   YX=    -3.4305   ZX=     0.0658
   XY=    -2.9734   YY=    35.2984   ZY=     2.2084
   XZ=     0.4272   YZ=     1.3392   ZZ=    29.2383
   Eigenvalues:    28.0884    30.1845    37.2735
     21  H    Isotropic =    31.9426   Anisotropy =     6.5473
   XX=    32.7576   YX=     0.7826   ZX=    -1.1586
   XY=     1.6880   YY=    29.2942   ZY=    -2.9926
   XZ=    -1.8896   YZ=    -2.9773   ZZ=    33.7760
   Eigenvalues:    27.7628    31.7576    36.3075
     22  H    Isotropic =    32.2445   Anisotropy =    10.4123
   XX=    35.7173   YX=     1.6766   ZX=     4.7916
   XY=     2.0607   YY=    29.5894   ZY=     0.6151
   XZ=     4.8095   YZ=     0.4041   ZZ=    31.4269
   Eigenvalues:    28.0342    29.5133    39.1861
     23  H    Isotropic =    32.1786   Anisotropy =    10.5590
   XX=    33.1798   YX=     3.6381   ZX=     3.4074
   XY=     3.2355   YY=    32.3387   ZY=     3.5989
   XZ=     3.3158   YZ=     3.7385   ZZ=    31.0173
   Eigenvalues:    27.8875    29.4303    39.2179
     24  H    Isotropic =    31.9773   Anisotropy =     6.3629
   XX=    33.2544   YX=     1.5743   ZX=    -3.0694
   XY=     0.6917   YY=    29.8588   ZY=     1.3040
   XZ=    -3.2779   YZ=     0.8457   ZZ=    32.8189
   Eigenvalues:    28.2977    31.4151    36.2193
     25  H    Isotropic =    31.9493   Anisotropy =     7.3409
   XX=    30.9945   YX=    -1.7910   ZX=     2.5533
   XY=    -2.0819   YY=    34.6562   ZY=    -2.5949
   XZ=     2.1181   YZ=    -1.8022   ZZ=    30.1972
   Eigenvalues:    28.1869    30.8178    36.8432
     26  H    Isotropic =    32.3575   Anisotropy =    10.2497
   XX=    36.6901   YX=     4.1758   ZX=     1.4166
   XY=     4.2701   YY=    30.4642   ZY=     0.8368
   XZ=     1.7711   YZ=     1.0370   ZZ=    29.9181
   Eigenvalues:    28.3200    29.5618    39.1906
     27  H    Isotropic =    31.9378   Anisotropy =     8.1664
   XX=    30.9187   YX=    -0.3367   ZX=    -0.0140
   XY=    -0.5759   YY=    31.6591   ZY=    -4.7081
   XZ=     0.7902   YZ=    -4.9251   ZZ=    33.2355
   Eigenvalues:    27.5638    30.8674    37.3820
     28  H    Isotropic =    31.8723   Anisotropy =     8.6298
   XX=    31.8880   YX=    -2.1874   ZX=    -3.6219
   XY=    -1.7986   YY=    32.2317   ZY=     2.7174
   XZ=    -3.4262   YZ=     3.4680   ZZ=    31.4972
   Eigenvalues:    27.8702    30.1212    37.6254
     29  H    Isotropic =    31.0734   Anisotropy =     8.5079
   XX=    29.7164   YX=    -4.5096   ZX=    -0.6081
   XY=    -4.4221   YY=    33.1137   ZY=    -2.6023
   XZ=    -0.6962   YZ=    -2.6982   ZZ=    30.3901
   Eigenvalues:    25.6878    30.7870    36.7453
     30  H    Isotropic =    31.2508   Anisotropy =     8.2641
   XX=    28.4498   YX=    -0.1939   ZX=     2.9714
   XY=     0.0939   YY=    30.1760   ZY=     1.5783
   XZ=     3.0336   YZ=     2.2600   ZZ=    35.1264
   Eigenvalues:    27.1010    29.8911    36.7601
     31  H    Isotropic =    30.5259   Anisotropy =     7.6695
   XX=    33.7597   YX=     1.2638   ZX=    -1.1965
   XY=     1.9474   YY=    27.5975   ZY=    -3.9835
   XZ=    -2.0974   YZ=    -3.5000   ZZ=    30.2204
   Eigenvalues:    24.9284    31.0103    35.6389
     32  H    Isotropic =    29.9760   Anisotropy =     8.5571
   XX=    34.1750   YX=     0.5451   ZX=    -3.2387
   XY=    -0.1115   YY=    29.6405   ZY=    -1.2699
   XZ=    -4.0798   YZ=    -1.7061   ZZ=    26.1126
   Eigenvalues:    24.3708    29.8766    35.6807
     33  H    Isotropic =    30.5740   Anisotropy =     4.2843
   XX=    29.1593   YX=    -2.3037   ZX=     0.1699
   XY=    -2.2232   YY=    29.3598   ZY=     0.5593
   XZ=     1.2957   YZ=     1.2973   ZZ=    33.2030
   Eigenvalues:    26.7801    31.5117    33.4302
     34  H    Isotropic =    30.9347   Anisotropy =    11.4497
   XX=    30.6146   YX=    -4.9886   ZX=    -2.6959
   XY=    -5.3676   YY=    33.6068   ZY=     2.2770
   XZ=    -2.5076   YZ=     1.9564   ZZ=    28.5828
   Eigenvalues:    26.2516    27.9847    38.5678
     35  H    Isotropic =    31.1952   Anisotropy =     8.6784
   XX=    31.1754   YX=    -2.0840   ZX=     3.6673
   XY=    -2.6999   YY=    29.2455   ZY=    -1.7802
   XZ=     4.0144   YZ=    -0.9220   ZZ=    33.1648
   Eigenvalues:    27.2853    29.3195    36.9808
     36  H    Isotropic =    31.1530   Anisotropy =     5.6427
   XX=    32.9079   YX=     0.7165   ZX=    -1.2605
   XY=     1.2845   YY=    33.6991   ZY=    -1.3525
   XZ=    -2.0468   YZ=    -1.3821   ZZ=    26.8520
   Eigenvalues:    26.2684    32.2758    34.9148
     37  C    Isotropic =   144.7975   Anisotropy =    18.5343
   XX=   143.5811   YX=    -8.4544   ZX=     2.6750
   XY=    -0.5435   YY=   152.7195   ZY=    10.1941
   XZ=     6.1842   YZ=     7.1429   ZZ=   138.0918
   Eigenvalues:   131.1964   146.0423   157.1537
     38  C    Isotropic =    45.8695   Anisotropy =   178.5287
   XX=   -70.8088   YX=    24.1660   ZX=    -7.1906
   XY=    28.9502   YY=    47.9087   ZY=    22.4541
   XZ=    -8.5066   YZ=    22.6502   ZZ=   160.5084
   Eigenvalues:   -77.1334    49.8532   164.8886
     39  C    Isotropic =    64.8662   Anisotropy =   141.3995
   XX=   -37.9550   YX=    39.1392   ZX=   -10.1275
   XY=    36.0877   YY=    76.8673   ZY=    14.7305
   XZ=   -11.5281   YZ=    18.6664   ZZ=   155.6864
   Eigenvalues:   -50.3001    85.7662   159.1325
     40  H    Isotropic =    30.1586   Anisotropy =     6.1073
   XX=    31.0855   YX=     2.0095   ZX=     0.8699
   XY=     0.1717   YY=    32.1418   ZY=     3.3957
   XZ=     1.2118   YZ=     2.6203   ZZ=    27.2484
   Eigenvalues:    25.7737    30.4719    34.2301
     41  H    Isotropic =    29.4931   Anisotropy =     3.8862
   XX=    25.7161   YX=    -1.8532   ZX=     0.3134
   XY=    -1.9543   YY=    30.6880   ZY=     1.1546
   XZ=     0.0276   YZ=    -0.9371   ZZ=    32.0753
   Eigenvalues:    25.0654    31.3301    32.0839
     42  H    Isotropic =    25.7532   Anisotropy =     7.1794
   XX=    23.5364   YX=    -1.6704   ZX=    -0.5323
   XY=    -0.2746   YY=    29.9821   ZY=     1.3440
   XZ=    -1.0007   YZ=     1.8110   ZZ=    23.7410
   Eigenvalues:    22.8465    23.8735    30.5395
     43  H    Isotropic =    26.7323   Anisotropy =     6.8881
   XX=    23.4713   YX=     1.4714   ZX=    -0.3266
   XY=    -1.0826   YY=    31.3130   ZY=     0.0720
   XZ=    -0.2156   YZ=     0.3323   ZZ=    25.4125
   Eigenvalues:    23.4280    25.4445    31.3243
     44  H    Isotropic =    26.8263   Anisotropy =     7.4320
   XX=    23.4408   YX=     0.6780   ZX=    -0.0910
   XY=     2.9606   YY=    31.2979   ZY=     0.8995
   XZ=    -0.8265   YZ=     0.7410   ZZ=    25.7403
   Eigenvalues:    22.8999    25.7981    31.7810
 End of Minotr F.D. properties file   721 does not exist.
 End of Minotr F.D. properties file   722 does not exist.
 End of Minotr F.D. properties file   788 does not exist.

 **********************************************************************

            Population analysis using the SCF density.

 **********************************************************************

 Orbital symmetries:
       Occupied  (A) (A) (A) (A) (A) (A) (A) (A) (A) (A) (A) (A)
                 (A) (A) (A) (A) (A) (A) (A) (A) (A) (A) (A) (A)
                 (A) (A) (A) (A) (A) (A) (A) (A) (A) (A) (A) (A)
                 (A) (A) (A) (A) (A) (A) (A) (A) (A) (A) (A) (A)
                 (A) (A) (A) (A) (A) (A) (A) (A) (A) (A) (A) (A)
                 (A) (A) (A) (A) (A) (A) (A) (A) (A) (A) (A) (A)
                 (A) (A)
       Virtual   (A) (A) (A) (A) (A) (A) (A) (A) (A) (A) (A) (A)
                 (A) (A) (A) (A) (A) (A) (A) (A) (A) (A) (A) (A)
                 (A) (A) (A) (A) (A) (A) (A) (A) (A) (A) (A) (A)
                 (A) (A) (A) (A) (A) (A) (A) (A) (A) (A) (A) (A)
                 (A) (A) (A) (A) (A) (A) (A) (A) (A) (A) (A) (A)
                 (A) (A) (A) (A) (A) (A) (A) (A) (A) (A) (A) (A)
                 (A) (A) (A) (A) (A) (A) (A) (A) (A) (A) (A) (A)
                 (A) (A) (A) (A) (A) (A) (A) (A) (A) (A) (A) (A)
                 (A) (A) (A) (A) (A) (A) (A) (A) (A) (A) (A) (A)
                 (A) (A) (A) (A) (A) (A) (A) (A) (A) (A) (A) (A)
                 (A) (A) (A) (A) (A) (A) (A) (A) (A) (A) (A) (A)
                 (A) (A) (A) (A) (A) (A) (A) (A) (A) (A) (A) (A)
                 (A) (A) (A) (A) (A) (A) (A) (A) (A) (A) (A) (A)
                 (A) (A) (A) (A) (A) (A) (A) (A) (A) (A) (A) (A)
                 (A) (A) (A) (A) (A) (A) (A) (A) (A) (A) (A) (A)
                 (A) (A) (A) (A) (A) (A) (A) (A) (A) (A) (A) (A)
                 (A) (A) (A) (A) (A) (A) (A) (A) (A) (A) (A) (A)
                 (A) (A) (A) (A) (A) (A) (A) (A) (A) (A) (A) (A)
                 (A) (A) (A) (A) (A) (A) (A) (A) (A) (A) (A) (A)
                 (A) (A) (A) (A) (A) (A) (A) (A) (A) (A) (A) (A)
                 (A) (A) (A) (A) (A) (A) (A) (A) (A) (A) (A) (A)
                 (A) (A) (A) (A) (A) (A) (A) (A) (A) (A) (A) (A)
                 (A) (A) (A) (A) (A) (A) (A) (A) (A) (A) (A) (A)
                 (A) (A) (A) (A) (A) (A) (A) (A) (A) (A) (A) (A)
                 (A) (A) (A) (A) (A) (A) (A) (A) (A) (A) (A) (A)
                 (A) (A) (A) (A) (A) (A) (A) (A) (A) (A) (A) (A)
                 (A) (A) (A) (A) (A) (A) (A) (A) (A) (A) (A) (A)
                 (A) (A) (A) (A) (A) (A) (A) (A) (A) (A) (A) (A)
 The electronic state is 1-A.
 Alpha  occ. eigenvalues --  -66.27492 -19.25912 -19.20724 -19.19618 -10.36907
 Alpha  occ. eigenvalues --  -10.31780 -10.30776 -10.25489 -10.25055 -10.23992
 Alpha  occ. eigenvalues --  -10.23865 -10.23834 -10.22837 -10.22677 -10.22562
 Alpha  occ. eigenvalues --  -10.21164 -10.20822 -10.20714  -5.33224  -3.67113
 Alpha  occ. eigenvalues --   -3.66819  -3.66802  -1.13179  -1.04796  -1.04066
 Alpha  occ. eigenvalues --   -0.85770  -0.83274  -0.80320  -0.77880  -0.74134
 Alpha  occ. eigenvalues --   -0.72710  -0.72299  -0.70454  -0.70189  -0.66574
 Alpha  occ. eigenvalues --   -0.63268  -0.62393  -0.58199  -0.55863  -0.53527
 Alpha  occ. eigenvalues --   -0.52592  -0.50434  -0.49576  -0.48726  -0.47410
 Alpha  occ. eigenvalues --   -0.46091  -0.45265  -0.44714  -0.44482  -0.43066
 Alpha  occ. eigenvalues --   -0.42659  -0.42579  -0.42259  -0.41486  -0.41297
 Alpha  occ. eigenvalues --   -0.40827  -0.40410  -0.39987  -0.39769  -0.39274
 Alpha  occ. eigenvalues --   -0.38544  -0.37965  -0.37598  -0.36222  -0.36034
 Alpha  occ. eigenvalues --   -0.35903  -0.34076  -0.33574  -0.32671  -0.30915
 Alpha  occ. eigenvalues --   -0.30542  -0.28871  -0.28232  -0.27069
 Alpha virt. eigenvalues --    0.00595   0.01483   0.03494   0.05497   0.05783
 Alpha virt. eigenvalues --    0.06832   0.06974   0.07553   0.08238   0.08471
 Alpha virt. eigenvalues --    0.09564   0.09834   0.10553   0.10908   0.11419
 Alpha virt. eigenvalues --    0.11580   0.12732   0.13073   0.13275   0.13919
 Alpha virt. eigenvalues --    0.13986   0.14230   0.14579   0.15058   0.15714
 Alpha virt. eigenvalues --    0.15946   0.16495   0.16848   0.17345   0.17976
 Alpha virt. eigenvalues --    0.18445   0.19410   0.19907   0.20423   0.21491
 Alpha virt. eigenvalues --    0.21848   0.22532   0.23280   0.24287   0.25243
 Alpha virt. eigenvalues --    0.25690   0.26016   0.26181   0.26775   0.27938
 Alpha virt. eigenvalues --    0.28971   0.30319   0.30782   0.31233   0.32581
 Alpha virt. eigenvalues --    0.33460   0.33895   0.34343   0.35603   0.36357
 Alpha virt. eigenvalues --    0.37126   0.38324   0.38966   0.40152   0.40571
 Alpha virt. eigenvalues --    0.40834   0.41868   0.42294   0.44090   0.44394
 Alpha virt. eigenvalues --    0.44625   0.45341   0.45868   0.47603   0.48665
 Alpha virt. eigenvalues --    0.49829   0.50421   0.50798   0.51606   0.52109
 Alpha virt. eigenvalues --    0.53255   0.54143   0.55254   0.55611   0.56769
 Alpha virt. eigenvalues --    0.57304   0.57623   0.58021   0.58293   0.58918
 Alpha virt. eigenvalues --    0.59097   0.59468   0.60208   0.60343   0.60833
 Alpha virt. eigenvalues --    0.61306   0.61576   0.62149   0.62540   0.62876
 Alpha virt. eigenvalues --    0.62945   0.63587   0.64035   0.64268   0.65255
 Alpha virt. eigenvalues --    0.66298   0.66886   0.67888   0.68086   0.68343
 Alpha virt. eigenvalues --    0.69331   0.69755   0.70260   0.70834   0.71376
 Alpha virt. eigenvalues --    0.71911   0.73380   0.74158   0.74387   0.75190
 Alpha virt. eigenvalues --    0.75977   0.76417   0.77420   0.78180   0.80428
 Alpha virt. eigenvalues --    0.82263   0.83694   0.86009   0.86560   0.87508
 Alpha virt. eigenvalues --    0.89022   0.90132   0.90856   0.92914   0.94292
 Alpha virt. eigenvalues --    0.94377   0.95214   0.96185   0.98558   1.00341
 Alpha virt. eigenvalues --    1.01261   1.02337   1.04203   1.08460   1.09983
 Alpha virt. eigenvalues --    1.11805   1.13915   1.16703   1.17615   1.20662
 Alpha virt. eigenvalues --    1.21141   1.24131   1.25066   1.27451   1.28387
 Alpha virt. eigenvalues --    1.29685   1.30462   1.31659   1.32811   1.33510
 Alpha virt. eigenvalues --    1.35324   1.37012   1.38276   1.40953   1.42003
 Alpha virt. eigenvalues --    1.43162   1.44333   1.44919   1.47416   1.48247
 Alpha virt. eigenvalues --    1.49263   1.50057   1.52398   1.52645   1.54296
 Alpha virt. eigenvalues --    1.54855   1.55563   1.56337   1.57539   1.57962
 Alpha virt. eigenvalues --    1.59363   1.59475   1.59757   1.60138   1.60623
 Alpha virt. eigenvalues --    1.61149   1.61938   1.62524   1.64206   1.64855
 Alpha virt. eigenvalues --    1.65236   1.65657   1.66731   1.68342   1.69102
 Alpha virt. eigenvalues --    1.70032   1.71424   1.72657   1.73636   1.73826
 Alpha virt. eigenvalues --    1.75294   1.76521   1.79036   1.80725   1.81442
 Alpha virt. eigenvalues --    1.81640   1.82531   1.85470   1.86155   1.87544
 Alpha virt. eigenvalues --    1.88657   1.90132   1.92734   1.96683   1.99007
 Alpha virt. eigenvalues --    2.01749   2.04227   2.06116   2.07153   2.12577
 Alpha virt. eigenvalues --    2.14944   2.16806   2.18721   2.22183   2.23765
 Alpha virt. eigenvalues --    2.27831   2.30678   2.33948   2.35012   2.40688
 Alpha virt. eigenvalues --    2.41329   2.41931   2.42166   2.42731   2.43123
 Alpha virt. eigenvalues --    2.43559   2.44683   2.45419   2.46339   2.47122
 Alpha virt. eigenvalues --    2.47742   2.48631   2.49541   2.51003   2.51550
 Alpha virt. eigenvalues --    2.52398   2.54033   2.55589   2.57524   2.60119
 Alpha virt. eigenvalues --    2.62352   2.62841   2.66504   2.72626   2.81552
 Alpha virt. eigenvalues --    2.82580   2.87119   2.88264   2.89724   2.90837
 Alpha virt. eigenvalues --    2.92449   2.92927   2.94068   2.94319   2.96273
 Alpha virt. eigenvalues --    2.96745   3.00418   3.01197   3.02743   3.06876
 Alpha virt. eigenvalues --    3.08107   3.11604   3.12749   3.13350   3.15020
 Alpha virt. eigenvalues --    3.16196   3.16754   3.17357   3.19203   3.21181
 Alpha virt. eigenvalues --    3.22101   3.22498   3.23346   3.23441   3.24441
 Alpha virt. eigenvalues --    3.26620   3.28020   3.28385   3.29293   3.32158
 Alpha virt. eigenvalues --    3.33028   3.34922   3.36354   3.38524   3.40351
 Alpha virt. eigenvalues --    3.45216   3.51707   3.57422   3.60273   3.61610
 Alpha virt. eigenvalues --    3.77322   3.87649   3.89692   3.98789   4.03972
 Alpha virt. eigenvalues --    4.10388   4.11950   4.16780   4.23085   4.24932
 Alpha virt. eigenvalues --    4.95563   5.01120   5.02419   5.10929   5.15336
 Alpha virt. eigenvalues --    5.22145   5.52260   5.56866   5.76762   5.84861
 Alpha virt. eigenvalues --   11.52388  11.53300  11.56719  23.41911  23.49520
 Alpha virt. eigenvalues --   23.54268  23.54383  23.56238  23.59520  23.71262
 Alpha virt. eigenvalues --   23.72736  23.77942  23.80573  23.84215  23.85207
 Alpha virt. eigenvalues --   23.90231  24.29554  49.99051  50.06009  50.12894
 Alpha virt. eigenvalues --  141.27631
          Condensed to atoms (all electrons):
               1          2          3          4          5          6
     1  C    5.193278   0.226054  -0.041320  -0.014610  -0.047091   0.394853
     2  C    0.226054   5.562812   0.325715  -0.086535  -0.004297  -0.049413
     3  C   -0.041320   0.325715   5.163043   0.243971  -0.027670  -0.006224
     4  C   -0.014610  -0.086535   0.243971   5.898962   0.240698   0.000704
     5  C   -0.047091  -0.004297  -0.027670   0.240698   4.398793   0.001911
     6  H    0.394853  -0.049413  -0.006224   0.000704   0.001911   0.473954
     7  H   -0.053218   0.409807  -0.055944  -0.008324   0.002105   0.006043
     8  H    0.000614  -0.006923  -0.031737   0.359032  -0.023946   0.000043
     9  H   -0.000014   0.006229  -0.030152   0.362337  -0.025375   0.000152
    10  O    0.227450  -0.042172   0.013329  -0.117603   0.333390  -0.029446
    11  O    0.002809  -0.000083   0.002777  -0.095391   0.677746  -0.000247
    12  C    0.338749  -0.061066   0.006065  -0.000962  -0.002826  -0.043931
    13  C   -0.063677  -0.000287   0.000142   0.000098   0.000018  -0.000181
    14  C   -0.058331   0.297263  -0.060577   0.007697  -0.000067  -0.002690
    15  O    0.003927  -0.050393   0.217989  -0.024230   0.001882  -0.000130
    16  Si   0.002212  -0.010264  -0.042393  -0.008848   0.001275  -0.000179
    17  C   -0.000001  -0.000125   0.002241  -0.000099   0.000001   0.000000
    18  C    0.000007  -0.000228  -0.000419  -0.000431   0.000003   0.000000
    19  C   -0.000118   0.000768  -0.000405  -0.001290  -0.000029  -0.000001
    20  H    0.000002  -0.000043   0.000497  -0.000317  -0.000023   0.000000
    21  H    0.000006  -0.000013  -0.000049   0.001410  -0.000028   0.000000
    22  H    0.000000   0.000003  -0.000040   0.000124   0.000000   0.000000
    23  H   -0.000002   0.000142  -0.000052   0.000051   0.000001   0.000000
    24  H   -0.000126   0.000060   0.000448   0.000282   0.000011   0.000001
    25  H   -0.000069   0.000318   0.000014   0.000274  -0.000001   0.000002
    26  H    0.000000  -0.000001  -0.000059  -0.000001   0.000000   0.000000
    27  H   -0.000001   0.000023  -0.000045  -0.000021   0.000000   0.000000
    28  H    0.000000  -0.000023  -0.000101  -0.000038   0.000000   0.000000
    29  H   -0.002302  -0.034410   0.007271  -0.000273   0.000000  -0.000944
    30  H   -0.005693  -0.037082  -0.011069  -0.000217   0.000080   0.005118
    31  H    0.006512  -0.036755  -0.007820   0.000588  -0.000070   0.000366
    32  H   -0.050302   0.009832  -0.000270   0.000624   0.000196  -0.006006
    33  H   -0.040996  -0.009520  -0.001630   0.000365   0.001014   0.007290
    34  H    0.007074  -0.000425   0.000031  -0.000007  -0.000010  -0.000318
    35  H   -0.002576  -0.002481  -0.000123  -0.000004  -0.000003   0.004857
    36  H   -0.007938   0.006091   0.000161  -0.000010   0.000000  -0.000255
    37  C    0.000739  -0.093150   0.278846  -0.097300  -0.003131   0.002637
    38  C   -0.000738   0.009598  -0.058635  -0.016076  -0.000642  -0.000052
    39  C   -0.000017   0.000021  -0.002672   0.000085   0.000782   0.000019
    40  H   -0.000615  -0.006402  -0.024479  -0.004136   0.000488  -0.002214
    41  H   -0.000082  -0.010252  -0.042329   0.007228  -0.000222  -0.000163
    42  H    0.000004  -0.000165  -0.001645  -0.000037   0.000084   0.000000
    43  H    0.000000   0.000018  -0.000309   0.000049   0.000012   0.000000
    44  H   -0.000003  -0.000009  -0.000184   0.000002   0.000761   0.000024
               7          8          9         10         11         12
     1  C   -0.053218   0.000614  -0.000014   0.227450   0.002809   0.338749
     2  C    0.409807  -0.006923   0.006229  -0.042172  -0.000083  -0.061066
     3  C   -0.055944  -0.031737  -0.030152   0.013329   0.002777   0.006065
     4  C   -0.008324   0.359032   0.362337  -0.117603  -0.095391  -0.000962
     5  C    0.002105  -0.023946  -0.025375   0.333390   0.677746  -0.002826
     6  H    0.006043   0.000043   0.000152  -0.029446  -0.000247  -0.043931
     7  H    0.470352   0.001963   0.000108   0.002434  -0.000009  -0.004886
     8  H    0.001963   0.422537  -0.014332   0.002287   0.001858   0.000512
     9  H    0.000108  -0.014332   0.401619   0.004353   0.009662  -0.000040
    10  O    0.002434   0.002287   0.004353   8.045171  -0.077499  -0.055671
    11  O   -0.000009   0.001858   0.009662  -0.077499   7.858470  -0.000251
    12  C   -0.004886   0.000512  -0.000040  -0.055671  -0.000251   5.308987
    13  C   -0.000695  -0.000060   0.000003   0.004523  -0.000002   0.277811
    14  C   -0.039807   0.000251  -0.000187   0.002612   0.000005   0.000753
    15  O   -0.002586  -0.003884  -0.000622  -0.000004  -0.000018  -0.000067
    16  Si  -0.002283   0.002523  -0.003557  -0.000395  -0.000411  -0.000307
    17  C   -0.000165  -0.000017  -0.000036   0.000000   0.000000   0.000000
    18  C   -0.000206  -0.000227  -0.001899  -0.000001  -0.000001   0.000000
    19  C   -0.004070   0.002393   0.000200   0.000002   0.000001   0.000054
    20  H    0.000001   0.000018   0.000145   0.000000   0.000001   0.000000
    21  H   -0.000024   0.000622  -0.000320  -0.000001  -0.000034   0.000000
    22  H    0.000005  -0.000027   0.000176   0.000000   0.000000   0.000000
    23  H    0.000558  -0.000009  -0.000005   0.000000   0.000000  -0.000001
    24  H   -0.001172   0.004225   0.000006  -0.000002   0.000003   0.000135
    25  H   -0.000946  -0.000361   0.000010   0.000000   0.000000   0.000034
    26  H    0.000002   0.000005  -0.000001   0.000000   0.000000   0.000000
    27  H   -0.000028  -0.000004  -0.000004   0.000000   0.000000   0.000000
    28  H    0.000000   0.000000  -0.000014   0.000000   0.000000   0.000000
    29  H   -0.007398  -0.000029   0.000012  -0.000065   0.000000  -0.001133
    30  H    0.007100  -0.000011   0.000009  -0.000002   0.000002   0.000389
    31  H   -0.003304   0.000023  -0.000003  -0.000124   0.000000  -0.000455
    32  H    0.000415  -0.000052  -0.000022   0.004428  -0.000013   0.401017
    33  H    0.004165   0.000751   0.000085   0.002404  -0.000227   0.387401
    34  H   -0.000323   0.000002   0.000000  -0.000166   0.000000  -0.031640
    35  H    0.000325   0.000004   0.000000  -0.000028   0.000000  -0.043091
    36  H    0.002635   0.000003   0.000000  -0.000044   0.000000  -0.034531
    37  C    0.008358   0.006307  -0.006478  -0.005997   0.000803   0.000089
    38  C   -0.000280   0.000102   0.007742   0.000421  -0.000502   0.000007
    39  C   -0.000004   0.000009   0.003820  -0.000129   0.000198  -0.000001
    40  H   -0.000301   0.000070  -0.000589   0.008775  -0.001089   0.000933
    41  H   -0.000283  -0.000164   0.000271   0.000166  -0.000002  -0.000040
    42  H    0.000015   0.000020  -0.000338  -0.000007   0.000001   0.000001
    43  H   -0.000001  -0.000003   0.000155  -0.000002   0.000013   0.000000
    44  H    0.000005   0.000008  -0.000021  -0.000288   0.000963  -0.000002
              13         14         15         16         17         18
     1  C   -0.063677  -0.058331   0.003927   0.002212  -0.000001   0.000007
     2  C   -0.000287   0.297263  -0.050393  -0.010264  -0.000125  -0.000228
     3  C    0.000142  -0.060577   0.217989  -0.042393   0.002241  -0.000419
     4  C    0.000098   0.007697  -0.024230  -0.008848  -0.000099  -0.000431
     5  C    0.000018  -0.000067   0.001882   0.001275   0.000001   0.000003
     6  H   -0.000181  -0.002690  -0.000130  -0.000179   0.000000   0.000000
     7  H   -0.000695  -0.039807  -0.002586  -0.002283  -0.000165  -0.000206
     8  H   -0.000060   0.000251  -0.003884   0.002523  -0.000017  -0.000227
     9  H    0.000003  -0.000187  -0.000622  -0.003557  -0.000036  -0.001899
    10  O    0.004523   0.002612  -0.000004  -0.000395   0.000000  -0.000001
    11  O   -0.000002   0.000005  -0.000018  -0.000411   0.000000  -0.000001
    12  C    0.277811   0.000753  -0.000067  -0.000307   0.000000   0.000000
    13  C    5.384841  -0.004481  -0.000001  -0.000021   0.000000   0.000000
    14  C   -0.004481   5.400717  -0.004206  -0.000569  -0.000095   0.000004
    15  O   -0.000001  -0.004206   8.287871   0.347891  -0.029965  -0.023710
    16  Si  -0.000021  -0.000569   0.347891  11.505108   0.337399   0.319043
    17  C    0.000000  -0.000095  -0.029965   0.337399   5.719425  -0.045857
    18  C    0.000000   0.000004  -0.023710   0.319043  -0.045857   5.763443
    19  C   -0.000027   0.000469  -0.023753   0.309121  -0.044890  -0.054639
    20  H    0.000000   0.000001  -0.002357  -0.025067  -0.000351   0.370446
    21  H    0.000000   0.000001  -0.001304  -0.026833   0.002226   0.371893
    22  H    0.000000   0.000000   0.000941  -0.011728  -0.000332   0.361814
    23  H    0.000000  -0.000012   0.000834  -0.010452  -0.000500   0.000317
    24  H   -0.000013   0.000094  -0.001431  -0.027968   0.002368  -0.000887
    25  H    0.000023   0.000297  -0.002093  -0.026397  -0.000413   0.002174
    26  H    0.000000  -0.000001   0.001186  -0.014520   0.360992   0.000689
    27  H    0.000000   0.000104  -0.001792  -0.024656   0.369535   0.002114
    28  H    0.000000  -0.000006  -0.001566  -0.023227   0.370338  -0.000476
    29  H    0.001240   0.388401  -0.000018  -0.000126  -0.000002   0.000000
    30  H    0.000023   0.386594   0.000012  -0.000130   0.000003   0.000000
    31  H    0.000219   0.385128   0.008985   0.002627   0.000161   0.000042
    32  H   -0.035820  -0.000807   0.000006   0.000040   0.000000   0.000000
    33  H   -0.037526   0.000812  -0.000035  -0.000306   0.000000   0.000000
    34  H    0.387470   0.000393   0.000000  -0.000002   0.000000   0.000000
    35  H    0.385700   0.000685   0.000000  -0.000004   0.000000   0.000000
    36  H    0.382573  -0.003969  -0.000004  -0.000024   0.000000   0.000000
    37  C   -0.000018  -0.008637  -0.082285  -0.000667   0.000054   0.000016
    38  C    0.000000  -0.000246   0.009339   0.001618  -0.000077  -0.000266
    39  C    0.000000  -0.000011   0.000972   0.000638  -0.000002  -0.000030
    40  H   -0.000059   0.001105   0.003508   0.000126   0.000003   0.000002
    41  H   -0.000001   0.002600   0.002474   0.000095  -0.000059   0.000022
    42  H    0.000000  -0.000012   0.003277   0.000829   0.000097   0.000463
    43  H    0.000000   0.000000   0.000012   0.000010   0.000000   0.000003
    44  H    0.000000  -0.000009   0.000001   0.000000   0.000000  -0.000001
              19         20         21         22         23         24
     1  C   -0.000118   0.000002   0.000006   0.000000  -0.000002  -0.000126
     2  C    0.000768  -0.000043  -0.000013   0.000003   0.000142   0.000060
     3  C   -0.000405   0.000497  -0.000049  -0.000040  -0.000052   0.000448
     4  C   -0.001290  -0.000317   0.001410   0.000124   0.000051   0.000282
     5  C   -0.000029  -0.000023  -0.000028   0.000000   0.000001   0.000011
     6  H   -0.000001   0.000000   0.000000   0.000000   0.000000   0.000001
     7  H   -0.004070   0.000001  -0.000024   0.000005   0.000558  -0.001172
     8  H    0.002393   0.000018   0.000622  -0.000027  -0.000009   0.004225
     9  H    0.000200   0.000145  -0.000320   0.000176  -0.000005   0.000006
    10  O    0.000002   0.000000  -0.000001   0.000000   0.000000  -0.000002
    11  O    0.000001   0.000001  -0.000034   0.000000   0.000000   0.000003
    12  C    0.000054   0.000000   0.000000   0.000000  -0.000001   0.000135
    13  C   -0.000027   0.000000   0.000000   0.000000   0.000000  -0.000013
    14  C    0.000469   0.000001   0.000001   0.000000  -0.000012   0.000094
    15  O   -0.023753  -0.002357  -0.001304   0.000941   0.000834  -0.001431
    16  Si   0.309121  -0.025067  -0.026833  -0.011728  -0.010452  -0.027968
    17  C   -0.044890  -0.000351   0.002226  -0.000332  -0.000500   0.002368
    18  C   -0.054639   0.370446   0.371893   0.361814   0.000317  -0.000887
    19  C    5.790660   0.001959  -0.001060   0.000669   0.363153   0.368624
    20  H    0.001959   0.448237  -0.019513  -0.021178  -0.000043  -0.000049
    21  H   -0.001060  -0.019513   0.450614  -0.022671   0.000037   0.000866
    22  H    0.000669  -0.021178  -0.022671   0.453878   0.000414   0.000031
    23  H    0.363153  -0.000043   0.000037   0.000414   0.443108  -0.021074
    24  H    0.368624  -0.000049   0.000866   0.000031  -0.021074   0.449043
    25  H    0.371108  -0.000091  -0.000029  -0.000051  -0.021823  -0.019774
    26  H    0.000226  -0.000003  -0.000058   0.000697   0.000604  -0.000071
    27  H   -0.000728  -0.000073  -0.000092  -0.000044  -0.000053  -0.000079
    28  H    0.002131   0.001044  -0.000071  -0.000103  -0.000074  -0.000086
    29  H    0.000023   0.000000   0.000000   0.000000  -0.000001   0.000004
    30  H    0.000001   0.000000   0.000000   0.000000   0.000000  -0.000002
    31  H   -0.000014   0.000002   0.000001   0.000000  -0.000003  -0.000007
    32  H    0.000000   0.000000   0.000000   0.000000   0.000000  -0.000005
    33  H    0.000120   0.000000  -0.000002   0.000000  -0.000003   0.000226
    34  H   -0.000001   0.000000   0.000000   0.000000   0.000000   0.000000
    35  H    0.000000   0.000000   0.000000   0.000000   0.000000   0.000000
    36  H    0.000123   0.000000   0.000000   0.000000  -0.000005   0.000024
    37  C   -0.000313   0.000141  -0.000005  -0.000001   0.000006  -0.000073
    38  C    0.000028   0.000409  -0.000069   0.000008   0.000000   0.000008
    39  C    0.000001   0.000024  -0.000022   0.000000   0.000000   0.000000
    40  H    0.000011   0.000002   0.000003   0.000000   0.000000   0.000003
    41  H    0.000012   0.000010   0.000000   0.000000   0.000000   0.000001
    42  H    0.000020   0.000939  -0.000028   0.000000   0.000000   0.000002
    43  H    0.000000  -0.000002   0.000002   0.000000   0.000000   0.000000
    44  H    0.000000   0.000001   0.000000   0.000000   0.000000   0.000000
              25         26         27         28         29         30
     1  C   -0.000069   0.000000  -0.000001   0.000000  -0.002302  -0.005693
     2  C    0.000318  -0.000001   0.000023  -0.000023  -0.034410  -0.037082
     3  C    0.000014  -0.000059  -0.000045  -0.000101   0.007271  -0.011069
     4  C    0.000274  -0.000001  -0.000021  -0.000038  -0.000273  -0.000217
     5  C   -0.000001   0.000000   0.000000   0.000000   0.000000   0.000080
     6  H    0.000002   0.000000   0.000000   0.000000  -0.000944   0.005118
     7  H   -0.000946   0.000002  -0.000028   0.000000  -0.007398   0.007100
     8  H   -0.000361   0.000005  -0.000004   0.000000  -0.000029  -0.000011
     9  H    0.000010  -0.000001  -0.000004  -0.000014   0.000012   0.000009
    10  O    0.000000   0.000000   0.000000   0.000000  -0.000065  -0.000002
    11  O    0.000000   0.000000   0.000000   0.000000   0.000000   0.000002
    12  C    0.000034   0.000000   0.000000   0.000000  -0.001133   0.000389
    13  C    0.000023   0.000000   0.000000   0.000000   0.001240   0.000023
    14  C    0.000297  -0.000001   0.000104  -0.000006   0.388401   0.386594
    15  O   -0.002093   0.001186  -0.001792  -0.001566  -0.000018   0.000012
    16  Si  -0.026397  -0.014520  -0.024656  -0.023227  -0.000126  -0.000130
    17  C   -0.000413   0.360992   0.369535   0.370338  -0.000002   0.000003
    18  C    0.002174   0.000689   0.002114  -0.000476   0.000000   0.000000
    19  C    0.371108   0.000226  -0.000728   0.002131   0.000023   0.000001
    20  H   -0.000091  -0.000003  -0.000073   0.001044   0.000000   0.000000
    21  H   -0.000029  -0.000058  -0.000092  -0.000071   0.000000   0.000000
    22  H   -0.000051   0.000697  -0.000044  -0.000103   0.000000   0.000000
    23  H   -0.021823   0.000604  -0.000053  -0.000074  -0.000001   0.000000
    24  H   -0.019774  -0.000071  -0.000079  -0.000086   0.000004  -0.000002
    25  H    0.451900  -0.000055   0.001242  -0.000068   0.000057  -0.000008
    26  H   -0.000055   0.460944  -0.021727  -0.021603   0.000000   0.000000
    27  H    0.001242  -0.021727   0.453754  -0.019380  -0.000002  -0.000009
    28  H   -0.000068  -0.021603  -0.019380   0.451846   0.000000   0.000000
    29  H    0.000057   0.000000  -0.000002   0.000000   0.448191  -0.026195
    30  H   -0.000008   0.000000  -0.000009   0.000000  -0.026195   0.466070
    31  H    0.000204  -0.000005   0.000647  -0.000019  -0.022723  -0.023893
    32  H   -0.000001   0.000000   0.000000   0.000000  -0.000079   0.000018
    33  H    0.000028   0.000000   0.000000   0.000000  -0.000033   0.000008
    34  H   -0.000001   0.000000   0.000000   0.000000   0.000448  -0.000030
    35  H   -0.000003   0.000000   0.000000   0.000000  -0.000159   0.000062
    36  H    0.000195   0.000000   0.000000   0.000000   0.001421   0.000120
    37  C   -0.000078   0.000003  -0.000005   0.000106  -0.000039   0.004371
    38  C    0.000006  -0.000001   0.000006  -0.000029   0.000014   0.000170
    39  C    0.000000   0.000000   0.000000  -0.000003   0.000000  -0.000009
    40  H    0.000001   0.000000  -0.000001  -0.000001  -0.000041  -0.000156
    41  H    0.000002   0.000001  -0.000016  -0.000012   0.000328  -0.000886
    42  H    0.000000  -0.000008  -0.000018   0.000180  -0.000001   0.000009
    43  H    0.000000   0.000000   0.000000  -0.000001   0.000000   0.000000
    44  H    0.000000   0.000000   0.000000   0.000000   0.000000   0.000004
              31         32         33         34         35         36
     1  C    0.006512  -0.050302  -0.040996   0.007074  -0.002576  -0.007938
     2  C   -0.036755   0.009832  -0.009520  -0.000425  -0.002481   0.006091
     3  C   -0.007820  -0.000270  -0.001630   0.000031  -0.000123   0.000161
     4  C    0.000588   0.000624   0.000365  -0.000007  -0.000004  -0.000010
     5  C   -0.000070   0.000196   0.001014  -0.000010  -0.000003   0.000000
     6  H    0.000366  -0.006006   0.007290  -0.000318   0.004857  -0.000255
     7  H   -0.003304   0.000415   0.004165  -0.000323   0.000325   0.002635
     8  H    0.000023  -0.000052   0.000751   0.000002   0.000004   0.000003
     9  H   -0.000003  -0.000022   0.000085   0.000000   0.000000   0.000000
    10  O   -0.000124   0.004428   0.002404  -0.000166  -0.000028  -0.000044
    11  O    0.000000  -0.000013  -0.000227   0.000000   0.000000   0.000000
    12  C   -0.000455   0.401017   0.387401  -0.031640  -0.043091  -0.034531
    13  C    0.000219  -0.035820  -0.037526   0.387470   0.385700   0.382573
    14  C    0.385128  -0.000807   0.000812   0.000393   0.000685  -0.003969
    15  O    0.008985   0.000006  -0.000035   0.000000   0.000000  -0.000004
    16  Si   0.002627   0.000040  -0.000306  -0.000002  -0.000004  -0.000024
    17  C    0.000161   0.000000   0.000000   0.000000   0.000000   0.000000
    18  C    0.000042   0.000000   0.000000   0.000000   0.000000   0.000000
    19  C   -0.000014   0.000000   0.000120  -0.000001   0.000000   0.000123
    20  H    0.000002   0.000000   0.000000   0.000000   0.000000   0.000000
    21  H    0.000001   0.000000  -0.000002   0.000000   0.000000   0.000000
    22  H    0.000000   0.000000   0.000000   0.000000   0.000000   0.000000
    23  H   -0.000003   0.000000  -0.000003   0.000000   0.000000  -0.000005
    24  H   -0.000007  -0.000005   0.000226   0.000000   0.000000   0.000024
    25  H    0.000204  -0.000001   0.000028  -0.000001  -0.000003   0.000195
    26  H   -0.000005   0.000000   0.000000   0.000000   0.000000   0.000000
    27  H    0.000647   0.000000   0.000000   0.000000   0.000000   0.000000
    28  H   -0.000019   0.000000   0.000000   0.000000   0.000000   0.000000
    29  H   -0.022723  -0.000079  -0.000033   0.000448  -0.000159   0.001421
    30  H   -0.023893   0.000018   0.000008  -0.000030   0.000062   0.000120
    31  H    0.435527   0.000034   0.000020  -0.000023   0.000037   0.000268
    32  H    0.000034   0.468897  -0.029985  -0.006346  -0.004145   0.006033
    33  H    0.000020  -0.029985   0.488796  -0.004200   0.007030  -0.005508
    34  H   -0.000023  -0.006346  -0.004200   0.460718  -0.025938  -0.026456
    35  H    0.000037  -0.004145   0.007030  -0.025938   0.476333  -0.028885
    36  H    0.000268   0.006033  -0.005508  -0.026456  -0.028885   0.473859
    37  C   -0.001212   0.000015   0.000052   0.000000   0.000001   0.000000
    38  C   -0.000218  -0.000002  -0.000001   0.000000   0.000000   0.000000
    39  C    0.000004   0.000000   0.000000   0.000000   0.000000   0.000000
    40  H   -0.000023   0.000001  -0.000053   0.000002  -0.000008  -0.000003
    41  H    0.000625   0.000000  -0.000001   0.000000   0.000000   0.000000
    42  H    0.000014   0.000000   0.000000   0.000000   0.000000   0.000000
    43  H    0.000000   0.000000   0.000000   0.000000   0.000000   0.000000
    44  H    0.000001   0.000000   0.000000   0.000000   0.000000   0.000000
              37         38         39         40         41         42
     1  C    0.000739  -0.000738  -0.000017  -0.000615  -0.000082   0.000004
     2  C   -0.093150   0.009598   0.000021  -0.006402  -0.010252  -0.000165
     3  C    0.278846  -0.058635  -0.002672  -0.024479  -0.042329  -0.001645
     4  C   -0.097300  -0.016076   0.000085  -0.004136   0.007228  -0.000037
     5  C   -0.003131  -0.000642   0.000782   0.000488  -0.000222   0.000084
     6  H    0.002637  -0.000052   0.000019  -0.002214  -0.000163   0.000000
     7  H    0.008358  -0.000280  -0.000004  -0.000301  -0.000283   0.000015
     8  H    0.006307   0.000102   0.000009   0.000070  -0.000164   0.000020
     9  H   -0.006478   0.007742   0.003820  -0.000589   0.000271  -0.000338
    10  O   -0.005997   0.000421  -0.000129   0.008775   0.000166  -0.000007
    11  O    0.000803  -0.000502   0.000198  -0.001089  -0.000002   0.000001
    12  C    0.000089   0.000007  -0.000001   0.000933  -0.000040   0.000001
    13  C   -0.000018   0.000000   0.000000  -0.000059  -0.000001   0.000000
    14  C   -0.008637  -0.000246  -0.000011   0.001105   0.002600  -0.000012
    15  O   -0.082285   0.009339   0.000972   0.003508   0.002474   0.003277
    16  Si  -0.000667   0.001618   0.000638   0.000126   0.000095   0.000829
    17  C    0.000054  -0.000077  -0.000002   0.000003  -0.000059   0.000097
    18  C    0.000016  -0.000266  -0.000030   0.000002   0.000022   0.000463
    19  C   -0.000313   0.000028   0.000001   0.000011   0.000012   0.000020
    20  H    0.000141   0.000409   0.000024   0.000002   0.000010   0.000939
    21  H   -0.000005  -0.000069  -0.000022   0.000003   0.000000  -0.000028
    22  H   -0.000001   0.000008   0.000000   0.000000   0.000000   0.000000
    23  H    0.000006   0.000000   0.000000   0.000000   0.000000   0.000000
    24  H   -0.000073   0.000008   0.000000   0.000003   0.000001   0.000002
    25  H   -0.000078   0.000006   0.000000   0.000001   0.000002   0.000000
    26  H    0.000003  -0.000001   0.000000   0.000000   0.000001  -0.000008
    27  H   -0.000005   0.000006   0.000000  -0.000001  -0.000016  -0.000018
    28  H    0.000106  -0.000029  -0.000003  -0.000001  -0.000012   0.000180
    29  H   -0.000039   0.000014   0.000000  -0.000041   0.000328  -0.000001
    30  H    0.004371   0.000170  -0.000009  -0.000156  -0.000886   0.000009
    31  H   -0.001212  -0.000218   0.000004  -0.000023   0.000625   0.000014
    32  H    0.000015  -0.000002   0.000000   0.000001   0.000000   0.000000
    33  H    0.000052  -0.000001   0.000000  -0.000053  -0.000001   0.000000
    34  H    0.000000   0.000000   0.000000   0.000002   0.000000   0.000000
    35  H    0.000001   0.000000   0.000000  -0.000008   0.000000   0.000000
    36  H    0.000000   0.000000   0.000000  -0.000003   0.000000   0.000000
    37  C    5.509349   0.323466  -0.060882   0.377924   0.390670  -0.046532
    38  C    0.323466   5.067932   0.614622  -0.046039  -0.037934   0.396893
    39  C   -0.060882   0.614622   5.149589   0.001840   0.000340  -0.041154
    40  H    0.377924  -0.046039   0.001840   0.453071  -0.019435   0.004950
    41  H    0.390670  -0.037934   0.000340  -0.019435   0.446262  -0.001734
    42  H   -0.046532   0.396893  -0.041154   0.004950  -0.001734   0.462564
    43  H    0.006315  -0.039371   0.392487   0.000086  -0.000324  -0.007923
    44  H   -0.008365  -0.039113   0.386598   0.003883   0.000108   0.005888
              43         44
     1  C    0.000000  -0.000003
     2  C    0.000018  -0.000009
     3  C   -0.000309  -0.000184
     4  C    0.000049   0.000002
     5  C    0.000012   0.000761
     6  H    0.000000   0.000024
     7  H   -0.000001   0.000005
     8  H   -0.000003   0.000008
     9  H    0.000155  -0.000021
    10  O   -0.000002  -0.000288
    11  O    0.000013   0.000963
    12  C    0.000000  -0.000002
    13  C    0.000000   0.000000
    14  C    0.000000  -0.000009
    15  O    0.000012   0.000001
    16  Si   0.000010   0.000000
    17  C    0.000000   0.000000
    18  C    0.000003  -0.000001
    19  C    0.000000   0.000000
    20  H   -0.000002   0.000001
    21  H    0.000002   0.000000
    22  H    0.000000   0.000000
    23  H    0.000000   0.000000
    24  H    0.000000   0.000000
    25  H    0.000000   0.000000
    26  H    0.000000   0.000000
    27  H    0.000000   0.000000
    28  H   -0.000001   0.000000
    29  H    0.000000   0.000000
    30  H    0.000000   0.000004
    31  H    0.000000   0.000001
    32  H    0.000000   0.000000
    33  H    0.000000   0.000000
    34  H    0.000000   0.000000
    35  H    0.000000   0.000000
    36  H    0.000000   0.000000
    37  C    0.006315  -0.008365
    38  C   -0.039371  -0.039113
    39  C    0.392487   0.386598
    40  H    0.000086   0.003883
    41  H   -0.000324   0.000108
    42  H   -0.007923   0.005888
    43  H    0.457262  -0.033705
    44  H   -0.033705   0.459996
 Mulliken charges:
               1
     1  C   -0.014443
     2  C   -0.312239
     3  C    0.185813
     4  C   -0.647822
     5  C    0.474181
     6  H    0.244422
     7  H    0.269859
     8  H    0.275605
     9  H    0.286912
    10  O   -0.322100
    11  O   -0.379531
    12  C   -0.442037
    13  C   -0.681815
    14  C   -0.691263
    15  O   -0.634653
    16  Si   1.430777
    17  C   -1.041858
    18  C   -1.063217
    19  C   -1.080540
    20  H    0.245231
    21  H    0.244548
    22  H    0.237415
    23  H    0.244887
    24  H    0.246355
    25  H    0.244374
    26  H    0.232766
    27  H    0.241352
    28  H    0.241256
    29  H    0.248561
    30  H    0.235229
    31  H    0.254636
    32  H    0.242299
    33  H    0.229457
    34  H    0.239748
    35  H    0.232411
    36  H    0.234127
    37  C   -0.495096
    38  C   -0.192099
    39  C   -0.447115
    40  H    0.248859
    41  H    0.262721
    42  H    0.223352
    43  H    0.225217
    44  H    0.223458
 Sum of Mulliken charges =   0.00000
 Mulliken charges with hydrogens summed into heavy atoms:
               1
     1  C    0.229979
     2  C   -0.042379
     3  C    0.185813
     4  C   -0.085305
     5  C    0.474181
    10  O   -0.322100
    11  O   -0.379531
    12  C    0.029718
    13  C    0.024471
    14  C    0.047163
    15  O   -0.634653
    16  Si   1.430777
    17  C   -0.326485
    18  C   -0.336023
    19  C   -0.344923
    37  C    0.016484
    38  C    0.031253
    39  C    0.001560
 Electronic spatial extent (au):  <R**2>=           5361.6309
 Charge=              0.0000 electrons
 Dipole moment (field-independent basis, Debye):
    X=             -1.8154    Y=             -4.9149    Z=              1.9419  Tot=              5.5878
 Quadrupole moment (field-independent basis, Debye-Ang):
   XX=           -118.1498   YY=           -123.8876   ZZ=           -124.6213
   XY=             -9.9161   XZ=             10.2299   YZ=              8.1099
 Traceless Quadrupole moment (field-independent basis, Debye-Ang):
   XX=              4.0698   YY=             -1.6681   ZZ=             -2.4018
   XY=             -9.9161   XZ=             10.2299   YZ=              8.1099
 Octapole moment (field-independent basis, Debye-Ang**2):
  XXX=             -4.6608  YYY=             -7.8915  ZZZ=              2.9036  XYY=            -13.6058
  XXY=            -28.8638  XXZ=              9.7666  XZZ=             -2.9530  YZZ=            -23.3662
  YYZ=             16.2368  XYZ=             14.6388
 Hexadecapole moment (field-independent basis, Debye-Ang**3):
 XXXX=          -3625.7871 YYYY=          -2465.4583 ZZZZ=          -1150.0132 XXXY=            -47.9683
 XXXZ=             50.2215 YYYX=            -40.6143 YYYZ=             15.7586 ZZZX=             14.8779
 ZZZY=              2.6685 XXYY=          -1021.4150 XXZZ=           -824.3998 YYZZ=           -676.4666
 XXYZ=             64.9041 YYXZ=             34.5493 ZZXY=            -21.9569
 N-N= 1.631134367715D+03 E-N=-5.757405989655D+03  KE= 1.060527721938D+03
 1\1\GINC-CPU-E-532\SP\RmPW1PW91\6-311G(d)\C14H26O3Si1\KE291\06-Feb-201
 9\0\\# mPW1PW91/6-311g(d) geom=checkpoint nmr=giao scrf=(solvent=chlor
 oform)\\P_ng_correct1ginp013\\0,1\C,0,1.0339463087,-0.3169136676,0.389
 0919533\C,0,-0.5000325903,-0.4613230123,0.5818563299\C,0,-1.0963602013
 ,0.6151222839,1.5330228732\C,0,-0.5953354209,1.9792533005,1.0345974467
 \C,0,0.914314127,2.0821429281,1.0537226319\H,0,1.5409348499,-1.0553573
 712,1.0196208903\H,0,-0.9728085329,-0.2613682991,-0.388459923\H,0,-0.9
 280176872,2.1396966259,0.001666054\H,0,-0.9809431443,2.799469645,1.641
 0366981\O,0,1.6153950276,0.9480976854,0.848446268\O,0,1.5149670964,3.1
 14391928,1.2649585822\C,0,1.5125157493,-0.4768919446,-1.0612113214\C,0
 ,1.2538459489,-1.8471868966,-1.694631054\C,0,-0.8679399863,-1.89467172
 37,0.9959606144\O,0,-2.5179593718,0.5290247334,1.4946018197\Si,0,-3.76
 29970445,1.1649205022,0.5580981766\C,0,-5.2745998881,0.2008824099,1.12
 6144773\C,0,-4.005338798,3.0042801327,0.9017796697\C,0,-3.4927472799,0
 .8906917247,-1.291456237\H,0,-4.1062335337,3.1937587792,1.9757074461\H
 ,0,-3.1779719816,3.6162076509,0.5291722034\H,0,-4.9215700389,3.3585167
 239,0.4149235408\H,0,-4.3713301127,1.2436691404,-1.8446284983\H,0,-2.6
 262304782,1.4326264986,-1.684632621\H,0,-3.3618114316,-0.1710625619,-1
 .5259663863\H,0,-6.1736847249,0.5422081916,0.6010052797\H,0,-5.1568247
 841,-0.8696360624,0.9285965311\H,0,-5.4463825314,0.3270571601,2.200089
 422\H,0,-0.5959082668,-2.6140751068,0.2204972652\H,0,-0.3540672182,-2.
 1939757149,1.914649454\H,0,-1.9444263377,-1.9712520027,1.1664955844\H,
 0,2.588250039,-0.2706895403,-1.0668020742\H,0,1.0407219596,0.308244641
 ,-1.6661444207\H,0,1.7166048913,-1.8934210358,-2.6848343433\H,0,1.6810
 029667,-2.6557856974,-1.0916644302\H,0,0.1864867374,-2.0487191387,-1.8
 23953789\C,0,-0.6958264242,0.3827597611,3.0150476591\C,0,-1.2013769424
 ,1.4386778048,3.9597391137\C,0,-0.4302912527,2.1852085907,4.7520030189
 \H,0,0.3936962687,0.3021561513,3.0952528634\H,0,-1.1159448157,-0.58588
 19548,3.3087041057\H,0,-2.2816368909,1.5722979825,3.9839819686\H,0,-0.
 8531659345,2.9243154175,5.4263435489\H,0,0.6525346752,2.0832073372,4.7
 587883125\\Version=ES64L-G09RevD.01\State=1-A\HF=-1064.3811276\RMSD=9.
 579e-09\Dipole=-1.3214593,-1.4871239,-0.9355298\Quadrupole=-3.3283605,
 -1.4379737,4.7663342,-11.67817,-0.7944116,0.7431562\PG=C01 [X(C14H26O3
 Si1)]\\@


 The juvenile sea squirt wanders through the sea searching
 for a suitable rock or hunk of coral to cling to and make
 its home for life.  For this task it has a rudimentary
 nervous system.  When it finds its spot and takes root, it
 doesn't need its brain any more so it eats it.
 It's rather like getting tenure.

                               -- source unknown
 Job cpu time:       0 days  0 hours 21 minutes 40.5 seconds.
 File lengths (MBytes):  RWF=    241 Int=      0 D2E=      0 Chk=     19 Scr=      1
 Normal termination of Gaussian 09 at Wed Feb  6 11:21:26 2019.
