 Entering Gaussian System, Link 0=/usr/local/Cluster-Apps/gaussian/g09/g09
 Initial command:
 /usr/local/Cluster-Apps/gaussian/g09/l1.exe "/home/ke291/rds/hpc-work/06Feb0927IP1/Gau-179882.inp" -scrdir="/home/ke291/rds/hpc-work/06Feb0927IP1/"
 Entering Link 1 = /usr/local/Cluster-Apps/gaussian/g09/l1.exe PID=    179887.
  
 Copyright (c) 1988,1990,1992,1993,1995,1998,2003,2009,2013,
            Gaussian, Inc.  All Rights Reserved.
  
 This is part of the Gaussian(R) 09 program.  It is based on
 the Gaussian(R) 03 system (copyright 2003, Gaussian, Inc.),
 the Gaussian(R) 98 system (copyright 1998, Gaussian, Inc.),
 the Gaussian(R) 94 system (copyright 1995, Gaussian, Inc.),
 the Gaussian 92(TM) system (copyright 1992, Gaussian, Inc.),
 the Gaussian 90(TM) system (copyright 1990, Gaussian, Inc.),
 the Gaussian 88(TM) system (copyright 1988, Gaussian, Inc.),
 the Gaussian 86(TM) system (copyright 1986, Carnegie Mellon
 University), and the Gaussian 82(TM) system (copyright 1983,
 Carnegie Mellon University). Gaussian is a federally registered
 trademark of Gaussian, Inc.
  
 This software contains proprietary and confidential information,
 including trade secrets, belonging to Gaussian, Inc.
  
 This software is provided under written license and may be
 used, copied, transmitted, or stored only in accord with that
 written license.
  
 The following legend is applicable only to US Government
 contracts under FAR:
  
                    RESTRICTED RIGHTS LEGEND
  
 Use, reproduction and disclosure by the US Government is
 subject to restrictions as set forth in subparagraphs (a)
 and (c) of the Commercial Computer Software - Restricted
 Rights clause in FAR 52.227-19.
  
 Gaussian, Inc.
 340 Quinnipiac St., Bldg. 40, Wallingford CT 06492
  
  
 ---------------------------------------------------------------
 Warning -- This program may not be used in any manner that
 competes with the business of Gaussian, Inc. or will provide
 assistance to any competitor of Gaussian, Inc.  The licensee
 of this program is prohibited from giving any competitor of
 Gaussian, Inc. access to this program.  By using this program,
 the user acknowledges that Gaussian, Inc. is engaged in the
 business of creating and licensing software in the field of
 computational chemistry and represents and warrants to the
 licensee that it is not a competitor of Gaussian, Inc. and that
 it will not use this program in any manner prohibited above.
 ---------------------------------------------------------------
  

 Cite this work as:
 Gaussian 09, Revision D.01,
 M. J. Frisch, G. W. Trucks, H. B. Schlegel, G. E. Scuseria, 
 M. A. Robb, J. R. Cheeseman, G. Scalmani, V. Barone, B. Mennucci, 
 G. A. Petersson, H. Nakatsuji, M. Caricato, X. Li, H. P. Hratchian, 
 A. F. Izmaylov, J. Bloino, G. Zheng, J. L. Sonnenberg, M. Hada, 
 M. Ehara, K. Toyota, R. Fukuda, J. Hasegawa, M. Ishida, T. Nakajima, 
 Y. Honda, O. Kitao, H. Nakai, T. Vreven, J. A. Montgomery, Jr., 
 J. E. Peralta, F. Ogliaro, M. Bearpark, J. J. Heyd, E. Brothers, 
 K. N. Kudin, V. N. Staroverov, T. Keith, R. Kobayashi, J. Normand, 
 K. Raghavachari, A. Rendell, J. C. Burant, S. S. Iyengar, J. Tomasi, 
 M. Cossi, N. Rega, J. M. Millam, M. Klene, J. E. Knox, J. B. Cross, 
 V. Bakken, C. Adamo, J. Jaramillo, R. Gomperts, R. E. Stratmann, 
 O. Yazyev, A. J. Austin, R. Cammi, C. Pomelli, J. W. Ochterski, 
 R. L. Martin, K. Morokuma, V. G. Zakrzewski, G. A. Voth, 
 P. Salvador, J. J. Dannenberg, S. Dapprich, A. D. Daniels, 
 O. Farkas, J. B. Foresman, J. V. Ortiz, J. Cioslowski, 
 and D. J. Fox, Gaussian, Inc., Wallingford CT, 2013.
 
 ******************************************
 Gaussian 09:  ES64L-G09RevD.01 24-Apr-2013
                 6-Feb-2019 
 ******************************************
 %nprocshared=2
 Will use up to    2 processors via shared memory.
 %mem=6000MB
 %chk=/home/ke291/rds/hpc-work/06Feb0927IP1/P_ng_2ginp017.chk
 ----------------------------------------------------------------------
 # mPW1PW91/6-311g(d) geom=checkpoint nmr=giao scrf=(solvent=chloroform
 )
 ----------------------------------------------------------------------
 1/29=2,38=1/1;
 2/12=2,40=1/2;
 3/5=4,6=6,7=1,11=2,14=-4,16=1,25=1,30=1,70=2201,72=7,74=-7/1,2,8,3;
 4//1;
 5/5=2,38=5,53=7/2;
 8/6=1,10=90,11=11/1;
 10/13=100,45=16/2;
 6/7=2,8=2,9=2,10=2,28=1/1;
 99/9=1/99;
 -------------
 P_ng_2ginp017
 -------------
 Structure from the checkpoint file:  "/home/ke291/rds/hpc-work/06Feb0927IP1/P_ng_2ginp017.chk"
 Charge =  0 Multiplicity = 1
 Redundant internal coordinates found in file.
 C,0,-0.1288001181,0.2645731293,0.9869364556
 C,0,-1.6474303952,-0.0036122854,1.1156997292
 C,0,-2.3811268302,1.1540034992,1.8441671871
 C,0,-1.7087052672,1.3689894449,3.2051652544
 C,0,-0.2021080249,1.5152893532,3.1505515822
 H,0,0.3814667969,-0.7054172539,0.9606562318
 H,0,-2.0491465608,-0.0269023764,0.0970607281
 H,0,-2.1066640371,2.2462635181,3.7201414036
 H,0,-1.9156863784,0.513153176,3.8588449531
 O,0,0.4724769394,0.9122330728,2.1571536959
 O,0,0.4230089063,2.1130864563,4.0045901839
 C,0,0.3057577336,1.0461844699,-0.2566643367
 C,0,1.8259608631,1.1511612823,-0.4083923242
 C,0,-1.8897087416,-1.3875176201,1.7465197144
 O,0,-2.2302157418,2.3108513981,1.0144814271
 Si,0,-2.4364783354,3.9756260417,1.1941172192
 C,0,-3.9360081833,4.4351786751,2.2480695317
 C,0,-0.8879679532,4.760159353,1.9290314724
 C,0,-2.6926830891,4.5874669447,-0.5667121269
 H,0,-1.0263803995,5.843822091,2.0214772319
 H,0,-0.6444970221,4.3679034974,2.9208238142
 H,0,-0.0178107408,4.5911334622,1.2856866068
 H,0,-1.8498926787,4.3111503578,-1.2088029728
 H,0,-3.6022966774,4.1648838935,-1.0062357169
 H,0,-2.7854226596,5.6791105992,-0.5886234166
 H,0,-4.0360692055,5.527130243,2.2625574418
 H,0,-4.8658910118,4.0262808497,1.8397026618
 H,0,-3.8479617502,4.1064454287,3.2888924639
 H,0,-1.3759614356,-2.1534363149,1.1575951261
 H,0,-1.5023354956,-1.4520913243,2.7688156275
 H,0,-2.9495219232,-1.6480415098,1.76315852
 H,0,-0.151250538,2.037854414,-0.235103611
 H,0,-0.1160299471,0.5235152257,-1.1245485196
 H,0,2.0861325895,1.6913273364,-1.3238844165
 H,0,2.2713281086,1.6822752329,0.4369359277
 H,0,2.2901724754,0.1595535926,-0.4631435282
 C,0,-3.8921043874,0.868639072,2.0427210072
 C,0,-4.6458298052,0.6161991208,0.7657959285
 C,0,-5.4730300292,-0.4098595467,0.5585276982
 H,0,-4.3142025523,1.7472309764,2.5463421513
 H,0,-4.0266133798,0.0283500416,2.7307793698
 H,0,-4.4942961635,1.3473226698,-0.0266287463
 H,0,-6.0060576677,-0.5315612469,-0.3799467284
 H,0,-5.6557532863,-1.1622334409,1.3228410978
 Recover connectivity data from disk.
                          Input orientation:                          
 ---------------------------------------------------------------------
 Center     Atomic      Atomic             Coordinates (Angstroms)
 Number     Number       Type             X           Y           Z
 ---------------------------------------------------------------------
      1          6           0       -0.128800    0.264573    0.986936
      2          6           0       -1.647430   -0.003612    1.115700
      3          6           0       -2.381127    1.154003    1.844167
      4          6           0       -1.708705    1.368989    3.205165
      5          6           0       -0.202108    1.515289    3.150552
      6          1           0        0.381467   -0.705417    0.960656
      7          1           0       -2.049147   -0.026902    0.097061
      8          1           0       -2.106664    2.246264    3.720141
      9          1           0       -1.915686    0.513153    3.858845
     10          8           0        0.472477    0.912233    2.157154
     11          8           0        0.423009    2.113086    4.004590
     12          6           0        0.305758    1.046184   -0.256664
     13          6           0        1.825961    1.151161   -0.408392
     14          6           0       -1.889709   -1.387518    1.746520
     15          8           0       -2.230216    2.310851    1.014481
     16         14           0       -2.436478    3.975626    1.194117
     17          6           0       -3.936008    4.435179    2.248070
     18          6           0       -0.887968    4.760159    1.929031
     19          6           0       -2.692683    4.587467   -0.566712
     20          1           0       -1.026380    5.843822    2.021477
     21          1           0       -0.644497    4.367903    2.920824
     22          1           0       -0.017811    4.591133    1.285687
     23          1           0       -1.849893    4.311150   -1.208803
     24          1           0       -3.602297    4.164884   -1.006236
     25          1           0       -2.785423    5.679111   -0.588623
     26          1           0       -4.036069    5.527130    2.262557
     27          1           0       -4.865891    4.026281    1.839703
     28          1           0       -3.847962    4.106445    3.288892
     29          1           0       -1.375961   -2.153436    1.157595
     30          1           0       -1.502335   -1.452091    2.768816
     31          1           0       -2.949522   -1.648042    1.763159
     32          1           0       -0.151251    2.037854   -0.235104
     33          1           0       -0.116030    0.523515   -1.124549
     34          1           0        2.086133    1.691327   -1.323884
     35          1           0        2.271328    1.682275    0.436936
     36          1           0        2.290172    0.159554   -0.463144
     37          6           0       -3.892104    0.868639    2.042721
     38          6           0       -4.645830    0.616199    0.765796
     39          6           0       -5.473030   -0.409860    0.558528
     40          1           0       -4.314203    1.747231    2.546342
     41          1           0       -4.026613    0.028350    2.730779
     42          1           0       -4.494296    1.347323   -0.026629
     43          1           0       -6.006058   -0.531561   -0.379947
     44          1           0       -5.655753   -1.162233    1.322841
 ---------------------------------------------------------------------
                    Distance matrix (angstroms):
                    1          2          3          4          5
     1  C    0.000000
     2  C    1.547495   0.000000
     3  C    2.568834   1.552111   0.000000
     4  C    2.938771   2.500731   1.533195   0.000000
     5  C    2.500179   2.921753   2.566182   1.514669   0.000000
     6  H    1.096332   2.152439   3.445281   3.702675   3.172970
     7  H    2.136485   1.095237   2.134744   3.424139   3.887636
     8  H    3.912729   3.472168   2.188068   1.092328   2.118039
     9  H    3.391550   2.804256   2.164775   1.096628   2.107678
    10  O    1.466426   2.533260   2.880880   2.462623   1.343719
    11  O    3.581582   4.136764   3.667485   2.395196   1.215531
    12  C    1.531764   2.607758   3.412399   4.018274   3.476652
    13  C    2.560092   3.964947   4.772171   5.059557   4.112388
    14  C    2.531239   1.540074   2.590436   3.123898   3.639449
    15  O    2.933251   2.388855   1.431590   2.440937   3.051055
    16  Si   4.374953   4.057473   2.896063   3.371724   3.856592
    17  C    5.786125   5.120812   3.653341   3.908763   4.825167
    18  C    4.655553   4.892015   3.903983   3.715126   3.534359
    19  C    5.260678   5.000107   4.206908   5.055083   5.427641
    20  H    5.744906   5.949674   4.884790   4.678762   4.548673
    21  H    4.565434   4.834718   3.808441   3.194820   2.895840
    22  H    4.338282   4.878139   4.208447   4.114090   3.601736
    23  H    4.915101   4.905250   4.423846   5.306539   5.434704
    24  H    5.590200   5.069563   4.322205   5.398019   5.988365
    25  H    6.233558   6.040951   5.153496   5.842029   6.163794
    26  H    6.677460   6.132699   4.694478   4.857496   5.619845
    27  H    6.108820   5.207947   3.797901   4.346666   5.456581
    28  H    5.821610   5.143703   3.599410   3.475211   4.474984
    29  H    2.726042   2.167301   3.524329   4.087878   4.336975
    30  H    2.829952   2.202711   2.901548   2.862077   3.262156
    31  H    3.495295   2.195175   2.860261   3.566719   4.413593
    32  H    2.153697   2.868939   3.174415   3.835166   3.426123
    33  H    2.127342   2.764374   3.787011   4.690188   4.389477
    34  H    3.504490   4.771151   5.502879   5.917515   5.028679
    35  H    2.841302   4.319677   4.889244   4.858179   3.675525
    36  H    2.822267   4.245478   5.304116   5.559699   4.594374
    37  C    3.955001   2.580456   1.550455   2.523660   3.906599
    38  C    4.536089   3.081720   2.565346   3.891519   5.122703
    39  C    5.403627   3.887247   3.695728   4.933471   6.181214
    40  H    4.706125   3.496264   2.140502   2.713988   4.162714
    41  H    4.276650   2.875763   2.181926   2.719385   4.124808
    42  H    4.610555   3.351803   2.828910   4.266671   5.342805
    43  H    6.086407   4.638245   4.574706   5.910360   7.095058
    44  H    5.718026   4.177555   4.044739   5.052665   6.344439
                    6          7          8          9         10
     6  H    0.000000
     7  H    2.667220   0.000000
     8  H    4.745311   4.277535   0.000000
     9  H    3.893755   3.802695   1.749109   0.000000
    10  O    2.014121   3.388885   3.297656   2.959450   0.000000
    11  O    4.148641   5.095085   2.549096   2.837344   2.203978
    12  C    2.134411   2.611936   4.803639   4.707054   2.423274
    13  C    2.721717   4.081639   5.805995   5.711068   2.910504
    14  C    2.498215   2.144157   4.140847   2.841679   3.322257
    15  O    3.990195   2.517844   2.709249   3.379505   3.250597
    16  Si   5.468774   4.168188   3.079005   4.400081   4.332879
    17  C    6.835477   5.300684   3.210116   4.696656   5.643948
    18  C    5.694009   5.255513   3.318579   4.776761   4.087712
    19  C    6.308556   4.706075   4.919529   6.065419   5.562825
    20  H    6.782323   6.262175   4.122487   5.708136   5.156118
    21  H    5.534749   5.409343   2.697813   4.165922   3.711129
    22  H    5.321515   5.183185   3.973449   5.181988   3.812367
    23  H    5.903513   4.534720   5.350157   6.333259   5.317490
    24  H    6.592334   4.604412   5.315700   6.312591   6.098406
    25  H    7.293261   5.794036   5.550730   6.871938   6.393459
    26  H    7.749466   6.283671   4.075689   5.673105   6.452548
    27  H    7.120144   5.234419   3.783893   5.012256   6.188396
    28  H    6.816361   5.523413   2.584254   4.119500   5.490903
    29  H    2.285629   2.469830   5.143727   3.833895   3.716742
    30  H    2.715819   3.077083   3.866272   2.284996   3.140708
    31  H    3.553595   2.492920   4.439122   3.182999   4.291889
    32  H    3.039600   2.824104   4.417130   4.711514   2.716423
    33  H    2.471003   2.352069   5.513756   5.298404   3.356637
    34  H    3.724164   4.698077   6.582529   6.653069   3.915163
    35  H    3.089811   4.658681   5.501303   5.532395   2.605375
    36  H    2.533483   4.379302   6.417663   6.041015   3.276660
    37  C    4.681018   2.825612   2.810585   2.707564   4.366299
    38  C    5.201764   2.757454   4.222870   4.126894   5.312304
    39  C    5.875729   3.476001   5.327590   4.939508   6.297030
    40  H    5.529846   3.778493   2.549522   2.999749   4.874525
    41  H    4.806550   3.293919   3.095833   2.442044   4.620834
    42  H    5.381592   2.807588   4.532898   4.737296   5.443073
    43  H    6.529005   4.017383   6.303357   5.982468   7.105831
    44  H    6.065302   3.974811   5.473658   4.819371   6.523396
                   11         12         13         14         15
    11  O    0.000000
    12  C    4.394351   0.000000
    13  C    4.729481   1.531359   0.000000
    14  C    4.764638   3.841318   4.989463   0.000000
    15  O    4.002432   3.105858   4.452193   3.785467   0.000000
    16  Si   4.420914   4.266879   5.358547   5.419171   1.687095
    17  C    5.241995   5.979260   7.144358   6.192147   2.990691
    18  C    3.610208   4.471673   5.084666   6.231431   2.938901
    19  C    6.060272   4.650533   5.679032   6.457263   2.810165
    20  H    4.466750   5.475568   6.005096   7.287881   3.865895
    21  H    2.719985   4.693957   5.247311   6.004533   3.221818
    22  H    3.705061   3.879460   4.254739   6.281770   3.188726
    23  H    6.097297   4.026587   4.913053   6.419528   3.014769
    24  H    6.746950   5.055792   6.237461   6.429602   3.066487
    25  H    6.641398   5.579390   6.465266   7.496161   3.771388
    26  H    5.879945   6.728805   7.787585   7.258479   3.894002
    27  H    6.026567   6.326269   7.622409   6.178637   3.251226
    28  H    4.767273   6.260156   7.388979   6.033017   3.318766
    29  H    5.435521   3.881479   4.860554   1.094258   4.547537
    30  H    4.236105   4.320198   5.286694   1.095133   4.215120
    31  H    5.526668   4.683523   5.946125   1.091491   4.092768
    32  H    4.279070   1.092122   2.173849   4.322296   2.440919
    33  H    5.396792   1.097411   2.162903   3.878275   3.498543
    34  H    5.597902   2.173684   1.094347   5.891857   4.947992
    35  H    4.041044   2.179257   1.093167   5.334123   4.581764
    36  H    5.221421   2.183266   1.096255   4.974681   5.219710
    37  C    4.900794   4.789649   6.227684   3.031100   2.428812
    38  C    6.198676   5.074301   6.599165   3.545829   2.961230
    39  C    7.280376   6.014897   7.526419   3.899658   4.257465
    40  H    4.970061   5.449068   6.840129   4.042837   2.647124
    41  H    5.076205   5.360060   6.735557   2.745871   3.373801
    42  H    6.404452   4.814989   6.334814   4.172204   2.671771
    43  H    8.218955   6.507188   8.010798   4.711565   4.927547
    44  H    7.407486   6.550692   8.020287   3.796492   4.887915
                   16         17         18         19         20
    16  Si   0.000000
    17  C    1.889602   0.000000
    18  C    1.885067   3.081874   0.000000
    19  C    1.881624   3.080916   3.084729   0.000000
    20  H    2.482551   3.240610   1.096371   3.324713   0.000000
    21  H    2.519245   3.360234   1.093981   4.050454   1.770027
    22  H    2.497436   4.037669   1.095279   3.253665   1.768567
    23  H    2.496134   4.039459   3.312539   1.094955   3.669055
    24  H    2.497299   3.282518   4.041995   1.095059   4.315232
    25  H    2.490339   3.304246   3.283808   1.095795   3.151822
    26  H    2.471320   1.096622   3.257303   3.269927   3.035892
    27  H    2.514238   1.094826   4.046039   3.290683   4.251863
    28  H    2.529325   1.095048   3.322368   4.053608   3.547695
    29  H    6.220244   7.152120   6.973597   7.081438   8.051375
    30  H    5.728212   6.391705   6.298789   7.001353   7.349517
    31  H    5.675620   6.181736   6.733688   6.661519   7.739071
    32  H    3.319623   5.122275   3.554881   3.615158   4.510366
    33  H    4.762117   6.424009   5.279147   4.844174   6.247550
    34  H    5.657947   7.520223   5.370704   5.638973   6.174334
    35  H    5.291146   7.027781   4.656272   5.838566   5.541130
    36  H    6.296837   8.024772   6.081830   6.666783   7.034470
    37  C    3.534451   3.572716   4.917488   4.698663   5.741539
    38  C    4.043568   4.157594   5.713760   4.621832   6.481141
    39  C    5.371881   5.356434   7.044868   5.828359   7.811623
    40  H    3.212492   2.730762   4.604117   4.515238   5.278950
    41  H    4.524472   4.434113   5.734450   5.782592   6.582114
    42  H    3.554267   3.875667   5.336447   3.746470   6.036529
    43  H    5.961066   5.988329   7.715473   6.100638   8.438574
    44  H    6.064479   5.928288   7.627187   6.738639   8.426387
                   21         22         23         24         25
    21  H    0.000000
    22  H    1.765288   0.000000
    23  H    4.302327   3.107635   0.000000
    24  H    4.920528   4.275878   1.770126   0.000000
    25  H    4.314979   3.515168   1.769507   1.770470   0.000000
    26  H    3.644157   4.239902   4.278822   3.567756   3.117122
    27  H    4.371006   4.912217   4.297765   3.116929   3.599578
    28  H    3.235123   4.349461   4.925794   4.302545   4.317105
    29  H    6.794990   6.881148   6.900386   7.039879   8.147678
    30  H    5.884839   6.397191   7.011220   7.085990   7.985784
    31  H    6.545603   6.910153   6.749349   6.471921   7.697075
    32  H    3.953770   2.974869   3.000225   4.126575   4.508058
    33  H    5.605679   4.729101   4.166480   5.042581   5.830355
    34  H    5.712963   4.432303   4.729589   6.211088   6.338381
    35  H    4.678070   3.797630   5.157897   6.538009   6.526653
    36  H    6.146034   5.293779   5.910322   7.145545   7.499528
    37  C    4.854160   5.425884   5.156929   4.499484   5.593689
    38  C    5.893224   6.122822   5.036762   4.101490   5.561352
    39  C    7.191814   7.436270   6.207940   5.184246   6.753869
    40  H    4.524920   5.304339   5.171810   4.355762   5.255935
    41  H    5.505139   6.243219   6.212954   5.590728   6.670089
    42  H    5.712472   5.681848   4.144235   3.113510   4.690466
    43  H    7.977855   8.054529   6.435260   5.312900   6.999177
    44  H    7.632080   8.055371   7.131040   6.165992   7.661363
                   26         27         28         29         30
    26  H    0.000000
    27  H    1.766341   0.000000
    28  H    1.762695   1.772782   0.000000
    29  H    8.202940   7.129781   7.059698   0.000000
    30  H    7.442153   6.495330   6.055557   1.761785   0.000000
    31  H    7.274137   5.989680   6.020729   1.760177   1.773159
    32  H    5.788365   5.521458   5.510290   4.583279   4.798821
    33  H    7.202455   6.604342   6.800233   3.736533   4.580737
    34  H    8.065811   7.986922   7.894554   5.738122   6.285569
    35  H    7.609144   7.642121   7.173281   5.341793   5.431616
    36  H    8.732792   8.453634   8.205633   4.627878   5.236991
    37  C    4.665897   3.310616   3.469623   4.030802   3.409399
    38  C    5.170043   3.581949   4.380003   4.303072   4.262801
    39  C    6.341642   4.657185   5.522024   4.492762   4.662407
    40  H    3.800728   2.449034   2.516874   5.077114   4.265179
    41  H    5.518687   4.181131   4.119984   3.776381   2.926625
    42  H    4.787602   3.286045   4.361558   4.835464   4.960147
    43  H    6.897204   5.196224   6.295146   5.141236   5.571857
    44  H    6.946512   5.273681   5.906983   4.396181   4.407464
                   31         32         33         34         35
    31  H    0.000000
    32  H    5.040754   0.000000
    33  H    4.591643   1.756581   0.000000
    34  H    6.785207   2.512252   2.500608   0.000000
    35  H    6.333021   2.539087   3.079032   1.770556   0.000000
    36  H    5.973125   3.088780   2.521851   1.768852   1.768949
    37  C    2.701906   4.533160   4.940592   6.910149   6.420938
    38  C    2.999830   4.819144   4.909285   7.130356   7.006550
    39  C    3.058157   5.911217   5.692221   8.068420   8.022898
    40  H    3.742139   5.015084   5.709428   7.479710   6.915420
    41  H    2.215108   5.277595   5.513747   7.521400   6.903713
    42  H    3.816002   4.402538   4.588388   6.715896   6.789754
    43  H    3.896388   6.395439   6.029929   8.444868   8.607176
    44  H    2.784525   6.554945   6.286493   8.665146   8.468452
                   36         37         38         39         40
    36  H    0.000000
    37  C    6.708406   0.000000
    38  C    7.058820   1.504116   0.000000
    39  C    7.850819   2.517283   1.334173   0.000000
    40  H    7.429367   1.097144   2.135311   3.153938   0.000000
    41  H    7.079558   1.094350   2.142465   2.646285   1.752506
    42  H    6.901475   2.207710   1.088780   2.094760   2.610084
    43  H    8.325383   3.506947   2.116672   1.086123   4.076571
    44  H    8.250733   2.784444   2.119686   1.087947   3.429533
                   41         42         43         44
    41  H    0.000000
    42  H    3.092202   0.000000
    43  H    3.729386   2.437306   0.000000
    44  H    2.460463   3.076999   1.849310   0.000000
 Stoichiometry    C14H26O3Si
 Framework group  C1[X(C14H26O3Si)]
 Deg. of freedom   126
 Full point group                 C1      NOp   1
 Largest Abelian subgroup         C1      NOp   1
 Largest concise Abelian subgroup C1      NOp   1
                         Standard orientation:                         
 ---------------------------------------------------------------------
 Center     Atomic      Atomic             Coordinates (Angstroms)
 Number     Number       Type             X           Y           Z
 ---------------------------------------------------------------------
      1          6           0        2.114272    0.689560    0.515274
      2          6           0        0.864144    1.579096    0.313660
      3          6           0       -0.266737    0.828235   -0.438913
      4          6           0        0.300327    0.308771   -1.765292
      5          6           0        1.594800   -0.467556   -1.639286
      6          1           0        2.990154    1.347579    0.557533
      7          1           0        0.472272    1.800083    1.312232
      8          1           0       -0.415505   -0.326981   -2.291205
      9          1           0        0.506325    1.152546   -2.434771
     10          8           0        2.423985   -0.184954   -0.620380
     11          8           0        1.935203   -1.298631   -2.458404
     12          6           0        2.122667   -0.168625    1.784032
     13          6           0        3.443403   -0.910815    2.007346
     14          6           0        1.264146    2.915518   -0.338874
     15          8           0       -0.659380   -0.258550    0.406178
     16         14           0       -1.553347   -1.678497    0.230499
     17          6           0       -3.062921   -1.479601   -0.888527
     18          6           0       -0.464553   -3.070708   -0.425054
     19          6           0       -2.115340   -2.073208    1.982320
     20          1           0       -1.051159   -3.992558   -0.515145
     21          1           0       -0.038081   -2.847867   -1.407529
     22          1           0        0.368278   -3.273443    0.256802
     23          1           0       -1.261086   -2.167354    2.660785
     24          1           0       -2.771642   -1.289746    2.375525
     25          1           0       -2.668586   -3.018720    2.008653
     26          1           0       -3.621497   -2.423246   -0.898892
     27          1           0       -3.742182   -0.700661   -0.527280
     28          1           0       -2.802066   -1.248852   -1.926718
     29          1           0        2.033781    3.403098    0.267200
     30          1           0        1.680944    2.779927   -1.342473
     31          1           0        0.420381    3.604554   -0.407025
     32          1           0        1.285349   -0.868919    1.749146
     33          1           0        1.932935    0.507838    2.627068
     34          1           0        3.410811   -1.485165    2.938289
     35          1           0        3.649913   -1.604395    1.188008
     36          1           0        4.285910   -0.212759    2.075722
     37          6           0       -1.499884    1.728101   -0.710020
     38          6           0       -2.120975    2.313942    0.528286
     39          6           0       -2.434816    3.600742    0.688491
     40          1           0       -2.238503    1.101815   -1.225706
     41          1           0       -1.233841    2.525838   -1.410334
     42          1           0       -2.328822    1.610342    1.332766
     43          1           0       -2.899815    3.964695    1.600072
     44          1           0       -2.247075    4.337667   -0.089535
 ---------------------------------------------------------------------
 Rotational constants (GHZ):      0.3954982      0.3555811      0.2705156
 Standard basis: 6-311G(d) (5D, 7F)
 There are   428 symmetry adapted cartesian basis functions of A   symmetry.
 There are   410 symmetry adapted basis functions of A   symmetry.
   410 basis functions,   720 primitive gaussians,   428 cartesian basis functions
    74 alpha electrons       74 beta electrons
       nuclear repulsion energy      1658.6833831762 Hartrees.
 NAtoms=   44 NActive=   44 NUniq=   44 SFac= 1.00D+00 NAtFMM=   60 NAOKFM=F Big=F
 Integral buffers will be    131072 words long.
 Raffenetti 2 integral format.
 Two-electron integral symmetry is turned on.
 ------------------------------------------------------------------------------
 Polarizable Continuum Model (PCM)
 =================================
 Model                : PCM (using non-symmetric T matrix).
 Atomic radii         : UFF (Universal Force Field).
 Polarization charges : Total charges.
 Charge compensation  : None.
 Solution method      : On-the-fly selection.
 Cavity type          : Scaled VdW (van der Waals Surface) (Alpha=1.100).
 Cavity algorithm     : GePol (No added spheres)
                        Default sphere list used, NSphG=   44.
                        Lebedev-Laikov grids with approx.  5.0 points / Ang**2.
                        Smoothing algorithm: Karplus/York (Gamma=1.0000).
                        Polarization charges: spherical gaussians, with
                                              point-specific exponents (IZeta= 3).
                        Self-potential: point-specific (ISelfS= 7).
                        Self-field    : sphere-specific E.n sum rule (ISelfD= 2).
 Solvent              : Chloroform, Eps=   4.711300 Eps(inf)=   2.090627
 ------------------------------------------------------------------------------
 One-electron integrals computed using PRISM.
 NBasis=   410 RedAO= T EigKep=  1.09D-03  NBF=   410
 NBsUse=   410 1.00D-06 EigRej= -1.00D+00 NBFU=   410
 ExpMin= 6.54D-02 ExpMax= 6.94D+04 ExpMxC= 2.33D+03 IAcc=2 IRadAn=         4 AccDes= 0.00D+00
 Harris functional with IExCor=  908 and IRadAn=       4 diagonalized for initial guess.
 HarFok:  IExCor=  908 AccDes= 0.00D+00 IRadAn=         4 IDoV= 1 UseB2=F ITyADJ=14
 ICtDFT=  3500011 ScaDFX=  1.000000  1.000000  1.000000  1.000000
 FoFCou: FMM=F IPFlag=           0 FMFlag=      100000 FMFlg1=           0
         NFxFlg=           0 DoJE=T BraDBF=F KetDBF=T FulRan=T
         wScrn=  0.000000 ICntrl=     500 IOpCl=  0 I1Cent=   200000004 NGrid=           0
         NMat0=    1 NMatS0=      1 NMatT0=    0 NMatD0=    1 NMtDS0=    0 NMtDT0=    0
 Petite list used in FoFCou.
 Requested convergence on RMS density matrix=1.00D-08 within 128 cycles.
 Requested convergence on MAX density matrix=1.00D-06.
 Requested convergence on             energy=1.00D-06.
 No special actions if energy rises.
 Inv3:  Mode=1 IEnd=    24555963.
 Iteration    1 A*A^-1 deviation from unit magnitude is 5.55D-15 for   2841.
 Iteration    1 A*A^-1 deviation from orthogonality  is 3.84D-15 for   2526   1428.
 Iteration    1 A^-1*A deviation from unit magnitude is 6.22D-15 for   2841.
 Iteration    1 A^-1*A deviation from orthogonality  is 1.12D-11 for   2124   2074.
 Error on total polarization charges =  0.01132
 SCF Done:  E(RmPW1PW91) =  -1064.38202180     A.U. after   12 cycles
            NFock= 12  Conv=0.85D-08     -V/T= 2.0036
 DoSCS=F DFT=T ScalE2(SS,OS)=  1.000000  1.000000
 Range of M.O.s used for correlation:     1   410
 NBasis=   410 NAE=    74 NBE=    74 NFC=     0 NFV=     0
 NROrb=    410 NOA=    74 NOB=    74 NVA=   336 NVB=   336
 NEqPCM:  Using equilibrium solvation (IEInf=0, Eps=   4.7113, EpsInf=   2.0906)
          Differentiating once with respect to magnetic field using GIAOs.
          Electric field/nuclear overlap derivatives assumed to be zero.
 FoFJK:  IHMeth= 1 ICntrl=    6127 DoSepK=F KAlg= 0 I1Cent=   0 FoldK=F
 IRaf=         1 NMat=   1 IRICut=       1 DoRegI=T DoRafI=F ISym2E= 0.
          There are     3 degrees of freedom in the 1st order CPHF.  IDoFFX=0 NUNeed=     3.
      3 vectors produced by pass  0 Test12= 8.29D-13 3.33D-08 XBig12= 2.83D+01 8.13D-01.
 AX will form     3 AO Fock derivatives at one time.
      3 vectors produced by pass  1 Test12= 8.29D-13 3.33D-08 XBig12= 7.11D-02 9.22D-02.
      3 vectors produced by pass  2 Test12= 8.29D-13 3.33D-08 XBig12= 5.11D-04 7.55D-03.
      3 vectors produced by pass  3 Test12= 8.29D-13 3.33D-08 XBig12= 2.77D-06 4.07D-04.
      3 vectors produced by pass  4 Test12= 8.29D-13 3.33D-08 XBig12= 1.03D-08 2.61D-05.
      3 vectors produced by pass  5 Test12= 8.29D-13 3.33D-08 XBig12= 3.33D-11 9.88D-07.
      2 vectors produced by pass  6 Test12= 8.29D-13 3.33D-08 XBig12= 1.03D-13 4.81D-08.
 InvSVY:  IOpt=1 It=  1 EMax= 8.88D-16
 Solved reduced A of dimension    20 with     3 vectors.
 Calculating GIAO nuclear magnetic shielding tensors.
 SCF GIAO Magnetic shielding tensor (ppm):
      1  C    Isotropic =    94.3038   Anisotropy =    35.2065
   XX=    79.1286   YX=   -10.7806   ZX=    -1.3253
   XY=    -5.9901   YY=    99.6805   ZY=    16.9085
   XZ=     5.1262   YZ=    13.6482   ZZ=   104.1022
   Eigenvalues:    74.0954    91.0412   117.7748
      2  C    Isotropic =   144.9377   Anisotropy =    12.0052
   XX=   145.1588   YX=     7.1569   ZX=     1.1155
   XY=     2.0627   YY=   142.9913   ZY=    -8.2790
   XZ=     6.4896   YZ=    -7.5236   ZZ=   146.6631
   Eigenvalues:   133.6212   148.2508   152.9412
      3  C    Isotropic =   105.3584   Anisotropy =    55.4750
   XX=    95.1986   YX=    14.9725   ZX=    -5.1155
   XY=    15.2737   YY=   120.9400   ZY=   -26.1163
   XZ=    -1.9150   YZ=   -24.4481   ZZ=    99.9364
   Eigenvalues:    80.3757    93.3577   142.3417
      4  C    Isotropic =   146.2920   Anisotropy =    34.3669
   XX=   155.8896   YX=    -9.4557   ZX=    -7.2922
   XY=   -16.8402   YY=   142.4088   ZY=    11.6516
   XZ=   -12.1849   YZ=     3.5781   ZZ=   140.5775
   Eigenvalues:   133.4494   136.2232   169.2032
      5  C    Isotropic =    13.2915   Anisotropy =    98.7761
   XX=   -27.3762   YX=    18.2260   ZX=   -63.9741
   XY=    13.3177   YY=    58.7419   ZY=   -15.6884
   XZ=   -71.9751   YZ=    -8.5611   ZZ=     8.5089
   Eigenvalues:   -79.9273    40.6596    79.1423
      6  H    Isotropic =    27.8269   Anisotropy =     3.8225
   XX=    28.8122   YX=     0.5284   ZX=     1.7390
   XY=     1.5180   YY=    29.2925   ZY=    -0.4726
   XZ=     2.0587   YZ=     0.0954   ZZ=    25.3759
   Eigenvalues:    24.4597    28.6457    30.3752
      7  H    Isotropic =    30.2301   Anisotropy =     2.2234
   XX=    29.4996   YX=    -1.3483   ZX=    -0.2812
   XY=    -0.8157   YY=    29.6591   ZY=     0.1063
   XZ=    -0.7840   YZ=    -0.0613   ZZ=    31.5317
   Eigenvalues:    28.4479    30.5301    31.7124
      8  H    Isotropic =    29.7539   Anisotropy =     3.4624
   XX=    30.0367   YX=     1.9238   ZX=     0.6109
   XY=     0.9037   YY=    29.0115   ZY=     1.4373
   XZ=    -0.7869   YZ=     2.5881   ZZ=    30.2135
   Eigenvalues:    27.0241    30.1754    32.0622
      9  H    Isotropic =    29.6741   Anisotropy =     6.2808
   XX=    26.6507   YX=     0.5340   ZX=    -1.5764
   XY=     0.3871   YY=    29.7850   ZY=    -1.9218
   XZ=    -1.4198   YZ=    -1.8360   ZZ=    32.5867
   Eigenvalues:    26.2940    28.8670    33.8614
     10  O    Isotropic =   106.5185   Anisotropy =   206.9500
   XX=   164.5207   YX=    92.6839   ZX=    69.9757
   XY=   106.4211   YY=    74.7137   ZY=  -155.0934
   XZ=    61.4678   YZ=  -150.6524   ZZ=    80.3210
   Eigenvalues:  -123.2601   198.3304   244.4851
     11  O    Isotropic =  -100.9944   Anisotropy =   562.0449
   XX=  -110.6512   YX=   108.9306   ZX=  -172.3016
   XY=   137.6559   YY=   -17.3170   ZY=  -266.6098
   XZ=  -154.6734   YZ=  -246.0826   ZZ=  -175.0149
   Eigenvalues:  -381.2497  -195.4357   273.7022
     12  C    Isotropic =   152.8798   Anisotropy =    24.6095
   XX=   145.1905   YX=    -7.7816   ZX=     2.2806
   XY=   -10.4255   YY=   150.1394   ZY=   -12.6035
   XZ=    -1.6701   YZ=    -6.5377   ZZ=   163.3095
   Eigenvalues:   136.9053   152.4480   169.2861
     13  C    Isotropic =   174.9014   Anisotropy =    23.1363
   XX=   186.3872   YX=    -6.4400   ZX=     5.8787
   XY=    -4.7108   YY=   172.5067   ZY=    -9.0528
   XZ=     3.3235   YZ=    -5.4869   ZZ=   165.8102
   Eigenvalues:   161.1205   173.2581   190.3256
     14  C    Isotropic =   169.4942   Anisotropy =    28.5143
   XX=   169.5172   YX=     6.5333   ZX=     2.0358
   XY=     4.3892   YY=   181.9388   ZY=   -11.5090
   XZ=     8.1632   YZ=   -15.9486   ZZ=   157.0265
   Eigenvalues:   148.6560   171.3228   188.5037
     15  O    Isotropic =   244.3629   Anisotropy =    40.0827
   XX=   248.5213   YX=    17.4435   ZX=     7.4415
   XY=    15.5060   YY=   231.3210   ZY=     7.0252
   XZ=    10.5273   YZ=    19.6298   ZZ=   253.2464
   Eigenvalues:   219.7161   242.2880   271.0847
     16  Si   Isotropic =   332.5095   Anisotropy =    40.6293
   XX=   331.2708   YX=    18.9393   ZX=    -0.7360
   XY=    21.9172   YY=   344.7885   ZY=    10.5929
   XZ=   -11.5903   YZ=    -5.0027   ZZ=   321.4691
   Eigenvalues:   311.8978   326.0349   359.5956
     17  C    Isotropic =   185.5426   Anisotropy =     8.5832
   XX=   187.7915   YX=    -0.7667   ZX=     6.0367
   XY=     2.0740   YY=   187.3385   ZY=    -1.4965
   XZ=     5.5304   YZ=    -2.1204   ZZ=   181.4978
   Eigenvalues:   177.6904   187.6726   191.2647
     18  C    Isotropic =   185.6895   Anisotropy =    10.4399
   XX=   188.4055   YX=    -0.6240   ZX=    -3.5676
   XY=    -1.9912   YY=   190.6267   ZY=     3.5023
   XZ=    -3.4652   YZ=     3.0375   ZZ=   178.0363
   Eigenvalues:   176.4131   188.0060   192.6494
     19  C    Isotropic =   186.5243   Anisotropy =    12.0130
   XX=   181.2756   YX=     3.9838   ZX=    -3.8115
   XY=     5.1034   YY=   185.1898   ZY=    -0.8924
   XZ=    -3.6226   YZ=    -0.0154   ZZ=   193.1073
   Eigenvalues:   177.7350   187.3048   194.5329
     20  H    Isotropic =    32.3708   Anisotropy =    10.6775
   XX=    30.7024   YX=     3.3927   ZX=     0.2216
   XY=     3.1839   YY=    38.0364   ZY=     1.6149
   XZ=     0.0894   YZ=     1.4109   ZZ=    28.3735
   Eigenvalues:    28.0678    29.5554    39.4891
     21  H    Isotropic =    31.8264   Anisotropy =     7.6894
   XX=    30.2320   YX=     1.5285   ZX=    -4.2839
   XY=     1.4297   YY=    31.2563   ZY=     0.1388
   XZ=    -4.2300   YZ=    -0.6533   ZZ=    33.9907
   Eigenvalues:    27.1556    31.3708    36.9526
     22  H    Isotropic =    31.9997   Anisotropy =     7.3106
   XX=    34.1232   YX=    -1.4250   ZX=     3.6529
   XY=    -1.9770   YY=    31.5544   ZY=    -1.3866
   XZ=     3.0635   YZ=    -0.9280   ZZ=    30.3215
   Eigenvalues:    28.3558    30.7698    36.8734
     23  H    Isotropic =    31.8993   Anisotropy =     7.9030
   XX=    32.9115   YX=     0.2463   ZX=     2.8037
   XY=     0.3363   YY=    28.3751   ZY=    -2.0088
   XZ=     3.6165   YZ=    -1.8629   ZZ=    34.4113
   Eigenvalues:    27.4774    31.0525    37.1679
     24  H    Isotropic =    31.9240   Anisotropy =     8.4197
   XX=    31.7622   YX=    -2.9247   ZX=    -3.7257
   XY=    -2.6501   YY=    32.0689   ZY=     1.2544
   XZ=    -3.9446   YZ=     2.1347   ZZ=    31.9410
   Eigenvalues:    27.7973    30.4376    37.5372
     25  H    Isotropic =    32.3271   Anisotropy =    10.3760
   XX=    31.3670   YX=     4.6334   ZX=    -1.7423
   XY=     4.7154   YY=    35.4300   ZY=    -2.2009
   XZ=    -1.5483   YZ=    -1.8701   ZZ=    30.1843
   Eigenvalues:    28.2487    29.4881    39.2444
     26  H    Isotropic =    32.1763   Anisotropy =    10.4667
   XX=    33.2783   YX=     4.8016   ZX=     1.5753
   XY=     5.1647   YY=    34.5506   ZY=     0.7829
   XZ=     1.3285   YZ=     0.6581   ZZ=    28.7000
   Eigenvalues:    28.0471    29.3277    39.1541
     27  H    Isotropic =    31.8991   Anisotropy =     7.5965
   XX=    34.5837   YX=    -3.1131   ZX=    -0.7122
   XY=    -2.8549   YY=    32.7453   ZY=     1.5383
   XZ=    -0.3672   YZ=     1.1271   ZZ=    28.3683
   Eigenvalues:    27.9775    30.7564    36.9635
     28  H    Isotropic =    31.8334   Anisotropy =     6.7433
   XX=    30.3471   YX=     1.2669   ZX=     0.9418
   XY=     1.4751   YY=    29.0472   ZY=    -1.2000
   XZ=    -0.1147   YZ=    -1.3172   ZZ=    36.1060
   Eigenvalues:    27.9761    31.1952    36.3289
     29  H    Isotropic =    31.1758   Anisotropy =    10.5948
   XX=    31.6935   YX=     4.2868   ZX=     3.2944
   XY=     4.9132   YY=    33.7184   ZY=     1.5280
   XZ=     2.3460   YZ=     1.2822   ZZ=    28.1154
   Eigenvalues:    26.3324    28.9560    38.2390
     30  H    Isotropic =    31.1824   Anisotropy =     7.9461
   XX=    29.3120   YX=     2.1555   ZX=    -3.2776
   XY=     2.4833   YY=    31.4208   ZY=    -2.2449
   XZ=    -3.0024   YZ=    -2.0050   ZZ=    32.8145
   Eigenvalues:    27.1857    29.8818    36.4799
     31  H    Isotropic =    31.0075   Anisotropy =     8.7915
   XX=    32.5786   YX=    -1.7808   ZX=    -0.3435
   XY=    -2.6714   YY=    35.3922   ZY=    -1.2502
   XZ=     1.1436   YZ=    -2.2249   ZZ=    25.0518
   Eigenvalues:    24.7675    31.3866    36.8685
     32  H    Isotropic =    29.6188   Anisotropy =     9.5697
   XX=    34.7367   YX=     2.0976   ZX=     3.2689
   XY=     2.1915   YY=    27.4295   ZY=    -2.8117
   XZ=     3.1248   YZ=    -3.1733   ZZ=    26.6902
   Eigenvalues:    22.8193    30.0385    35.9986
     33  H    Isotropic =    30.6683   Anisotropy =     6.1706
   XX=    29.3284   YX=    -3.0920   ZX=     0.8863
   XY=    -2.8473   YY=    28.6247   ZY=     2.0038
   XZ=     1.1222   YZ=     2.2366   ZZ=    34.0520
   Eigenvalues:    25.3958    31.8272    34.7821
     34  H    Isotropic =    31.0517   Anisotropy =    10.7174
   XX=    29.8138   YX=    -2.0798   ZX=     2.5516
   XY=    -1.7896   YY=    30.0988   ZY=    -5.5264
   XZ=     2.0874   YZ=    -4.8913   ZZ=    33.2423
   Eigenvalues:    26.2193    28.7391    38.1966
     35  H    Isotropic =    30.5806   Anisotropy =     6.9720
   XX=    30.2895   YX=    -4.0868   ZX=     0.0327
   XY=    -4.0691   YY=    31.0360   ZY=     2.5118
   XZ=     1.1879   YZ=     2.4516   ZZ=    30.4164
   Eigenvalues:    25.5888    30.9244    35.2287
     36  H    Isotropic =    31.2081   Anisotropy =    10.0146
   XX=    36.4357   YX=     2.8568   ZX=     2.6256
   XY=     1.8456   YY=    29.3993   ZY=     0.2740
   XZ=     2.9976   YZ=    -0.0916   ZZ=    27.7892
   Eigenvalues:    26.7951    28.9446    37.8845
     37  C    Isotropic =   141.1141   Anisotropy =    32.2950
   XX=   146.3067   YX=   -19.4507   ZX=    -8.6099
   XY=   -15.2807   YY=   138.1615   ZY=     2.0407
   XZ=    -5.7010   YZ=     5.0463   ZZ=   138.8740
   Eigenvalues:   124.1831   136.5150   162.6441
     38  C    Isotropic =    46.6486   Anisotropy =   179.0676
   XX=   132.2713   YX=     3.7412   ZX=    79.2089
   XY=     5.1433   YY=    45.3645   ZY=    36.6785
   XZ=    78.4805   YZ=    39.4877   ZZ=   -37.6900
   Eigenvalues:   -78.0104    51.9292   166.0271
     39  C    Isotropic =    65.9345   Anisotropy =   141.1317
   XX=   132.5122   YX=    -2.0867   ZX=    65.4937
   XY=     1.8428   YY=    83.2621   ZY=    28.3156
   XZ=    70.6803   YZ=    26.2366   ZZ=   -17.9708
   Eigenvalues:   -49.1309    86.9120   160.0223
     40  H    Isotropic =    29.6488   Anisotropy =     5.3298
   XX=    30.3955   YX=     1.6695   ZX=     2.5920
   XY=     0.3510   YY=    31.3827   ZY=     1.0004
   XZ=     2.2901   YZ=     2.0141   ZZ=    27.1683
   Eigenvalues:    25.7180    30.0264    33.2020
     41  H    Isotropic =    29.9155   Anisotropy =     5.6870
   XX=    29.2058   YX=    -1.3769   ZX=     0.3931
   XY=    -1.8005   YY=    31.7909   ZY=    -1.6258
   XZ=     0.8275   YZ=    -3.0836   ZZ=    28.7497
   Eigenvalues:    27.4279    28.6117    33.7068
     42  H    Isotropic =    25.6980   Anisotropy =     7.7315
   XX=    26.1006   YX=    -2.7473   ZX=    -1.9375
   XY=    -1.7551   YY=    28.2304   ZY=     1.9466
   XZ=    -1.8313   YZ=     3.0267   ZZ=    22.7631
   Eigenvalues:    21.5489    24.6928    30.8524
     43  H    Isotropic =    26.6889   Anisotropy =     7.0658
   XX=    26.5338   YX=    -2.0054   ZX=    -0.8741
   XY=    -2.7369   YY=    29.4211   ZY=     3.3288
   XZ=    -0.0901   YZ=     1.0829   ZZ=    24.1118
   Eigenvalues:    23.2642    25.4030    31.3994
     44  H    Isotropic =    26.7672   Anisotropy =     7.4611
   XX=    26.7036   YX=    -2.8900   ZX=     0.8093
   XY=    -1.8961   YY=    30.5663   ZY=    -0.3595
   XZ=     0.4880   YZ=     2.1230   ZZ=    23.0316
   Eigenvalues:    22.6786    25.8817    31.7412
 End of Minotr F.D. properties file   721 does not exist.
 End of Minotr F.D. properties file   722 does not exist.
 End of Minotr F.D. properties file   788 does not exist.

 **********************************************************************

            Population analysis using the SCF density.

 **********************************************************************

 Orbital symmetries:
       Occupied  (A) (A) (A) (A) (A) (A) (A) (A) (A) (A) (A) (A)
                 (A) (A) (A) (A) (A) (A) (A) (A) (A) (A) (A) (A)
                 (A) (A) (A) (A) (A) (A) (A) (A) (A) (A) (A) (A)
                 (A) (A) (A) (A) (A) (A) (A) (A) (A) (A) (A) (A)
                 (A) (A) (A) (A) (A) (A) (A) (A) (A) (A) (A) (A)
                 (A) (A) (A) (A) (A) (A) (A) (A) (A) (A) (A) (A)
                 (A) (A)
       Virtual   (A) (A) (A) (A) (A) (A) (A) (A) (A) (A) (A) (A)
                 (A) (A) (A) (A) (A) (A) (A) (A) (A) (A) (A) (A)
                 (A) (A) (A) (A) (A) (A) (A) (A) (A) (A) (A) (A)
                 (A) (A) (A) (A) (A) (A) (A) (A) (A) (A) (A) (A)
                 (A) (A) (A) (A) (A) (A) (A) (A) (A) (A) (A) (A)
                 (A) (A) (A) (A) (A) (A) (A) (A) (A) (A) (A) (A)
                 (A) (A) (A) (A) (A) (A) (A) (A) (A) (A) (A) (A)
                 (A) (A) (A) (A) (A) (A) (A) (A) (A) (A) (A) (A)
                 (A) (A) (A) (A) (A) (A) (A) (A) (A) (A) (A) (A)
                 (A) (A) (A) (A) (A) (A) (A) (A) (A) (A) (A) (A)
                 (A) (A) (A) (A) (A) (A) (A) (A) (A) (A) (A) (A)
                 (A) (A) (A) (A) (A) (A) (A) (A) (A) (A) (A) (A)
                 (A) (A) (A) (A) (A) (A) (A) (A) (A) (A) (A) (A)
                 (A) (A) (A) (A) (A) (A) (A) (A) (A) (A) (A) (A)
                 (A) (A) (A) (A) (A) (A) (A) (A) (A) (A) (A) (A)
                 (A) (A) (A) (A) (A) (A) (A) (A) (A) (A) (A) (A)
                 (A) (A) (A) (A) (A) (A) (A) (A) (A) (A) (A) (A)
                 (A) (A) (A) (A) (A) (A) (A) (A) (A) (A) (A) (A)
                 (A) (A) (A) (A) (A) (A) (A) (A) (A) (A) (A) (A)
                 (A) (A) (A) (A) (A) (A) (A) (A) (A) (A) (A) (A)
                 (A) (A) (A) (A) (A) (A) (A) (A) (A) (A) (A) (A)
                 (A) (A) (A) (A) (A) (A) (A) (A) (A) (A) (A) (A)
                 (A) (A) (A) (A) (A) (A) (A) (A) (A) (A) (A) (A)
                 (A) (A) (A) (A) (A) (A) (A) (A) (A) (A) (A) (A)
                 (A) (A) (A) (A) (A) (A) (A) (A) (A) (A) (A) (A)
                 (A) (A) (A) (A) (A) (A) (A) (A) (A) (A) (A) (A)
                 (A) (A) (A) (A) (A) (A) (A) (A) (A) (A) (A) (A)
                 (A) (A) (A) (A) (A) (A) (A) (A) (A) (A) (A) (A)
 The electronic state is 1-A.
 Alpha  occ. eigenvalues --  -66.27392 -19.25700 -19.20633 -19.19343 -10.36796
 Alpha  occ. eigenvalues --  -10.31809 -10.30224 -10.25280 -10.25242 -10.24279
 Alpha  occ. eigenvalues --  -10.24229 -10.23016 -10.22977 -10.22924 -10.21729
 Alpha  occ. eigenvalues --  -10.21084 -10.20663 -10.20406  -5.33123  -3.67013
 Alpha  occ. eigenvalues --   -3.66723  -3.66693  -1.12956  -1.04538  -1.03829
 Alpha  occ. eigenvalues --   -0.85759  -0.82846  -0.80796  -0.77679  -0.73917
 Alpha  occ. eigenvalues --   -0.72864  -0.71563  -0.70279  -0.69955  -0.67063
 Alpha  occ. eigenvalues --   -0.64084  -0.61339  -0.58070  -0.55231  -0.53791
 Alpha  occ. eigenvalues --   -0.52263  -0.50781  -0.49243  -0.48953  -0.47001
 Alpha  occ. eigenvalues --   -0.46049  -0.45139  -0.44369  -0.43676  -0.43070
 Alpha  occ. eigenvalues --   -0.42704  -0.42481  -0.42390  -0.41564  -0.41246
 Alpha  occ. eigenvalues --   -0.40840  -0.40468  -0.39912  -0.39576  -0.39321
 Alpha  occ. eigenvalues --   -0.38670  -0.37896  -0.36944  -0.36637  -0.35816
 Alpha  occ. eigenvalues --   -0.35187  -0.34064  -0.33044  -0.32344  -0.30456
 Alpha  occ. eigenvalues --   -0.29587  -0.29468  -0.28654  -0.26957
 Alpha virt. eigenvalues --    0.00684   0.00957   0.03777   0.05628   0.06263
 Alpha virt. eigenvalues --    0.06935   0.07104   0.08061   0.08734   0.09056
 Alpha virt. eigenvalues --    0.09251   0.09390   0.10480   0.11014   0.11402
 Alpha virt. eigenvalues --    0.12050   0.12574   0.13024   0.13560   0.14209
 Alpha virt. eigenvalues --    0.14470   0.14865   0.15024   0.15790   0.16212
 Alpha virt. eigenvalues --    0.16273   0.16578   0.16882   0.17684   0.17854
 Alpha virt. eigenvalues --    0.18981   0.19550   0.20526   0.20922   0.21907
 Alpha virt. eigenvalues --    0.22618   0.22969   0.23877   0.24100   0.24479
 Alpha virt. eigenvalues --    0.25240   0.25610   0.26290   0.27216   0.28040
 Alpha virt. eigenvalues --    0.29706   0.30862   0.31349   0.31389   0.32620
 Alpha virt. eigenvalues --    0.33354   0.33707   0.35190   0.35538   0.36119
 Alpha virt. eigenvalues --    0.36733   0.38941   0.39168   0.39749   0.40757
 Alpha virt. eigenvalues --    0.41654   0.42652   0.43897   0.44132   0.44509
 Alpha virt. eigenvalues --    0.45113   0.45550   0.46624   0.47911   0.49235
 Alpha virt. eigenvalues --    0.49848   0.50813   0.51930   0.52632   0.52960
 Alpha virt. eigenvalues --    0.53164   0.53805   0.54605   0.55244   0.56613
 Alpha virt. eigenvalues --    0.56871   0.57512   0.57816   0.58012   0.59041
 Alpha virt. eigenvalues --    0.59432   0.59894   0.60273   0.60526   0.61362
 Alpha virt. eigenvalues --    0.61683   0.62019   0.62589   0.63152   0.63467
 Alpha virt. eigenvalues --    0.63676   0.64504   0.64628   0.65294   0.65538
 Alpha virt. eigenvalues --    0.66356   0.66552   0.68008   0.68151   0.68525
 Alpha virt. eigenvalues --    0.69253   0.69892   0.70874   0.70948   0.71479
 Alpha virt. eigenvalues --    0.71915   0.72537   0.73149   0.74070   0.74592
 Alpha virt. eigenvalues --    0.76257   0.77519   0.77872   0.80516   0.82936
 Alpha virt. eigenvalues --    0.83290   0.83987   0.86168   0.86417   0.87699
 Alpha virt. eigenvalues --    0.90262   0.91535   0.92528   0.94045   0.94764
 Alpha virt. eigenvalues --    0.95687   0.96743   0.98728   1.00568   1.01809
 Alpha virt. eigenvalues --    1.03183   1.04316   1.05309   1.05575   1.08289
 Alpha virt. eigenvalues --    1.11703   1.12880   1.17096   1.18830   1.22239
 Alpha virt. eigenvalues --    1.23023   1.24888   1.26343   1.27310   1.27871
 Alpha virt. eigenvalues --    1.28782   1.31231   1.32313   1.32490   1.32905
 Alpha virt. eigenvalues --    1.34153   1.37622   1.39743   1.40350   1.40980
 Alpha virt. eigenvalues --    1.41833   1.43324   1.45269   1.47060   1.48139
 Alpha virt. eigenvalues --    1.50763   1.51872   1.52751   1.53300   1.53977
 Alpha virt. eigenvalues --    1.54508   1.55553   1.55943   1.57287   1.57956
 Alpha virt. eigenvalues --    1.59084   1.59992   1.60219   1.60544   1.60732
 Alpha virt. eigenvalues --    1.61814   1.62831   1.63903   1.64809   1.65799
 Alpha virt. eigenvalues --    1.66475   1.66906   1.68363   1.69386   1.70744
 Alpha virt. eigenvalues --    1.71013   1.71354   1.71777   1.72712   1.74313
 Alpha virt. eigenvalues --    1.75492   1.77461   1.79127   1.80954   1.81349
 Alpha virt. eigenvalues --    1.81801   1.82221   1.83985   1.84234   1.85992
 Alpha virt. eigenvalues --    1.88572   1.91248   1.94109   1.94720   1.96602
 Alpha virt. eigenvalues --    1.98635   2.02381   2.05375   2.09358   2.14604
 Alpha virt. eigenvalues --    2.15023   2.18859   2.21686   2.23161   2.25507
 Alpha virt. eigenvalues --    2.28248   2.30393   2.35325   2.37315   2.40683
 Alpha virt. eigenvalues --    2.41097   2.42189   2.42950   2.43381   2.43845
 Alpha virt. eigenvalues --    2.44495   2.44727   2.45452   2.45728   2.47349
 Alpha virt. eigenvalues --    2.48082   2.49065   2.49225   2.50681   2.52199
 Alpha virt. eigenvalues --    2.52750   2.54304   2.56845   2.58248   2.60634
 Alpha virt. eigenvalues --    2.62431   2.63316   2.66582   2.72537   2.78741
 Alpha virt. eigenvalues --    2.82303   2.87500   2.88245   2.91172   2.91397
 Alpha virt. eigenvalues --    2.91859   2.93255   2.94476   2.96015   2.98629
 Alpha virt. eigenvalues --    2.99209   2.99396   3.02264   3.05122   3.06349
 Alpha virt. eigenvalues --    3.10219   3.12094   3.13470   3.14095   3.15440
 Alpha virt. eigenvalues --    3.16423   3.17417   3.18562   3.19594   3.20616
 Alpha virt. eigenvalues --    3.22562   3.22999   3.23450   3.24071   3.24731
 Alpha virt. eigenvalues --    3.25903   3.27208   3.27730   3.28508   3.29259
 Alpha virt. eigenvalues --    3.34102   3.35661   3.36885   3.39872   3.43852
 Alpha virt. eigenvalues --    3.47165   3.50859   3.57279   3.59967   3.61316
 Alpha virt. eigenvalues --    3.77914   3.88759   3.89835   3.97756   4.02391
 Alpha virt. eigenvalues --    4.12363   4.14204   4.17148   4.22976   4.26104
 Alpha virt. eigenvalues --    4.97243   5.01577   5.04307   5.12829   5.17371
 Alpha virt. eigenvalues --    5.23856   5.53452   5.55152   5.77143   5.85969
 Alpha virt. eigenvalues --   11.52782  11.54631  11.56962  23.41670  23.49473
 Alpha virt. eigenvalues --   23.55091  23.56188  23.57121  23.61671  23.70028
 Alpha virt. eigenvalues --   23.73077  23.77766  23.79860  23.84877  23.85851
 Alpha virt. eigenvalues --   23.89042  24.29107  49.98739  50.06087  50.13573
 Alpha virt. eigenvalues --  141.28414
          Condensed to atoms (all electrons):
               1          2          3          4          5          6
     1  C    5.201038   0.292015  -0.057623  -0.014973  -0.043441   0.418158
     2  C    0.292015   5.569848   0.245484  -0.074429  -0.019408  -0.060005
     3  C   -0.057623   0.245484   5.236681   0.213451  -0.030209   0.007883
     4  C   -0.014973  -0.074429   0.213451   5.861033   0.257243  -0.002348
     5  C   -0.043441  -0.019408  -0.030209   0.257243   4.381399   0.001189
     6  H    0.418158  -0.060005   0.007883  -0.002348   0.001189   0.470825
     7  H   -0.043846   0.394980  -0.038052   0.008567   0.000056   0.000738
     8  H   -0.000342   0.006440  -0.023127   0.363061  -0.028139   0.000019
     9  H    0.001274  -0.003393  -0.027317   0.360772  -0.023395   0.000192
    10  O    0.201403  -0.032635   0.013572  -0.106338   0.350074  -0.028606
    11  O    0.003041  -0.000026   0.003792  -0.092891   0.646834  -0.000249
    12  C    0.303812  -0.051031  -0.007102   0.002194  -0.002083  -0.055898
    13  C   -0.075938   0.008167  -0.000449   0.000160   0.000069  -0.005003
    14  C   -0.084232   0.298030  -0.068397   0.002148   0.000596  -0.006232
    15  O    0.005314  -0.067229   0.221085  -0.049674   0.005484  -0.000199
    16  Si   0.000566   0.001966  -0.039126  -0.012635  -0.002169   0.000181
    17  C    0.000009  -0.000279   0.000581  -0.001625   0.000158   0.000000
    18  C    0.000092  -0.000072  -0.000892   0.002497  -0.003468  -0.000010
    19  C    0.000033  -0.000042   0.002168  -0.000067  -0.000052   0.000000
    20  H    0.000003   0.000002   0.000003   0.000000   0.000174   0.000000
    21  H   -0.000094   0.000113  -0.000905  -0.000727  -0.000403  -0.000009
    22  H   -0.000128   0.000072   0.000227   0.000243   0.000151   0.000003
    23  H   -0.000033   0.000087  -0.000107  -0.000017  -0.000002   0.000002
    24  H    0.000003  -0.000006   0.000014  -0.000028   0.000001   0.000000
    25  H   -0.000002   0.000001  -0.000053   0.000004   0.000000   0.000000
    26  H    0.000000   0.000008  -0.000048   0.000019  -0.000007   0.000000
    27  H    0.000003  -0.000091   0.000459   0.000118   0.000008   0.000000
    28  H    0.000005  -0.000064   0.000641   0.000657  -0.000012   0.000000
    29  H   -0.006410  -0.034876   0.007055  -0.000672   0.000043   0.004161
    30  H   -0.006320  -0.036123  -0.008642   0.005306  -0.001017  -0.001227
    31  H    0.007692  -0.034539  -0.008407  -0.000659  -0.000025   0.000598
    32  H   -0.032446  -0.007261   0.001808  -0.001065   0.001058   0.006579
    33  H   -0.044930  -0.004821   0.001794  -0.000162   0.000094  -0.000289
    34  H    0.007996  -0.000231   0.000005   0.000005  -0.000015  -0.000169
    35  H   -0.011626   0.000347   0.000024   0.000379   0.001086  -0.000027
    36  H   -0.002999  -0.000302   0.000010  -0.000016  -0.000081   0.005713
    37  C    0.008243  -0.082339   0.339278  -0.089907   0.004156  -0.000076
    38  C   -0.000126  -0.015537  -0.059142   0.009465  -0.000160  -0.000021
    39  C   -0.000002   0.000398  -0.002911  -0.000013  -0.000001  -0.000001
    40  H   -0.000189   0.008460  -0.047364  -0.006611  -0.000030   0.000014
    41  H   -0.000096  -0.003135  -0.030605  -0.002848  -0.000122  -0.000005
    42  H   -0.000095  -0.001358  -0.002504   0.000149   0.000003   0.000002
    43  H   -0.000001   0.000013  -0.000358   0.000014   0.000000   0.000000
    44  H    0.000001  -0.000115   0.000314  -0.000062   0.000001   0.000000
               7          8          9         10         11         12
     1  C   -0.043846  -0.000342   0.001274   0.201403   0.003041   0.303812
     2  C    0.394980   0.006440  -0.003393  -0.032635  -0.000026  -0.051031
     3  C   -0.038052  -0.023127  -0.027317   0.013572   0.003792  -0.007102
     4  C    0.008567   0.363061   0.360772  -0.106338  -0.092891   0.002194
     5  C    0.000056  -0.028139  -0.023395   0.350074   0.646834  -0.002083
     6  H    0.000738   0.000019   0.000192  -0.028606  -0.000249  -0.055898
     7  H    0.445613  -0.000047  -0.000138   0.002896   0.000018  -0.000240
     8  H   -0.000047   0.414363  -0.018209   0.004132   0.008765   0.000142
     9  H   -0.000138  -0.018209   0.423261   0.000376   0.000548  -0.000151
    10  O    0.002896   0.004132   0.000376   8.038098  -0.076508  -0.053620
    11  O    0.000018   0.008765   0.000548  -0.076508   7.890764  -0.000191
    12  C   -0.000240   0.000142  -0.000151  -0.053620  -0.000191   5.347987
    13  C    0.000184   0.000002  -0.000006  -0.003805   0.000001   0.311168
    14  C   -0.035308   0.000050  -0.000061   0.000572   0.000025   0.007387
    15  O    0.001091  -0.004399   0.004213  -0.001966   0.000032  -0.003997
    16  Si  -0.000039   0.001832   0.001955   0.001565  -0.002802  -0.000103
    17  C    0.000000   0.002081  -0.000086  -0.000001   0.000007  -0.000002
    18  C    0.000030   0.000261  -0.000017   0.000070  -0.003053  -0.000305
    19  C   -0.000046  -0.000053   0.000013   0.000003   0.000000  -0.000477
    20  H   -0.000001  -0.000052  -0.000001   0.000000  -0.000009   0.000000
    21  H   -0.000002   0.002913   0.000114  -0.000522   0.014883   0.000166
    22  H   -0.000001  -0.000093  -0.000016   0.000284   0.000012   0.000033
    23  H    0.000010  -0.000003   0.000001  -0.000001   0.000000   0.000270
    24  H   -0.000028  -0.000007   0.000002   0.000001   0.000000   0.000003
    25  H    0.000002   0.000006   0.000000   0.000000   0.000000   0.000003
    26  H    0.000001   0.000051  -0.000001   0.000000   0.000000   0.000000
    27  H   -0.000009  -0.000329   0.000012   0.000000   0.000000   0.000000
    28  H    0.000000   0.003035  -0.000074  -0.000003  -0.000074   0.000000
    29  H   -0.004632   0.000013   0.000201   0.000006   0.000002   0.000034
    30  H    0.006143   0.000249   0.002086   0.003251  -0.000119   0.000425
    31  H   -0.003801  -0.000067  -0.000024  -0.000221   0.000001  -0.000388
    32  H    0.000639   0.000020  -0.000006   0.000332  -0.000187   0.374203
    33  H    0.001392  -0.000017   0.000012   0.004175   0.000002   0.388491
    34  H   -0.000040   0.000000   0.000000  -0.000099   0.000000  -0.036958
    35  H   -0.000079  -0.000020  -0.000001   0.011563   0.000280  -0.037419
    36  H    0.000054   0.000000   0.000001  -0.000411  -0.000005  -0.040433
    37  C   -0.010062  -0.007239  -0.003625  -0.000377  -0.000197  -0.000524
    38  C    0.010311   0.000222  -0.000127   0.000002   0.000001   0.000026
    39  C    0.002295   0.000004  -0.000062   0.000000   0.000000   0.000000
    40  H    0.000127   0.002217   0.000311  -0.000001  -0.000022  -0.000002
    41  H   -0.000146   0.000141   0.000516  -0.000004  -0.000003  -0.000011
    42  H    0.000318   0.000009  -0.000044   0.000000   0.000000   0.000042
    43  H    0.000075   0.000000   0.000001   0.000000   0.000000   0.000000
    44  H   -0.000062  -0.000001  -0.000010   0.000000   0.000000   0.000000
              13         14         15         16         17         18
     1  C   -0.075938  -0.084232   0.005314   0.000566   0.000009   0.000092
     2  C    0.008167   0.298030  -0.067229   0.001966  -0.000279  -0.000072
     3  C   -0.000449  -0.068397   0.221085  -0.039126   0.000581  -0.000892
     4  C    0.000160   0.002148  -0.049674  -0.012635  -0.001625   0.002497
     5  C    0.000069   0.000596   0.005484  -0.002169   0.000158  -0.003468
     6  H   -0.005003  -0.006232  -0.000199   0.000181   0.000000  -0.000010
     7  H    0.000184  -0.035308   0.001091  -0.000039   0.000000   0.000030
     8  H    0.000002   0.000050  -0.004399   0.001832   0.002081   0.000261
     9  H   -0.000006  -0.000061   0.004213   0.001955  -0.000086  -0.000017
    10  O   -0.003805   0.000572  -0.001966   0.001565  -0.000001   0.000070
    11  O    0.000001   0.000025   0.000032  -0.002802   0.000007  -0.003053
    12  C    0.311168   0.007387  -0.003997  -0.000103  -0.000002  -0.000305
    13  C    5.355075  -0.000317   0.000409   0.000803   0.000000  -0.000037
    14  C   -0.000317   5.414519   0.003909  -0.000223   0.000007   0.000003
    15  O    0.000409   0.003909   8.321335   0.330468  -0.022754  -0.023186
    16  Si   0.000803  -0.000223   0.330468  11.495855   0.310284   0.322524
    17  C    0.000000   0.000007  -0.022754   0.310284   5.794505  -0.054179
    18  C   -0.000037   0.000003  -0.023186   0.322524  -0.054179   5.787382
    19  C   -0.000013   0.000000  -0.026993   0.328431  -0.043923  -0.047330
    20  H   -0.000001   0.000000   0.001001  -0.011742   0.000052   0.359582
    21  H    0.000017   0.000001  -0.001201  -0.026619  -0.000623   0.360612
    22  H    0.000066  -0.000001  -0.002058  -0.027263   0.001996   0.372856
    23  H   -0.000018  -0.000001  -0.001825  -0.025878   0.002103  -0.000739
    24  H   -0.000001  -0.000001  -0.001978  -0.025436  -0.000523   0.001995
    25  H    0.000000   0.000000   0.001233  -0.015870   0.000253   0.000611
    26  H    0.000000   0.000000   0.000756  -0.011141   0.364049  -0.000028
    27  H    0.000000   0.000002  -0.001920  -0.024947   0.370425   0.002125
    28  H    0.000000   0.000002  -0.001405  -0.027061   0.368653  -0.000803
    29  H   -0.000103   0.387432  -0.000135   0.000015   0.000000   0.000000
    30  H   -0.000005   0.383344   0.000000  -0.000060   0.000000  -0.000001
    31  H    0.000011   0.386697  -0.000030  -0.000024   0.000001   0.000000
    32  H   -0.041872  -0.000111   0.004958   0.002709   0.000035   0.000528
    33  H   -0.038367  -0.000430   0.000094   0.000000   0.000001  -0.000002
    34  H    0.391983   0.000013  -0.000017   0.000002   0.000000   0.000000
    35  H    0.384251  -0.000032   0.000022   0.000094   0.000000   0.000075
    36  H    0.382962  -0.000026  -0.000019  -0.000045   0.000000   0.000000
    37  C    0.000011  -0.001113  -0.059719  -0.012139  -0.002481  -0.000222
    38  C    0.000000  -0.004395   0.001095  -0.000970   0.000614   0.000019
    39  C    0.000000  -0.000867   0.000710   0.000520  -0.000003   0.000000
    40  H   -0.000001  -0.000060  -0.003702  -0.003977  -0.002211  -0.000147
    41  H    0.000000  -0.001675   0.004280   0.001960  -0.000078   0.000016
    42  H    0.000000   0.000026   0.006409   0.002532  -0.000041   0.000037
    43  H    0.000000   0.000062   0.000017   0.000012   0.000000   0.000000
    44  H    0.000000   0.000038  -0.000010  -0.000003  -0.000001   0.000000
              19         20         21         22         23         24
     1  C    0.000033   0.000003  -0.000094  -0.000128  -0.000033   0.000003
     2  C   -0.000042   0.000002   0.000113   0.000072   0.000087  -0.000006
     3  C    0.002168   0.000003  -0.000905   0.000227  -0.000107   0.000014
     4  C   -0.000067   0.000000  -0.000727   0.000243  -0.000017  -0.000028
     5  C   -0.000052   0.000174  -0.000403   0.000151  -0.000002   0.000001
     6  H    0.000000   0.000000  -0.000009   0.000003   0.000002   0.000000
     7  H   -0.000046  -0.000001  -0.000002  -0.000001   0.000010  -0.000028
     8  H   -0.000053  -0.000052   0.002913  -0.000093  -0.000003  -0.000007
     9  H    0.000013  -0.000001   0.000114  -0.000016   0.000001   0.000002
    10  O    0.000003   0.000000  -0.000522   0.000284  -0.000001   0.000001
    11  O    0.000000  -0.000009   0.014883   0.000012   0.000000   0.000000
    12  C   -0.000477   0.000000   0.000166   0.000033   0.000270   0.000003
    13  C   -0.000013  -0.000001   0.000017   0.000066  -0.000018  -0.000001
    14  C    0.000000   0.000000   0.000001  -0.000001  -0.000001  -0.000001
    15  O   -0.026993   0.001001  -0.001201  -0.002058  -0.001825  -0.001978
    16  Si   0.328431  -0.011742  -0.026619  -0.027263  -0.025878  -0.025436
    17  C   -0.043923   0.000052  -0.000623   0.001996   0.002103  -0.000523
    18  C   -0.047330   0.359582   0.360612   0.372856  -0.000739   0.001995
    19  C    5.737696   0.000432   0.001962  -0.000842   0.371027   0.370537
    20  H    0.000432   0.457213  -0.019972  -0.021676  -0.000108  -0.000082
    21  H    0.001962  -0.019972   0.438751  -0.019673  -0.000098  -0.000100
    22  H   -0.000842  -0.021676  -0.019673   0.448021   0.001202  -0.000033
    23  H    0.371027  -0.000108  -0.000098   0.001202   0.449992  -0.019047
    24  H    0.370537  -0.000082  -0.000100  -0.000033  -0.019047   0.453479
    25  H    0.362432   0.000535  -0.000087   0.000046  -0.021517  -0.021972
    26  H   -0.000500   0.000497   0.000036  -0.000067  -0.000098  -0.000045
    27  H   -0.000266  -0.000045  -0.000044  -0.000091  -0.000071   0.001298
    28  H    0.002405   0.000044   0.000266  -0.000025  -0.000087  -0.000053
    29  H    0.000000   0.000000   0.000000   0.000000   0.000000   0.000000
    30  H    0.000000   0.000000   0.000004   0.000000   0.000000   0.000000
    31  H    0.000000   0.000000   0.000000   0.000000   0.000000   0.000000
    32  H    0.001232   0.000040  -0.000193   0.001106   0.001898  -0.000072
    33  H    0.000010   0.000000  -0.000017   0.000021   0.000017   0.000017
    34  H    0.000001   0.000000   0.000003   0.000007   0.000012   0.000000
    35  H   -0.000002  -0.000001  -0.000036   0.000283  -0.000001   0.000000
    36  H    0.000000   0.000000  -0.000001  -0.000003   0.000000   0.000000
    37  C   -0.000134   0.000003  -0.000041  -0.000017  -0.000023  -0.000029
    38  C   -0.000162   0.000000   0.000002   0.000000   0.000000   0.000184
    39  C    0.000002   0.000000   0.000000   0.000000   0.000000  -0.000007
    40  H   -0.000041   0.000009  -0.000040  -0.000002  -0.000004  -0.000028
    41  H   -0.000005  -0.000001   0.000008   0.000003   0.000002  -0.000001
    42  H    0.000487   0.000000  -0.000001   0.000002  -0.000049   0.001296
    43  H   -0.000001   0.000000   0.000000   0.000000   0.000000  -0.000004
    44  H    0.000000   0.000000   0.000000   0.000000   0.000000   0.000001
              25         26         27         28         29         30
     1  C   -0.000002   0.000000   0.000003   0.000005  -0.006410  -0.006320
     2  C    0.000001   0.000008  -0.000091  -0.000064  -0.034876  -0.036123
     3  C   -0.000053  -0.000048   0.000459   0.000641   0.007055  -0.008642
     4  C    0.000004   0.000019   0.000118   0.000657  -0.000672   0.005306
     5  C    0.000000  -0.000007   0.000008  -0.000012   0.000043  -0.001017
     6  H    0.000000   0.000000   0.000000   0.000000   0.004161  -0.001227
     7  H    0.000002   0.000001  -0.000009   0.000000  -0.004632   0.006143
     8  H    0.000006   0.000051  -0.000329   0.003035   0.000013   0.000249
     9  H    0.000000  -0.000001   0.000012  -0.000074   0.000201   0.002086
    10  O    0.000000   0.000000   0.000000  -0.000003   0.000006   0.003251
    11  O    0.000000   0.000000   0.000000  -0.000074   0.000002  -0.000119
    12  C    0.000003   0.000000   0.000000   0.000000   0.000034   0.000425
    13  C    0.000000   0.000000   0.000000   0.000000  -0.000103  -0.000005
    14  C    0.000000   0.000000   0.000002   0.000002   0.387432   0.383344
    15  O    0.001233   0.000756  -0.001920  -0.001405  -0.000135   0.000000
    16  Si  -0.015870  -0.011141  -0.024947  -0.027061   0.000015  -0.000060
    17  C    0.000253   0.364049   0.370425   0.368653   0.000000   0.000000
    18  C    0.000611  -0.000028   0.002125  -0.000803   0.000000  -0.000001
    19  C    0.362432  -0.000500  -0.000266   0.002405   0.000000   0.000000
    20  H    0.000535   0.000497  -0.000045   0.000044   0.000000   0.000000
    21  H   -0.000087   0.000036  -0.000044   0.000266   0.000000   0.000004
    22  H    0.000046  -0.000067  -0.000091  -0.000025   0.000000   0.000000
    23  H   -0.021517  -0.000098  -0.000071  -0.000087   0.000000   0.000000
    24  H   -0.021972  -0.000045   0.001298  -0.000053   0.000000   0.000000
    25  H    0.461577   0.000597  -0.000060  -0.000074   0.000000   0.000000
    26  H    0.000597   0.443350  -0.021217  -0.020519   0.000000   0.000000
    27  H   -0.000060  -0.021217   0.449443  -0.020550   0.000000   0.000000
    28  H   -0.000074  -0.020519  -0.020550   0.447279   0.000000  -0.000001
    29  H    0.000000   0.000000   0.000000   0.000000   0.454843  -0.026207
    30  H    0.000000   0.000000   0.000000  -0.000001  -0.026207   0.471117
    31  H    0.000000   0.000000  -0.000001   0.000001  -0.023982  -0.025100
    32  H    0.000011   0.000000   0.000002   0.000000  -0.000034  -0.000014
    33  H    0.000002   0.000000   0.000000   0.000000   0.000284  -0.000094
    34  H    0.000000   0.000000   0.000000   0.000000   0.000002   0.000000
    35  H    0.000000   0.000000   0.000000   0.000000  -0.000001  -0.000012
    36  H    0.000000   0.000000   0.000000   0.000000  -0.000022   0.000002
    37  C   -0.000001   0.000309  -0.000835  -0.000384  -0.000071  -0.002058
    38  C    0.000000  -0.000049   0.001217   0.000073  -0.000114   0.000493
    39  C    0.000000  -0.000001   0.000167  -0.000004  -0.000012  -0.000018
    40  H    0.000000   0.000652  -0.001190   0.000627   0.000006  -0.000103
    41  H    0.000000  -0.000006  -0.000037  -0.000099   0.000479  -0.000377
    42  H    0.000002   0.000005   0.000201  -0.000005   0.000020  -0.000003
    43  H    0.000000   0.000000  -0.000002   0.000000  -0.000003   0.000000
    44  H    0.000000   0.000000   0.000001   0.000001   0.000011  -0.000003
              31         32         33         34         35         36
     1  C    0.007692  -0.032446  -0.044930   0.007996  -0.011626  -0.002999
     2  C   -0.034539  -0.007261  -0.004821  -0.000231   0.000347  -0.000302
     3  C   -0.008407   0.001808   0.001794   0.000005   0.000024   0.000010
     4  C   -0.000659  -0.001065  -0.000162   0.000005   0.000379  -0.000016
     5  C   -0.000025   0.001058   0.000094  -0.000015   0.001086  -0.000081
     6  H    0.000598   0.006579  -0.000289  -0.000169  -0.000027   0.005713
     7  H   -0.003801   0.000639   0.001392  -0.000040  -0.000079   0.000054
     8  H   -0.000067   0.000020  -0.000017   0.000000  -0.000020   0.000000
     9  H   -0.000024  -0.000006   0.000012   0.000000  -0.000001   0.000001
    10  O   -0.000221   0.000332   0.004175  -0.000099   0.011563  -0.000411
    11  O    0.000001  -0.000187   0.000002   0.000000   0.000280  -0.000005
    12  C   -0.000388   0.374203   0.388491  -0.036958  -0.037419  -0.040433
    13  C    0.000011  -0.041872  -0.038367   0.391983   0.384251   0.382962
    14  C    0.386697  -0.000111  -0.000430   0.000013  -0.000032  -0.000026
    15  O   -0.000030   0.004958   0.000094  -0.000017   0.000022  -0.000019
    16  Si  -0.000024   0.002709   0.000000   0.000002   0.000094  -0.000045
    17  C    0.000001   0.000035   0.000001   0.000000   0.000000   0.000000
    18  C    0.000000   0.000528  -0.000002   0.000000   0.000075   0.000000
    19  C    0.000000   0.001232   0.000010   0.000001  -0.000002   0.000000
    20  H    0.000000   0.000040   0.000000   0.000000  -0.000001   0.000000
    21  H    0.000000  -0.000193  -0.000017   0.000003  -0.000036  -0.000001
    22  H    0.000000   0.001106   0.000021   0.000007   0.000283  -0.000003
    23  H    0.000000   0.001898   0.000017   0.000012  -0.000001   0.000000
    24  H    0.000000  -0.000072   0.000017   0.000000   0.000000   0.000000
    25  H    0.000000   0.000011   0.000002   0.000000   0.000000   0.000000
    26  H    0.000000   0.000000   0.000000   0.000000   0.000000   0.000000
    27  H   -0.000001   0.000002   0.000000   0.000000   0.000000   0.000000
    28  H    0.000001   0.000000   0.000000   0.000000   0.000000   0.000000
    29  H   -0.023982  -0.000034   0.000284   0.000002  -0.000001  -0.000022
    30  H   -0.025100  -0.000014  -0.000094   0.000000  -0.000012   0.000002
    31  H    0.446113   0.000022  -0.000017   0.000000   0.000001   0.000001
    32  H    0.000022   0.444071  -0.025895  -0.005008  -0.005060   0.007231
    33  H   -0.000017  -0.025895   0.496375  -0.004736   0.007179  -0.005047
    34  H    0.000000  -0.005008  -0.004736   0.474709  -0.025524  -0.027917
    35  H    0.000001  -0.005060   0.007179  -0.025524   0.463687  -0.028342
    36  H    0.000001   0.007231  -0.005047  -0.027917  -0.028342   0.490276
    37  C    0.001447   0.000087   0.000007   0.000000   0.000004   0.000000
    38  C    0.001053  -0.000033  -0.000022   0.000000   0.000000   0.000000
    39  C    0.004463  -0.000001  -0.000005   0.000000   0.000000   0.000000
    40  H    0.000713  -0.000006   0.000001   0.000000   0.000000   0.000000
    41  H   -0.001776  -0.000007   0.000000   0.000000   0.000000   0.000000
    42  H   -0.000018   0.000019   0.000030   0.000000   0.000000   0.000000
    43  H    0.000014   0.000000  -0.000001   0.000000   0.000000   0.000000
    44  H    0.000760   0.000000   0.000000   0.000000   0.000000   0.000000
              37         38         39         40         41         42
     1  C    0.008243  -0.000126  -0.000002  -0.000189  -0.000096  -0.000095
     2  C   -0.082339  -0.015537   0.000398   0.008460  -0.003135  -0.001358
     3  C    0.339278  -0.059142  -0.002911  -0.047364  -0.030605  -0.002504
     4  C   -0.089907   0.009465  -0.000013  -0.006611  -0.002848   0.000149
     5  C    0.004156  -0.000160  -0.000001  -0.000030  -0.000122   0.000003
     6  H   -0.000076  -0.000021  -0.000001   0.000014  -0.000005   0.000002
     7  H   -0.010062   0.010311   0.002295   0.000127  -0.000146   0.000318
     8  H   -0.007239   0.000222   0.000004   0.002217   0.000141   0.000009
     9  H   -0.003625  -0.000127  -0.000062   0.000311   0.000516  -0.000044
    10  O   -0.000377   0.000002   0.000000  -0.000001  -0.000004   0.000000
    11  O   -0.000197   0.000001   0.000000  -0.000022  -0.000003   0.000000
    12  C   -0.000524   0.000026   0.000000  -0.000002  -0.000011   0.000042
    13  C    0.000011   0.000000   0.000000  -0.000001   0.000000   0.000000
    14  C   -0.001113  -0.004395  -0.000867  -0.000060  -0.001675   0.000026
    15  O   -0.059719   0.001095   0.000710  -0.003702   0.004280   0.006409
    16  Si  -0.012139  -0.000970   0.000520  -0.003977   0.001960   0.002532
    17  C   -0.002481   0.000614  -0.000003  -0.002211  -0.000078  -0.000041
    18  C   -0.000222   0.000019   0.000000  -0.000147   0.000016   0.000037
    19  C   -0.000134  -0.000162   0.000002  -0.000041  -0.000005   0.000487
    20  H    0.000003   0.000000   0.000000   0.000009  -0.000001   0.000000
    21  H   -0.000041   0.000002   0.000000  -0.000040   0.000008  -0.000001
    22  H   -0.000017   0.000000   0.000000  -0.000002   0.000003   0.000002
    23  H   -0.000023   0.000000   0.000000  -0.000004   0.000002  -0.000049
    24  H   -0.000029   0.000184  -0.000007  -0.000028  -0.000001   0.001296
    25  H   -0.000001   0.000000   0.000000   0.000000   0.000000   0.000002
    26  H    0.000309  -0.000049  -0.000001   0.000652  -0.000006   0.000005
    27  H   -0.000835   0.001217   0.000167  -0.001190  -0.000037   0.000201
    28  H   -0.000384   0.000073  -0.000004   0.000627  -0.000099  -0.000005
    29  H   -0.000071  -0.000114  -0.000012   0.000006   0.000479   0.000020
    30  H   -0.002058   0.000493  -0.000018  -0.000103  -0.000377  -0.000003
    31  H    0.001447   0.001053   0.004463   0.000713  -0.001776  -0.000018
    32  H    0.000087  -0.000033  -0.000001  -0.000006  -0.000007   0.000019
    33  H    0.000007  -0.000022  -0.000005   0.000001   0.000000   0.000030
    34  H    0.000000   0.000000   0.000000   0.000000   0.000000   0.000000
    35  H    0.000004   0.000000   0.000000   0.000000   0.000000   0.000000
    36  H    0.000000   0.000000   0.000000   0.000000   0.000000   0.000000
    37  C    5.414203   0.323558  -0.056364   0.399110   0.390204  -0.046113
    38  C    0.323558   5.069711   0.619318  -0.039168  -0.048769   0.393959
    39  C   -0.056364   0.619318   5.144572  -0.002354   0.001991  -0.039208
    40  H    0.399110  -0.039168  -0.002354   0.454188  -0.027124  -0.001080
    41  H    0.390204  -0.048769   0.001991  -0.027124   0.461968   0.004853
    42  H   -0.046113   0.393959  -0.039208  -0.001080   0.004853   0.454555
    43  H    0.006217  -0.039072   0.393827  -0.000323   0.000147  -0.007637
    44  H   -0.008973  -0.040636   0.387807   0.000145   0.004296   0.005822
              43         44
     1  C   -0.000001   0.000001
     2  C    0.000013  -0.000115
     3  C   -0.000358   0.000314
     4  C    0.000014  -0.000062
     5  C    0.000000   0.000001
     6  H    0.000000   0.000000
     7  H    0.000075  -0.000062
     8  H    0.000000  -0.000001
     9  H    0.000001  -0.000010
    10  O    0.000000   0.000000
    11  O    0.000000   0.000000
    12  C    0.000000   0.000000
    13  C    0.000000   0.000000
    14  C    0.000062   0.000038
    15  O    0.000017  -0.000010
    16  Si   0.000012  -0.000003
    17  C    0.000000  -0.000001
    18  C    0.000000   0.000000
    19  C   -0.000001   0.000000
    20  H    0.000000   0.000000
    21  H    0.000000   0.000000
    22  H    0.000000   0.000000
    23  H    0.000000   0.000000
    24  H   -0.000004   0.000001
    25  H    0.000000   0.000000
    26  H    0.000000   0.000000
    27  H   -0.000002   0.000001
    28  H    0.000000   0.000001
    29  H   -0.000003   0.000011
    30  H    0.000000  -0.000003
    31  H    0.000014   0.000760
    32  H    0.000000   0.000000
    33  H   -0.000001   0.000000
    34  H    0.000000   0.000000
    35  H    0.000000   0.000000
    36  H    0.000000   0.000000
    37  C    0.006217  -0.008973
    38  C   -0.039072  -0.040636
    39  C    0.393827   0.387807
    40  H   -0.000323   0.000145
    41  H    0.000147   0.004296
    42  H   -0.007637   0.005822
    43  H    0.453425  -0.033880
    44  H   -0.033880   0.463764
 Mulliken charges:
               1
     1  C   -0.024812
     2  C   -0.297083
     3  C    0.157013
     4  C   -0.629718
     5  C    0.504365
     6  H    0.244116
     7  H    0.261039
     8  H    0.272115
     9  H    0.280906
    10  O   -0.327259
    11  O   -0.392672
    12  C   -0.445447
    13  C   -0.669405
    14  C   -0.681385
    15  O   -0.639499
    16  Si   1.465996
    17  C   -1.087005
    18  C   -1.076824
    19  C   -1.057921
    20  H    0.234100
    21  H    0.251561
    22  H    0.245355
    23  H    0.243103
    24  H    0.240649
    25  H    0.232320
    26  H    0.243398
    27  H    0.246224
    28  H    0.247611
    29  H    0.242669
    30  H    0.235081
    31  H    0.249492
    32  H    0.270684
    33  H    0.224855
    34  H    0.225980
    35  H    0.238909
    36  H    0.219417
    37  C   -0.501770
    38  C   -0.182820
    39  C   -0.454238
    40  H    0.269199
    41  H    0.246067
    42  H    0.227379
    43  H    0.227461
    44  H    0.220792
 Sum of Mulliken charges =   0.00000
 Mulliken charges with hydrogens summed into heavy atoms:
               1
     1  C    0.219304
     2  C   -0.036044
     3  C    0.157013
     4  C   -0.076697
     5  C    0.504365
    10  O   -0.327259
    11  O   -0.392672
    12  C    0.050092
    13  C    0.014901
    14  C    0.045857
    15  O   -0.639499
    16  Si   1.465996
    17  C   -0.349772
    18  C   -0.345808
    19  C   -0.341849
    37  C    0.013496
    38  C    0.044559
    39  C   -0.005984
 Electronic spatial extent (au):  <R**2>=           4990.7149
 Charge=              0.0000 electrons
 Dipole moment (field-independent basis, Debye):
    X=             -3.0393    Y=              3.3761    Z=              2.2591  Tot=              5.0734
 Quadrupole moment (field-independent basis, Debye-Ang):
   XX=           -124.7356   YY=           -115.2456   ZZ=           -123.5439
   XY=              9.7833   XZ=              9.5085   YZ=             -7.2376
 Traceless Quadrupole moment (field-independent basis, Debye-Ang):
   XX=             -3.5606   YY=              5.9295   ZZ=             -2.3688
   XY=              9.7833   XZ=              9.5085   YZ=             -7.2376
 Octapole moment (field-independent basis, Debye-Ang**2):
  XXX=              0.8475  YYY=              7.4832  ZZZ=             11.2054  XYY=            -11.1238
  XXY=             10.5055  XXZ=             24.4350  XZZ=            -12.4928  YZZ=             21.7146
  YYZ=              5.7625  XYZ=            -16.3061
 Hexadecapole moment (field-independent basis, Debye-Ang**3):
 XXXX=          -3007.0794 YYYY=          -2542.4788 ZZZZ=          -1337.3933 XXXY=             78.3666
 XXXZ=              4.7851 YYYX=             11.7871 YYYZ=            -13.4741 ZZZX=             37.1939
 ZZZY=            -29.8570 XXYY=           -900.3524 XXZZ=           -733.2821 YYZZ=           -662.8754
 XXYZ=             -2.1858 YYXZ=              8.2397 ZZXY=             16.2477
 N-N= 1.658683383176D+03 E-N=-5.812801316950D+03  KE= 1.060527079031D+03
 1\1\GINC-CPU-E-609\SP\RmPW1PW91\6-311G(d)\C14H26O3Si1\KE291\06-Feb-201
 9\0\\# mPW1PW91/6-311g(d) geom=checkpoint nmr=giao scrf=(solvent=chlor
 oform)\\P_ng_2ginp017\\0,1\C,0,-0.1288001181,0.2645731293,0.9869364556
 \C,0,-1.6474303952,-0.0036122854,1.1156997292\C,0,-2.3811268302,1.1540
 034992,1.8441671871\C,0,-1.7087052672,1.3689894449,3.2051652544\C,0,-0
 .2021080249,1.5152893532,3.1505515822\H,0,0.3814667969,-0.7054172539,0
 .9606562318\H,0,-2.0491465608,-0.0269023764,0.0970607281\H,0,-2.106664
 0371,2.2462635181,3.7201414036\H,0,-1.9156863784,0.513153176,3.8588449
 531\O,0,0.4724769394,0.9122330728,2.1571536959\O,0,0.4230089063,2.1130
 864563,4.0045901839\C,0,0.3057577336,1.0461844699,-0.2566643367\C,0,1.
 8259608631,1.1511612823,-0.4083923242\C,0,-1.8897087416,-1.3875176201,
 1.7465197144\O,0,-2.2302157418,2.3108513981,1.0144814271\Si,0,-2.43647
 83354,3.9756260417,1.1941172192\C,0,-3.9360081833,4.4351786751,2.24806
 95317\C,0,-0.8879679532,4.760159353,1.9290314724\C,0,-2.6926830891,4.5
 874669447,-0.5667121269\H,0,-1.0263803995,5.843822091,2.0214772319\H,0
 ,-0.6444970221,4.3679034974,2.9208238142\H,0,-0.0178107408,4.591133462
 2,1.2856866068\H,0,-1.8498926787,4.3111503578,-1.2088029728\H,0,-3.602
 2966774,4.1648838935,-1.0062357169\H,0,-2.7854226596,5.6791105992,-0.5
 886234166\H,0,-4.0360692055,5.527130243,2.2625574418\H,0,-4.8658910118
 ,4.0262808497,1.8397026618\H,0,-3.8479617502,4.1064454287,3.2888924639
 \H,0,-1.3759614356,-2.1534363149,1.1575951261\H,0,-1.5023354956,-1.452
 0913243,2.7688156275\H,0,-2.9495219232,-1.6480415098,1.76315852\H,0,-0
 .151250538,2.037854414,-0.235103611\H,0,-0.1160299471,0.5235152257,-1.
 1245485196\H,0,2.0861325895,1.6913273364,-1.3238844165\H,0,2.271328108
 6,1.6822752329,0.4369359277\H,0,2.2901724754,0.1595535926,-0.463143528
 2\C,0,-3.8921043874,0.868639072,2.0427210072\C,0,-4.6458298052,0.61619
 91208,0.7657959285\C,0,-5.4730300292,-0.4098595467,0.5585276982\H,0,-4
 .3142025523,1.7472309764,2.5463421513\H,0,-4.0266133798,0.0283500416,2
 .7307793698\H,0,-4.4942961635,1.3473226698,-0.0266287463\H,0,-6.006057
 6677,-0.5315612469,-0.3799467284\H,0,-5.6557532863,-1.1622334409,1.322
 8410978\\Version=ES64L-G09RevD.01\State=1-A\HF=-1064.3820218\RMSD=8.54
 8e-09\Dipole=-1.6067386,-0.6789939,-0.9703022\Quadrupole=-6.1645841,8.
 777404,-2.6128199,-1.7024324,-8.9138693,-1.8209348\PG=C01 [X(C14H26O3S
 i1)]\\@


 Everywhere is walking distance if you have the time.
                                    -- Steven Wright
 Job cpu time:       0 days  0 hours 19 minutes 46.5 seconds.
 File lengths (MBytes):  RWF=    235 Int=      0 D2E=      0 Chk=     19 Scr=      1
 Normal termination of Gaussian 09 at Wed Feb  6 11:44:32 2019.
