 Entering Gaussian System, Link 0=/usr/local/Cluster-Apps/gaussian/g09/g09
 Initial command:
 /usr/local/Cluster-Apps/gaussian/g09/l1.exe "/home/ke291/rds/hpc-work/06Feb0927IP1/Gau-177084.inp" -scrdir="/home/ke291/rds/hpc-work/06Feb0927IP1/"
 Entering Link 1 = /usr/local/Cluster-Apps/gaussian/g09/l1.exe PID=    177089.
  
 Copyright (c) 1988,1990,1992,1993,1995,1998,2003,2009,2013,
            Gaussian, Inc.  All Rights Reserved.
  
 This is part of the Gaussian(R) 09 program.  It is based on
 the Gaussian(R) 03 system (copyright 2003, Gaussian, Inc.),
 the Gaussian(R) 98 system (copyright 1998, Gaussian, Inc.),
 the Gaussian(R) 94 system (copyright 1995, Gaussian, Inc.),
 the Gaussian 92(TM) system (copyright 1992, Gaussian, Inc.),
 the Gaussian 90(TM) system (copyright 1990, Gaussian, Inc.),
 the Gaussian 88(TM) system (copyright 1988, Gaussian, Inc.),
 the Gaussian 86(TM) system (copyright 1986, Carnegie Mellon
 University), and the Gaussian 82(TM) system (copyright 1983,
 Carnegie Mellon University). Gaussian is a federally registered
 trademark of Gaussian, Inc.
  
 This software contains proprietary and confidential information,
 including trade secrets, belonging to Gaussian, Inc.
  
 This software is provided under written license and may be
 used, copied, transmitted, or stored only in accord with that
 written license.
  
 The following legend is applicable only to US Government
 contracts under FAR:
  
                    RESTRICTED RIGHTS LEGEND
  
 Use, reproduction and disclosure by the US Government is
 subject to restrictions as set forth in subparagraphs (a)
 and (c) of the Commercial Computer Software - Restricted
 Rights clause in FAR 52.227-19.
  
 Gaussian, Inc.
 340 Quinnipiac St., Bldg. 40, Wallingford CT 06492
  
  
 ---------------------------------------------------------------
 Warning -- This program may not be used in any manner that
 competes with the business of Gaussian, Inc. or will provide
 assistance to any competitor of Gaussian, Inc.  The licensee
 of this program is prohibited from giving any competitor of
 Gaussian, Inc. access to this program.  By using this program,
 the user acknowledges that Gaussian, Inc. is engaged in the
 business of creating and licensing software in the field of
 computational chemistry and represents and warrants to the
 licensee that it is not a competitor of Gaussian, Inc. and that
 it will not use this program in any manner prohibited above.
 ---------------------------------------------------------------
  

 Cite this work as:
 Gaussian 09, Revision D.01,
 M. J. Frisch, G. W. Trucks, H. B. Schlegel, G. E. Scuseria, 
 M. A. Robb, J. R. Cheeseman, G. Scalmani, V. Barone, B. Mennucci, 
 G. A. Petersson, H. Nakatsuji, M. Caricato, X. Li, H. P. Hratchian, 
 A. F. Izmaylov, J. Bloino, G. Zheng, J. L. Sonnenberg, M. Hada, 
 M. Ehara, K. Toyota, R. Fukuda, J. Hasegawa, M. Ishida, T. Nakajima, 
 Y. Honda, O. Kitao, H. Nakai, T. Vreven, J. A. Montgomery, Jr., 
 J. E. Peralta, F. Ogliaro, M. Bearpark, J. J. Heyd, E. Brothers, 
 K. N. Kudin, V. N. Staroverov, T. Keith, R. Kobayashi, J. Normand, 
 K. Raghavachari, A. Rendell, J. C. Burant, S. S. Iyengar, J. Tomasi, 
 M. Cossi, N. Rega, J. M. Millam, M. Klene, J. E. Knox, J. B. Cross, 
 V. Bakken, C. Adamo, J. Jaramillo, R. Gomperts, R. E. Stratmann, 
 O. Yazyev, A. J. Austin, R. Cammi, C. Pomelli, J. W. Ochterski, 
 R. L. Martin, K. Morokuma, V. G. Zakrzewski, G. A. Voth, 
 P. Salvador, J. J. Dannenberg, S. Dapprich, A. D. Daniels, 
 O. Farkas, J. B. Foresman, J. V. Ortiz, J. Cioslowski, 
 and D. J. Fox, Gaussian, Inc., Wallingford CT, 2013.
 
 ******************************************
 Gaussian 09:  ES64L-G09RevD.01 24-Apr-2013
                 6-Feb-2019 
 ******************************************
 %nprocshared=2
 Will use up to    2 processors via shared memory.
 %mem=6000MB
 %chk=/home/ke291/rds/hpc-work/06Feb0927IP1/P_ng_2ginp005.chk
 ----------------------------------------------------------------------
 # mPW1PW91/6-311g(d) geom=checkpoint nmr=giao scrf=(solvent=chloroform
 )
 ----------------------------------------------------------------------
 1/29=2,38=1/1;
 2/12=2,40=1/2;
 3/5=4,6=6,7=1,11=2,14=-4,16=1,25=1,30=1,70=2201,72=7,74=-7/1,2,8,3;
 4//1;
 5/5=2,38=5,53=7/2;
 8/6=1,10=90,11=11/1;
 10/13=100,45=16/2;
 6/7=2,8=2,9=2,10=2,28=1/1;
 99/9=1/99;
 -------------
 P_ng_2ginp005
 -------------
 Structure from the checkpoint file:  "/home/ke291/rds/hpc-work/06Feb0927IP1/P_ng_2ginp005.chk"
 Charge =  0 Multiplicity = 1
 Redundant internal coordinates found in file.
 C,0,-0.0208590907,0.2593758819,1.1370348313
 C,0,-1.0513363601,1.0854972886,0.3460924394
 C,0,-2.3680015019,1.2513278772,1.1795540009
 C,0,-2.0335569636,1.1443144315,2.6960852496
 C,0,-0.6369781589,1.5801831301,3.0646247973
 H,0,-0.4595563566,-0.6890847018,1.4791020793
 H,0,-0.6173900471,2.090065878,0.2866509071
 H,0,-2.755791565,1.696692726,3.2940110369
 H,0,-2.1164760344,0.0918755712,2.9947979396
 O,0,0.3513833294,1.0349753923,2.320921279
 O,0,-0.3556423948,2.3359593053,3.9728546097
 C,0,1.2870749903,-0.0367945164,0.4085118566
 C,0,2.3065844578,-0.789770746,1.2693426391
 C,0,-1.277035913,0.6026457716,-1.0919155628
 O,0,-2.970067288,2.5013939024,0.8503031587
 Si,0,-2.7542040088,4.1248762908,1.2520225562
 C,0,-3.2079449876,4.4648484684,3.050930449
 C,0,-0.9913289724,4.7256321973,0.9404470038
 C,0,-3.9448702181,5.0123536903,0.0978546355
 H,0,-0.9438908334,5.8059988561,1.123123214
 H,0,-0.2616282807,4.2541328569,1.6063771355
 H,0,-0.6749367297,4.5531489537,-0.093737677
 H,0,-4.9749707335,4.6754558287,0.2535075773
 H,0,-3.9165699213,6.0940453478,0.2702677225
 H,0,-3.6875456663,4.833124584,-0.9512082655
 H,0,-4.2011079744,4.0759694362,3.3002288037
 H,0,-2.4814756807,4.0285684348,3.7435510159
 H,0,-3.2231375975,5.5472522277,3.2259707105
 H,0,-2.0604193936,1.1983311263,-1.5682303474
 H,0,-0.3686605866,0.7219920456,-1.6872350199
 H,0,-1.5733758703,-0.4498881407,-1.1407008184
 H,0,1.714919032,0.909481349,0.0547215765
 H,0,1.0515974725,-0.6315849864,-0.4800192563
 H,0,3.2151740397,-0.9954056896,0.6957744325
 H,0,2.5847668418,-0.2088156153,2.1519523747
 H,0,1.9027549819,-1.7496861723,1.6106052332
 C,0,-3.4293815866,0.1745888363,0.8314692397
 C,0,-4.6636644329,0.23185613,1.6883384416
 C,0,-5.1399800145,-0.7851612962,2.4082599804
 H,0,-2.9757478507,-0.8212926245,0.9018848921
 H,0,-3.7174501731,0.3302362846,-0.2139653756
 H,0,-5.1926626911,1.183455045,1.6896379791
 H,0,-6.047795418,-0.6914441993,2.9971445159
 H,0,-4.6442758492,-1.753442457,2.4290570088
 Recover connectivity data from disk.
                          Input orientation:                          
 ---------------------------------------------------------------------
 Center     Atomic      Atomic             Coordinates (Angstroms)
 Number     Number       Type             X           Y           Z
 ---------------------------------------------------------------------
      1          6           0       -0.020859    0.259376    1.137035
      2          6           0       -1.051336    1.085497    0.346092
      3          6           0       -2.368002    1.251328    1.179554
      4          6           0       -2.033557    1.144314    2.696085
      5          6           0       -0.636978    1.580183    3.064625
      6          1           0       -0.459556   -0.689085    1.479102
      7          1           0       -0.617390    2.090066    0.286651
      8          1           0       -2.755792    1.696693    3.294011
      9          1           0       -2.116476    0.091876    2.994798
     10          8           0        0.351383    1.034975    2.320921
     11          8           0       -0.355642    2.335959    3.972855
     12          6           0        1.287075   -0.036795    0.408512
     13          6           0        2.306584   -0.789771    1.269343
     14          6           0       -1.277036    0.602646   -1.091916
     15          8           0       -2.970067    2.501394    0.850303
     16         14           0       -2.754204    4.124876    1.252023
     17          6           0       -3.207945    4.464848    3.050930
     18          6           0       -0.991329    4.725632    0.940447
     19          6           0       -3.944870    5.012354    0.097855
     20          1           0       -0.943891    5.805999    1.123123
     21          1           0       -0.261628    4.254133    1.606377
     22          1           0       -0.674937    4.553149   -0.093738
     23          1           0       -4.974971    4.675456    0.253508
     24          1           0       -3.916570    6.094045    0.270268
     25          1           0       -3.687546    4.833125   -0.951208
     26          1           0       -4.201108    4.075969    3.300229
     27          1           0       -2.481476    4.028568    3.743551
     28          1           0       -3.223138    5.547252    3.225971
     29          1           0       -2.060419    1.198331   -1.568230
     30          1           0       -0.368661    0.721992   -1.687235
     31          1           0       -1.573376   -0.449888   -1.140701
     32          1           0        1.714919    0.909481    0.054722
     33          1           0        1.051597   -0.631585   -0.480019
     34          1           0        3.215174   -0.995406    0.695774
     35          1           0        2.584767   -0.208816    2.151952
     36          1           0        1.902755   -1.749686    1.610605
     37          6           0       -3.429382    0.174589    0.831469
     38          6           0       -4.663664    0.231856    1.688338
     39          6           0       -5.139980   -0.785161    2.408260
     40          1           0       -2.975748   -0.821293    0.901885
     41          1           0       -3.717450    0.330236   -0.213965
     42          1           0       -5.192663    1.183455    1.689638
     43          1           0       -6.047795   -0.691444    2.997145
     44          1           0       -4.644276   -1.753442    2.429057
 ---------------------------------------------------------------------
                    Distance matrix (angstroms):
                    1          2          3          4          5
     1  C    0.000000
     2  C    1.539464   0.000000
     3  C    2.548500   1.567088   0.000000
     4  C    2.695312   2.547682   1.556654   0.000000
     5  C    2.416555   2.794070   2.580325   1.508720   0.000000
     6  H    1.099565   2.187020   2.738082   2.705527   2.773975
     7  H    2.104858   1.095902   2.136679   2.950483   2.824447
     8  H    3.768061   3.459617   2.195372   1.088237   2.134376
     9  H    2.805521   3.022821   2.168572   1.097147   2.099726
    10  O    1.463457   2.422834   2.957124   2.416742   1.351741
    11  O    3.530744   3.898852   3.609507   2.421891   1.214590
    12  C    1.526157   2.594533   3.951373   4.201739   3.656711
    13  C    2.556405   3.955332   5.101559   4.961160   4.183812
    14  C    2.581479   1.533608   2.602032   3.900600   4.317648
    15  O    3.715735   2.437318   1.426027   2.475001   3.345916
    16  Si   4.735662   3.599763   2.900290   3.389454   3.774074
    17  C    5.613066   4.836024   3.812384   3.539922   3.864111
    18  C    4.574703   3.688826   3.744755   4.122419   3.812026
    19  C    6.250485   4.884093   4.219230   5.036432   5.614594
    20  H    5.622918   4.785233   4.772453   5.039135   4.660595
    21  H    4.029434   3.500315   3.692672   3.741412   3.068775
    22  H    4.514322   3.515642   3.922979   4.609676   4.337651
    23  H    6.695193   5.318955   4.402102   5.204523   6.025054
    24  H    7.069032   5.770690   5.164957   5.824960   6.240121
    25  H    6.222903   4.762069   4.371569   5.444791   6.001209
    26  H    6.059726   5.252705   3.979465   3.695655   4.357463
    27  H    5.201478   4.716958   3.781537   3.101086   3.139698
    28  H    6.525326   5.737393   4.834671   4.591486   4.738343
    29  H    3.515665   2.166936   2.765454   4.264742   4.861619
    30  H    2.882964   2.175455   3.534974   4.707837   4.836182
    31  H    2.846303   2.200111   2.984820   4.180212   4.762646
    32  H    2.146384   2.787122   4.248805   4.591625   3.878244
    33  H    2.135144   2.837810   4.241839   4.770706   4.506407
    34  H    3.498728   4.759784   6.037690   6.010726   5.204247
    35  H    2.835233   4.261176   5.254283   4.843135   3.796463
    36  H    2.821505   4.285314   5.237485   5.004804   4.433108
    37  C    3.423242   2.592382   1.551470   2.522992   3.841900
    38  C    4.675504   3.947055   2.562860   2.960675   4.463894
    39  C    5.377032   4.946605   3.652516   3.668185   5.128615
    40  H    3.155076   2.765522   2.177662   2.823206   3.989282
    41  H    3.936370   2.827056   2.147398   3.459279   4.669136
    42  H    5.282693   4.354916   2.871150   3.315783   4.775169
    43  H    6.378717   5.928761   4.540802   4.424337   5.868713
    44  H    5.205453   5.030659   3.971313   3.909495   5.251232
                    6          7          8          9         10
     6  H    0.000000
     7  H    3.028288   0.000000
     8  H    3.776046   3.711027   0.000000
     9  H    2.377523   3.684302   1.753194   0.000000
    10  O    2.082946   2.487970   3.322546   2.726514   0.000000
    11  O    3.921797   3.703657   2.574919   3.015467   2.218407
    12  C    2.149969   2.857512   5.260784   4.276633   2.383594
    13  C    2.775909   4.220044   5.992448   4.828867   2.873731
    14  C    2.991149   2.132603   4.756050   4.203186   3.806063
    15  O    4.108188   2.453973   2.581698   3.336653   3.917287
    16  Si   5.337714   3.104572   3.172664   4.439488   4.509402
    17  C    6.048745   4.471220   2.815354   4.507477   4.996575
    18  C    5.467366   2.741075   4.222211   5.192111   4.162876
    19  C    6.823610   4.432554   4.756357   5.995533   6.262536
    20  H    6.522838   3.822885   4.988200   6.126118   5.086759
    21  H    4.948815   2.559576   3.950881   4.763671   3.354002
    22  H    5.477338   2.492947   4.895522   5.614272   4.388788
    23  H    7.118240   5.066937   4.800255   6.057629   6.774758
    24  H    7.708636   5.188131   5.461423   6.832968   6.929271
    25  H    6.842596   4.299130   5.359781   6.365427   6.437835
    26  H    6.326251   5.086108   2.783871   4.506882   5.561642
    27  H    5.610003   4.379813   2.390602   4.023855   4.360111
    28  H    7.041366   5.232749   3.879414   5.571290   5.827260
    29  H    3.925727   2.513585   4.936932   4.695595   4.579190
    30  H    3.467721   2.414481   5.609033   5.037195   4.084328
    31  H    2.856777   3.066367   5.066812   4.206045   4.229934
    32  H    3.051658   2.624355   5.576733   4.898175   2.647761
    33  H    2.474884   3.283395   5.844689   4.757567   3.333615
    34  H    3.769758   4.937212   7.046322   5.907130   3.868442
    35  H    3.154566   4.360965   5.784187   4.785654   2.561946
    36  H    2.592814   4.779925   6.034355   4.632662   3.265830
    37  C    3.159940   3.445747   2.972312   2.531907   4.153663
    38  C    4.308879   4.667977   2.892042   2.866112   5.118190
    39  C    4.772728   5.763851   3.553661   3.202311   5.785810
    40  H    2.584933   3.796890   3.480072   2.439776   4.065612
    41  H    3.810428   3.599721   3.885600   3.593897   4.845381
    42  H    5.094411   4.870671   2.962392   3.515382   5.581847
    43  H    5.790758   6.676292   4.077820   4.008599   6.662379
    44  H    4.421216   5.964752   4.027152   3.180414   5.722200
                   11         12         13         14         15
    11  O    0.000000
    12  C    4.586177   0.000000
    13  C    4.915955   1.532123   0.000000
    14  C    5.431872   3.038886   4.511840   0.000000
    15  O    4.075894   4.976027   6.233010   3.200596   0.000000
    16  Si   4.044286   5.861992   7.054476   4.481314   1.686319
    17  C    3.676648   6.888568   7.822731   5.983995   2.958800
    18  C    3.912816   5.306109   6.434600   4.605556   2.978383
    19  C    5.921256   7.277613   8.609165   5.289463   2.796666
    20  H    4.528596   6.294928   7.354668   5.665004   3.885902
    21  H    3.047695   4.716505   5.670121   4.652440   3.313515
    22  H    4.642742   5.016904   6.268512   4.118903   3.220021
    23  H    6.375342   7.838530   9.160877   5.663274   3.017010
    24  H    6.364948   8.042651   9.333420   6.243249   3.760246
    25  H    6.448551   7.093081   8.513366   4.871068   3.032686
    26  H    4.274069   7.442917   8.375559   6.317049   3.161785
    27  H    2.727026   6.469284   7.229358   6.047260   3.307849
    28  H    4.369527   7.711139   8.635049   6.846940   3.871058
    29  H    5.907968   4.079064   5.574504   1.093346   2.893914
    30  H    5.885718   2.776576   4.264237   1.092609   4.046318
    31  H    5.949140   3.279159   4.580166   1.094543   3.824253
    32  H    4.655516   1.097113   2.170905   3.218807   5.011610
    33  H    5.533058   1.094857   2.158769   2.705601   5.268691
    34  H    5.881154   2.172331   1.093984   5.092107   7.106947
    35  H    4.293899   2.180179   1.092655   5.108294   6.316305
    36  H    5.231929   2.181304   1.095891   4.790423   6.511078
    37  C    4.897724   4.740099   5.832926   2.918087   2.371781
    38  C    5.310868   6.092736   7.057170   4.397334   2.953198
    39  C    5.922773   6.772450   7.533158   5.394402   4.235233
    40  H    5.124846   4.362398   5.295192   2.981353   3.323092
    41  H    5.731853   5.056428   6.304253   2.607801   2.530845
    42  H    5.471573   6.716941   7.765885   4.838028   2.716869
    43  H    6.520567   7.805761   8.531743   6.415234   4.927023
    44  H    6.123634   6.496954   7.112528   5.411719   4.837259
                   16         17         18         19         20
    16  Si   0.000000
    17  C    1.886142   0.000000
    18  C    1.888310   3.071732   0.000000
    19  C    1.880799   3.092487   3.084733   0.000000
    20  H    2.473868   3.262065   1.096728   3.269086   0.000000
    21  H    2.520954   3.288148   1.094640   4.051766   1.762755
    22  H    2.513531   4.038919   1.095168   3.307573   1.767122
    23  H    2.496392   3.315465   4.042747   1.094913   4.275975
    24  H    2.488486   3.299775   3.298292   1.095712   3.105987
    25  H    2.495389   4.047562   3.295375   1.094930   3.574490
    26  H    2.508201   1.095331   4.036498   3.346293   4.282786
    27  H    2.508260   1.094450   3.250204   4.049748   3.519953
    28  H    2.477806   1.096571   3.298431   3.254554   3.111894
    29  H    4.123085   5.772659   4.458505   4.568781   5.451662
    30  H    5.090155   6.672385   4.829240   5.863704   5.837476
    31  H    5.296032   6.663049   5.608562   6.082277   6.682610
    32  H    5.634302   6.771447   4.761438   6.990611   5.673327
    33  H    6.333089   7.522296   5.906865   7.559939   6.927808
    34  H    7.884172   8.753148   7.105266   9.365731   7.983705
    35  H    6.935082   7.497120   6.213291   8.609070   7.048965
    36  H    7.505087   8.173997   7.124225   9.066880   8.088845
    37  C    4.029578   4.835429   5.164104   4.920151   6.162427
    38  C    4.357983   4.679103   5.851445   5.089151   6.725121
    39  C    5.580079   5.631020   7.052278   6.354325   7.918468
    40  H    4.963493   5.711007   5.891331   5.968006   6.935300
    41  H    4.180461   5.292840   5.299425   4.697997   6.282071
    42  H    3.845718   4.069369   5.546126   4.330268   6.304039
    43  H    6.090167   5.886850   7.690421   6.735094   8.472223
    44  H    6.285890   6.412247   7.585406   7.190248   8.517245
                   21         22         23         24         25
    21  H    0.000000
    22  H    1.775000   0.000000
    23  H    4.921724   4.315765   0.000000
    24  H    4.304540   3.607637   1.769997   0.000000
    25  H    4.314323   3.144750   1.770216   1.770417   0.000000
    26  H    4.291897   4.917377   3.200118   3.651610   4.348764
    27  H    3.089679   4.273588   4.337786   4.288285   4.913520
    28  H    3.614662   4.301399   3.558720   3.084803   4.263153
    29  H    4.759381   3.917715   4.889145   5.549179   4.029886
    30  H    4.830668   4.160625   6.372947   6.728925   5.334618
    31  H    5.603118   5.189769   6.307441   7.092563   5.693491
    32  H    4.183428   4.360019   7.679629   7.657665   6.752296
    33  H    5.472463   5.478284   8.063639   8.395220   7.248762
    34  H    6.361997   6.822225   9.971597  10.064946   9.183238
    35  H    5.321421   6.192342   9.198360   9.248469   8.625119
    36  H    6.382039   7.019616   9.509326   9.858254   9.008204
    37  C    5.222818   5.254975   4.793818   5.965925   4.994651
    38  C    5.963501   6.144861   4.679875   6.077363   5.393671
    39  C    7.059449   7.395550   5.872693   7.306930   6.705276
    40  H    5.798508   5.930398   5.884856   7.007566   5.992749
    41  H    5.536544   5.206182   4.547617   5.787541   4.562940
    42  H    5.809569   5.911439   3.782054   5.268484   4.749688
    43  H    7.737745   8.119539   6.122264   7.617142   7.188959
    44  H    7.481668   7.867226   6.795080   8.171474   7.464877
                   26         27         28         29         30
    26  H    0.000000
    27  H    1.776490   0.000000
    28  H    1.768223   1.767584   0.000000
    29  H    6.046920   6.033453   6.576427   0.000000
    30  H    7.128226   6.700065   7.454580   1.761564   0.000000
    31  H    6.863688   6.688582   7.599686   1.771050   1.767298
    32  H    7.453814   6.398898   7.479983   4.119537   2.722291
    33  H    8.002641   7.213749   8.377694   3.770603   2.303622
    34  H    9.354318   8.184197   9.521561   6.145737   4.633795
    35  H    8.107158   6.793778   8.247278   6.115356   4.932393
    36  H    8.605245   7.560368   9.062532   5.873887   4.705770
    37  C    4.680930   4.922591   5.885719   2.946297   4.001442
    38  C    4.193967   4.837445   5.717768   4.279743   5.484687
    39  C    5.030674   5.658855   6.666513   5.406516   6.466071
    40  H    5.588984   5.642741   6.783874   3.319364   3.985244
    41  H    5.158876   5.555828   6.268553   2.309410   3.679455
    42  H    3.455984   4.434384   5.028128   4.519389   5.906540
    43  H    5.121557   5.962741   6.852181   6.349257   7.496251
    44  H    5.910785   6.311676   7.480297   5.600677   6.430593
                   31         32         33         34         35
    31  H    0.000000
    32  H    3.753639   0.000000
    33  H    2.712932   1.760917   0.000000
    34  H    5.157562   2.508049   2.489160   0.000000
    35  H    5.309410   2.530929   3.075161   1.771042   0.000000
    36  H    4.619810   3.086621   2.518994   1.768700   1.769881
    37  C    2.779242   5.254259   4.738047   6.748142   6.169332
    38  C    4.244776   6.619230   6.173453   8.035387   7.276598
    39  C    5.042638   7.443158   6.833840   8.531436   7.750457
    40  H    2.505343   5.071057   4.262060   6.196798   5.732113
    41  H    2.462618   5.469767   4.872340   7.116617   6.753228
    42  H    4.876255   7.103710   6.855113   8.742249   7.914579
    43  H    6.099225   8.454617   7.905418   9.549414   8.687256
    44  H    4.885985   7.291638   6.493401   8.083925   7.397413
                   36         37         38         39         40
    36  H    0.000000
    37  C    5.722025   0.000000
    38  C    6.859331   1.503648   0.000000
    39  C    7.153089   2.516652   1.333975   0.000000
    40  H    5.016372   1.096596   2.139321   2.637114   0.000000
    41  H    6.264331   1.095510   2.126913   3.184928   1.766710
    42  H    7.678184   2.205317   1.088752   2.096340   3.091000
    43  H    8.139633   3.506601   2.116902   1.086138   3.720813
    44  H    6.597991   2.783085   2.119068   1.087991   2.446455
                   41         42         43         44
    41  H    0.000000
    42  H    2.554983   0.000000
    43  H    4.097019   2.440507   0.000000
    44  H    3.490887   3.077797   1.849441   0.000000
 Stoichiometry    C14H26O3Si
 Framework group  C1[X(C14H26O3Si)]
 Deg. of freedom   126
 Full point group                 C1      NOp   1
 Largest Abelian subgroup         C1      NOp   1
 Largest concise Abelian subgroup C1      NOp   1
                         Standard orientation:                         
 ---------------------------------------------------------------------
 Center     Atomic      Atomic             Coordinates (Angstroms)
 Number     Number       Type             X           Y           Z
 ---------------------------------------------------------------------
      1          6           0       -2.311951   -0.038101   -0.186586
      2          6           0       -1.029159    0.034611   -1.034588
      3          6           0        0.095183    0.796286   -0.252621
      4          6           0       -0.158452    0.658320    1.277022
      5          6           0       -0.887212   -0.598778    1.683039
      6          1           0       -2.605899    0.961617    0.164414
      7          1           0       -0.681831   -1.002417   -1.104863
      8          1           0        0.773059    0.733931    1.834544
      9          1           0       -0.787857    1.496950    1.599949
     10          8           0       -2.017771   -0.858471    0.989066
     11          8           0       -0.550852   -1.344734    2.580613
     12          6           0       -3.512420   -0.696658   -0.860626
     13          6           0       -4.735100   -0.816073    0.054905
     14          6           0       -1.247351    0.538330   -2.466583
     15          8           0        1.363762    0.269225   -0.635332
     16         14           0        2.307019   -1.079669   -0.268696
     17          6           0        2.949580   -1.020913    1.503645
     18          6           0        1.387071   -2.707327   -0.533536
     19          6           0        3.733886   -0.946845   -1.486815
     20          1           0        2.082478   -3.540921   -0.377514
     21          1           0        0.559231   -2.842683    0.169740
     22          1           0        0.991812   -2.795343   -1.551090
     23          1           0        4.279747   -0.006374   -1.358815
     24          1           0        4.443934   -1.768657   -1.341755
     25          1           0        3.377299   -0.990374   -2.521138
     26          1           0        3.437344   -0.066154    1.727857
     27          1           0        2.148860   -1.180158    2.232555
     28          1           0        3.692494   -1.814129    1.649780
     29          1           0       -0.288339    0.618163   -2.985553
     30          1           0       -1.867572   -0.160897   -3.032447
     31          1           0       -1.733597    1.518423   -2.498335
     32          1           0       -3.212391   -1.687538   -1.223664
     33          1           0       -3.774270   -0.100912   -1.741100
     34          1           0       -5.571907   -1.273921   -0.480754
     35          1           0       -4.514453   -1.430151    0.931328
     36          1           0       -5.062619    0.168812    0.406628
     37          6           0        0.147418    2.305201   -0.609699
     38          6           0        1.139029    3.092482    0.201384
     39          6           0        0.843618    4.169908    0.930337
     40          1           0       -0.852278    2.741691   -0.497425
     41          1           0        0.419712    2.377982   -1.668331
     42          1           0        2.168160    2.739640    0.159256
     43          1           0        1.605658    4.710447    1.484240
     44          1           0       -0.171000    4.557523    0.993802
 ---------------------------------------------------------------------
 Rotational constants (GHZ):      0.4424057      0.2936182      0.2494787
 Standard basis: 6-311G(d) (5D, 7F)
 There are   428 symmetry adapted cartesian basis functions of A   symmetry.
 There are   410 symmetry adapted basis functions of A   symmetry.
   410 basis functions,   720 primitive gaussians,   428 cartesian basis functions
    74 alpha electrons       74 beta electrons
       nuclear repulsion energy      1637.4083388815 Hartrees.
 NAtoms=   44 NActive=   44 NUniq=   44 SFac= 1.00D+00 NAtFMM=   60 NAOKFM=F Big=F
 Integral buffers will be    131072 words long.
 Raffenetti 2 integral format.
 Two-electron integral symmetry is turned on.
 ------------------------------------------------------------------------------
 Polarizable Continuum Model (PCM)
 =================================
 Model                : PCM (using non-symmetric T matrix).
 Atomic radii         : UFF (Universal Force Field).
 Polarization charges : Total charges.
 Charge compensation  : None.
 Solution method      : On-the-fly selection.
 Cavity type          : Scaled VdW (van der Waals Surface) (Alpha=1.100).
 Cavity algorithm     : GePol (No added spheres)
                        Default sphere list used, NSphG=   44.
                        Lebedev-Laikov grids with approx.  5.0 points / Ang**2.
                        Smoothing algorithm: Karplus/York (Gamma=1.0000).
                        Polarization charges: spherical gaussians, with
                                              point-specific exponents (IZeta= 3).
                        Self-potential: point-specific (ISelfS= 7).
                        Self-field    : sphere-specific E.n sum rule (ISelfD= 2).
 Solvent              : Chloroform, Eps=   4.711300 Eps(inf)=   2.090627
 ------------------------------------------------------------------------------
 One-electron integrals computed using PRISM.
 NBasis=   410 RedAO= T EigKep=  5.62D-04  NBF=   410
 NBsUse=   410 1.00D-06 EigRej= -1.00D+00 NBFU=   410
 ExpMin= 6.54D-02 ExpMax= 6.94D+04 ExpMxC= 2.33D+03 IAcc=2 IRadAn=         4 AccDes= 0.00D+00
 Harris functional with IExCor=  908 and IRadAn=       4 diagonalized for initial guess.
 HarFok:  IExCor=  908 AccDes= 0.00D+00 IRadAn=         4 IDoV= 1 UseB2=F ITyADJ=14
 ICtDFT=  3500011 ScaDFX=  1.000000  1.000000  1.000000  1.000000
 FoFCou: FMM=F IPFlag=           0 FMFlag=      100000 FMFlg1=           0
         NFxFlg=           0 DoJE=T BraDBF=F KetDBF=T FulRan=T
         wScrn=  0.000000 ICntrl=     500 IOpCl=  0 I1Cent=   200000004 NGrid=           0
         NMat0=    1 NMatS0=      1 NMatT0=    0 NMatD0=    1 NMtDS0=    0 NMtDT0=    0
 Petite list used in FoFCou.
 Requested convergence on RMS density matrix=1.00D-08 within 128 cycles.
 Requested convergence on MAX density matrix=1.00D-06.
 Requested convergence on             energy=1.00D-06.
 No special actions if energy rises.
 Inv3:  Mode=1 IEnd=    24917772.
 Iteration    1 A*A^-1 deviation from unit magnitude is 5.55D-15 for   2857.
 Iteration    1 A*A^-1 deviation from orthogonality  is 3.47D-15 for   2874     73.
 Iteration    1 A^-1*A deviation from unit magnitude is 5.33D-15 for   2857.
 Iteration    1 A^-1*A deviation from orthogonality  is 3.07D-10 for   2766   2751.
 Iteration    2 A*A^-1 deviation from unit magnitude is 3.11D-15 for    449.
 Iteration    2 A*A^-1 deviation from orthogonality  is 2.58D-15 for   2601   1208.
 Iteration    2 A^-1*A deviation from unit magnitude is 9.99D-16 for    210.
 Iteration    2 A^-1*A deviation from orthogonality  is 4.39D-16 for   1310    808.
 Error on total polarization charges =  0.01156
 SCF Done:  E(RmPW1PW91) =  -1064.38481292     A.U. after   12 cycles
            NFock= 12  Conv=0.93D-08     -V/T= 2.0036
 DoSCS=F DFT=T ScalE2(SS,OS)=  1.000000  1.000000
 Range of M.O.s used for correlation:     1   410
 NBasis=   410 NAE=    74 NBE=    74 NFC=     0 NFV=     0
 NROrb=    410 NOA=    74 NOB=    74 NVA=   336 NVB=   336
 NEqPCM:  Using equilibrium solvation (IEInf=0, Eps=   4.7113, EpsInf=   2.0906)
          Differentiating once with respect to magnetic field using GIAOs.
          Electric field/nuclear overlap derivatives assumed to be zero.
 FoFJK:  IHMeth= 1 ICntrl=    6127 DoSepK=F KAlg= 0 I1Cent=   0 FoldK=F
 IRaf=         1 NMat=   1 IRICut=       1 DoRegI=T DoRafI=F ISym2E= 0.
          There are     3 degrees of freedom in the 1st order CPHF.  IDoFFX=0 NUNeed=     3.
      3 vectors produced by pass  0 Test12= 8.29D-13 3.33D-08 XBig12= 3.38D+01 1.05D+00.
 AX will form     3 AO Fock derivatives at one time.
      3 vectors produced by pass  1 Test12= 8.29D-13 3.33D-08 XBig12= 6.32D-02 8.70D-02.
      3 vectors produced by pass  2 Test12= 8.29D-13 3.33D-08 XBig12= 4.57D-04 6.58D-03.
      3 vectors produced by pass  3 Test12= 8.29D-13 3.33D-08 XBig12= 1.96D-06 2.77D-04.
      3 vectors produced by pass  4 Test12= 8.29D-13 3.33D-08 XBig12= 5.52D-09 2.75D-05.
      3 vectors produced by pass  5 Test12= 8.29D-13 3.33D-08 XBig12= 2.74D-11 8.90D-07.
      2 vectors produced by pass  6 Test12= 8.29D-13 3.33D-08 XBig12= 9.49D-14 5.08D-08.
 InvSVY:  IOpt=1 It=  1 EMax= 1.78D-15
 Solved reduced A of dimension    20 with     3 vectors.
 Calculating GIAO nuclear magnetic shielding tensors.
 SCF GIAO Magnetic shielding tensor (ppm):
      1  C    Isotropic =   103.9415   Anisotropy =    46.6850
   XX=   102.3746   YX=     6.3370   ZX=     4.3754
   XY=    -3.9913   YY=    90.2345   ZY=   -23.8032
   XZ=    14.9619   YZ=   -25.1313   ZZ=   119.2153
   Eigenvalues:    75.0074   101.7522   135.0648
      2  C    Isotropic =   135.8325   Anisotropy =    25.8217
   XX=   152.9751   YX=     0.4607   ZX=    -2.7851
   XY=    -2.7569   YY=   134.4446   ZY=    -1.7067
   XZ=     2.7188   YZ=     6.6940   ZZ=   120.0779
   Eigenvalues:   119.6566   134.7939   153.0470
      3  C    Isotropic =   105.5165   Anisotropy =    54.6640
   XX=   132.7602   YX=   -20.1619   ZX=    -8.5113
   XY=   -16.5152   YY=    95.9622   ZY=     6.3176
   XZ=    -6.1139   YZ=     7.2357   ZZ=    87.8269
   Eigenvalues:    83.7087    90.8816   141.9591
      4  C    Isotropic =   142.6727   Anisotropy =    21.2550
   XX=   143.3499   YX=     8.4912   ZX=    -4.5275
   XY=     8.6617   YY=   138.2706   ZY=    -8.8468
   XZ=    -6.1095   YZ=    -5.3242   ZZ=   146.3978
   Eigenvalues:   131.3086   139.8669   156.8427
      5  C    Isotropic =     8.0364   Anisotropy =   101.0699
   XX=   -38.8471   YX=   -61.8747   ZX=   -39.8867
   XY=   -53.1186   YY=    20.2635   ZY=     3.7049
   XZ=   -47.1806   YZ=    -6.3757   ZZ=    42.6927
   Eigenvalues:   -85.4206    34.1134    75.4163
      6  H    Isotropic =    28.2973   Anisotropy =     3.5016
   XX=    30.6237   YX=    -0.0130   ZX=     0.4073
   XY=    -0.1949   YY=    28.6819   ZY=     1.0087
   XZ=    -0.1437   YZ=    -0.1727   ZZ=    25.5863
   Eigenvalues:    25.5267    28.7335    30.6317
      7  H    Isotropic =    30.2346   Anisotropy =     7.1583
   XX=    31.8865   YX=    -3.1526   ZX=     1.1233
   XY=    -3.0777   YY=    31.7657   ZY=     0.2265
   XZ=     1.1690   YZ=     0.0742   ZZ=    27.0516
   Eigenvalues:    26.5986    29.0983    35.0068
      8  H    Isotropic =    29.6691   Anisotropy =     4.3514
   XX=    30.2710   YX=    -1.2099   ZX=     2.4788
   XY=    -0.1552   YY=    28.6855   ZY=     0.0170
   XZ=     1.7682   YZ=    -1.6224   ZZ=    30.0509
   Eigenvalues:    28.0049    28.4324    32.5701
      9  H    Isotropic =    29.6959   Anisotropy =     5.2959
   XX=    28.2703   YX=    -0.6485   ZX=    -2.3851
   XY=    -0.5113   YY=    31.1916   ZY=     1.7242
   XZ=    -2.0711   YZ=     2.2766   ZZ=    29.6258
   Eigenvalues:    26.4848    29.3764    33.2265
     10  O    Isotropic =    77.7815   Anisotropy =   179.6179
   XX=   165.9793   YX=    26.8242   ZX=   -53.2494
   XY=    -6.9526   YY=    55.9432   ZY=   147.8812
   XZ=   -27.9545   YZ=   149.9586   ZZ=    11.4218
   Eigenvalues:  -121.7331   157.5508   197.5267
     11  O    Isotropic =  -105.1921   Anisotropy =   576.6639
   XX=  -160.7552   YX=   -90.7685   ZX=  -278.4404
   XY=  -121.8630   YY=   -67.8590   ZY=   189.4817
   XZ=  -249.3531   YZ=   200.0433   ZZ=   -86.9619
   Eigenvalues:  -399.5730  -195.2537   279.2505
     12  C    Isotropic =   159.0635   Anisotropy =    17.6078
   XX=   165.8528   YX=     5.8389   ZX=     6.2063
   XY=     8.3941   YY=   154.7244   ZY=     4.7900
   XZ=     0.5783   YZ=     2.1086   ZZ=   156.6134
   Eigenvalues:   150.7107   155.6778   170.8020
     13  C    Isotropic =   176.0344   Anisotropy =    21.4783
   XX=   184.7807   YX=     2.2533   ZX=    -8.3176
   XY=     2.7347   YY=   171.5988   ZY=     5.1362
   XZ=   -12.0568   YZ=     3.3145   ZZ=   171.7235
   Eigenvalues:   163.2662   174.4837   190.3532
     14  C    Isotropic =   177.2698   Anisotropy =     9.7599
   XX=   175.0217   YX=     1.3447   ZX=     2.7873
   XY=     3.1312   YY=   175.3769   ZY=    -4.4047
   XZ=     1.6913   YZ=    -4.2323   ZZ=   181.4109
   Eigenvalues:   170.8840   177.1491   183.7765
     15  O    Isotropic =   239.1284   Anisotropy =    24.2245
   XX=   234.1331   YX=    13.1584   ZX=    -7.9646
   XY=    -0.2558   YY=   238.0676   ZY=    12.4970
   XZ=   -12.9563   YZ=    11.2032   ZZ=   245.1845
   Eigenvalues:   219.7737   242.3334   255.2780
     16  Si   Isotropic =   332.6599   Anisotropy =    41.4571
   XX=   336.1398   YX=   -29.4444   ZX=     3.7996
   XY=   -15.2148   YY=   339.2293   ZY=    -9.6644
   XZ=    -6.3534   YZ=    -0.7337   ZZ=   322.6106
   Eigenvalues:   313.1400   324.5418   360.2980
     17  C    Isotropic =   185.8449   Anisotropy =    10.8476
   XX=   183.0135   YX=    -3.4581   ZX=     5.5158
   XY=    -4.4430   YY=   183.9513   ZY=     1.2734
   XZ=     4.3917   YZ=     4.0534   ZZ=   190.5699
   Eigenvalues:   177.2310   187.2271   193.0766
     18  C    Isotropic =   186.0490   Anisotropy =     8.3469
   XX=   187.5683   YX=     0.4007   ZX=     3.0166
   XY=     2.3718   YY=   189.9252   ZY=     2.6286
   XZ=     4.2349   YZ=     1.0039   ZZ=   180.6536
   Eigenvalues:   178.9813   187.5521   191.6136
     19  C    Isotropic =   186.6179   Anisotropy =    13.2057
   XX=   189.5359   YX=    -2.8144   ZX=    -7.2663
   XY=    -3.2438   YY=   183.9532   ZY=    -4.6955
   XZ=    -7.2733   YZ=    -4.5443   ZZ=   186.3645
   Eigenvalues:   176.4646   187.9674   195.4217
     20  H    Isotropic =    32.2743   Anisotropy =    10.5632
   XX=    31.8228   YX=    -4.4444   ZX=     0.5205
   XY=    -4.0738   YY=    36.8479   ZY=    -0.3227
   XZ=     0.5582   YZ=    -0.5220   ZZ=    28.1522
   Eigenvalues:    28.0657    29.4408    39.3164
     21  H    Isotropic =    31.8820   Anisotropy =     7.2197
   XX=    34.0817   YX=    -0.3251   ZX=    -4.3946
   XY=     0.5224   YY=    31.3217   ZY=    -0.4584
   XZ=    -3.7861   YZ=    -0.2762   ZZ=    30.2426
   Eigenvalues:    27.6259    31.3250    36.6951
     22  H    Isotropic =    32.0799   Anisotropy =     7.3775
   XX=    30.8044   YX=    -0.3649   ZX=     2.9754
   XY=     0.1408   YY=    30.7965   ZY=     3.0079
   XZ=     2.7232   YZ=     2.1946   ZZ=    34.6389
   Eigenvalues:    28.3298    30.9117    36.9983
     23  H    Isotropic =    31.9140   Anisotropy =     8.6809
   XX=    33.4811   YX=     4.2875   ZX=    -1.2363
   XY=     3.7674   YY=    33.6812   ZY=     0.4349
   XZ=    -1.5482   YZ=    -0.2494   ZZ=    28.5796
   Eigenvalues:    27.8384    30.2023    37.7012
     24  H    Isotropic =    32.3791   Anisotropy =    10.2318
   XX=    35.2582   YX=    -4.8158   ZX=    -1.0350
   XY=    -5.1328   YY=    32.7968   ZY=    -0.0105
   XZ=    -0.9231   YZ=    -0.2223   ZZ=    29.0823
   Eigenvalues:    28.2719    29.6650    39.2003
     25  H    Isotropic =    31.9825   Anisotropy =     8.3174
   XX=    30.6819   YX=    -0.1982   ZX=    -0.3572
   XY=    -0.5488   YY=    27.7483   ZY=     0.2447
   XZ=     0.3886   YZ=     0.3851   ZZ=    37.5173
   Eigenvalues:    27.6914    30.7286    37.5274
     26  H    Isotropic =    31.9576   Anisotropy =     8.2743
   XX=    31.8437   YX=     3.1086   ZX=     2.6550
   XY=     2.6672   YY=    33.7813   ZY=     1.8269
   XZ=     2.7075   YZ=     2.6761   ZZ=    30.2477
   Eigenvalues:    28.2462    30.1527    37.4737
     27  H    Isotropic =    31.4334   Anisotropy =     7.5790
   XX=    33.7199   YX=    -0.0294   ZX=    -1.9937
   XY=    -0.6516   YY=    27.0459   ZY=    -1.4717
   XZ=    -3.5923   YZ=    -1.4390   ZZ=    33.5343
   Eigenvalues:    26.5974    31.2167    36.4860
     28  H    Isotropic =    32.2911   Anisotropy =    10.4104
   XX=    33.9791   YX=    -4.6776   ZX=     2.7662
   XY=    -5.0527   YY=    32.4306   ZY=    -1.9496
   XZ=     2.3311   YZ=    -1.6420   ZZ=    30.4635
   Eigenvalues:    28.2134    29.4285    39.2313
     29  H    Isotropic =    30.8284   Anisotropy =     7.6757
   XX=    32.4744   YX=     0.4752   ZX=    -2.2950
   XY=     0.7057   YY=    26.0142   ZY=    -0.7266
   XZ=    -2.6978   YZ=    -0.8819   ZZ=    33.9964
   Eigenvalues:    25.9140    30.6256    35.9455
     30  H    Isotropic =    31.1368   Anisotropy =     9.0814
   XX=    30.4274   YX=     3.4552   ZX=     2.6222
   XY=     3.1900   YY=    28.7348   ZY=     2.0608
   XZ=     2.8721   YZ=     2.3022   ZZ=    34.2482
   Eigenvalues:    26.1522    30.0671    37.1911
     31  H    Isotropic =    31.4118   Anisotropy =     8.4384
   XX=    29.9707   YX=    -2.5923   ZX=     2.8092
   XY=    -2.3822   YY=    33.8281   ZY=    -2.6162
   XZ=     2.3393   YZ=    -2.8427   ZZ=    30.4366
   Eigenvalues:    27.6188    29.5791    37.0373
     32  H    Isotropic =    30.5691   Anisotropy =     5.3686
   XX=    31.5512   YX=     1.1822   ZX=    -1.4179
   XY=     0.9501   YY=    31.9206   ZY=     3.3922
   XZ=    -1.2628   YZ=     3.8222   ZZ=    28.2355
   Eigenvalues:    25.5460    32.0131    34.1481
     33  H    Isotropic =    30.4989   Anisotropy =     5.9936
   XX=    33.1541   YX=     1.1365   ZX=     0.7661
   XY=     0.6493   YY=    25.6891   ZY=    -3.7993
   XZ=     1.0483   YZ=    -3.7577   ZZ=    32.6535
   Eigenvalues:    23.8819    33.1202    34.4946
     34  H    Isotropic =    30.9914   Anisotropy =    11.5000
   XX=    36.6951   YX=     4.0273   ZX=     1.9603
   XY=     4.0687   YY=    27.9698   ZY=     1.6273
   XZ=     1.1277   YZ=     1.2521   ZZ=    28.3093
   Eigenvalues:    26.0683    28.2479    38.6581
     35  H    Isotropic =    30.6252   Anisotropy =     7.8161
   XX=    31.5791   YX=     1.3402   ZX=    -1.5211
   XY=     1.1945   YY=    28.4152   ZY=    -4.5908
   XZ=    -0.8974   YZ=    -4.7757   ZZ=    31.8813
   Eigenvalues:    25.1348    30.9049    35.8360
     36  H    Isotropic =    31.2854   Anisotropy =     9.3344
   XX=    33.2448   YX=    -3.2954   ZX=    -2.9359
   XY=    -2.9375   YY=    32.3296   ZY=     2.0803
   XZ=    -2.8137   YZ=     2.9127   ZZ=    28.2818
   Eigenvalues:    26.7105    29.6374    37.5083
     37  C    Isotropic =   140.3772   Anisotropy =    14.1208
   XX=   135.9492   YX=     4.9568   ZX=     0.6065
   XY=    -3.6545   YY=   149.5806   ZY=    -6.2675
   XZ=     4.9649   YZ=     2.8745   ZZ=   135.6017
   Eigenvalues:   132.8148   138.5258   149.7910
     38  C    Isotropic =    45.1498   Anisotropy =   180.4363
   XX=   -69.3889   YX=    11.6640   ZX=   -39.7109
   XY=     7.0182   YY=    90.9439   ZY=   -55.7409
   XZ=   -43.2256   YZ=   -55.4691   ZZ=   113.8943
   Eigenvalues:   -78.3784    48.3870   165.4407
     39  C    Isotropic =    65.9553   Anisotropy =   138.8206
   XX=   -35.5686   YX=    -2.3071   ZX=   -43.4507
   XY=    -0.4544   YY=   113.4983   ZY=   -33.6305
   XZ=   -45.5643   YZ=   -38.4449   ZZ=   119.9363
   Eigenvalues:   -48.1306    87.4941   158.5024
     40  H    Isotropic =    30.1783   Anisotropy =     6.2918
   XX=    30.4040   YX=    -1.9867   ZX=     1.2820
   XY=    -1.0101   YY=    33.7683   ZY=     1.2302
   XZ=     1.8551   YZ=     1.0251   ZZ=    26.3626
   Eigenvalues:    25.5255    30.6367    34.3728
     41  H    Isotropic =    29.4955   Anisotropy =     3.7293
   XX=    26.7349   YX=     2.2621   ZX=     0.3692
   XY=     2.4856   YY=    30.0812   ZY=    -1.7300
   XZ=     0.7202   YZ=     0.3194   ZZ=    31.6703
   Eigenvalues:    25.3993    31.1055    31.9817
     42  H    Isotropic =    25.6710   Anisotropy =     7.3848
   XX=    23.8109   YX=     2.6374   ZX=     0.5886
   XY=     1.2951   YY=    29.5152   ZY=     1.9414
   XZ=    -0.3991   YZ=     1.7534   ZZ=    23.6867
   Eigenvalues:    22.7653    23.6534    30.5942
     43  H    Isotropic =    26.7334   Anisotropy =     6.8611
   XX=    23.6888   YX=    -0.2644   ZX=    -0.7071
   XY=     1.7690   YY=    30.0430   ZY=     2.7145
   XZ=     0.5319   YZ=     2.1019   ZZ=    26.4683
   Eigenvalues:    23.5361    25.3565    31.3074
     44  H    Isotropic =    26.8131   Anisotropy =     7.3021
   XX=    23.4625   YX=    -0.0181   ZX=    -0.1711
   XY=    -1.7600   YY=    30.7287   ZY=     1.7854
   XZ=    -1.7886   YZ=     2.2700   ZZ=    26.2481
   Eigenvalues:    23.1434    25.6148    31.6812
 End of Minotr F.D. properties file   721 does not exist.
 End of Minotr F.D. properties file   722 does not exist.
 End of Minotr F.D. properties file   788 does not exist.

 **********************************************************************

            Population analysis using the SCF density.

 **********************************************************************

 Orbital symmetries:
       Occupied  (A) (A) (A) (A) (A) (A) (A) (A) (A) (A) (A) (A)
                 (A) (A) (A) (A) (A) (A) (A) (A) (A) (A) (A) (A)
                 (A) (A) (A) (A) (A) (A) (A) (A) (A) (A) (A) (A)
                 (A) (A) (A) (A) (A) (A) (A) (A) (A) (A) (A) (A)
                 (A) (A) (A) (A) (A) (A) (A) (A) (A) (A) (A) (A)
                 (A) (A) (A) (A) (A) (A) (A) (A) (A) (A) (A) (A)
                 (A) (A)
       Virtual   (A) (A) (A) (A) (A) (A) (A) (A) (A) (A) (A) (A)
                 (A) (A) (A) (A) (A) (A) (A) (A) (A) (A) (A) (A)
                 (A) (A) (A) (A) (A) (A) (A) (A) (A) (A) (A) (A)
                 (A) (A) (A) (A) (A) (A) (A) (A) (A) (A) (A) (A)
                 (A) (A) (A) (A) (A) (A) (A) (A) (A) (A) (A) (A)
                 (A) (A) (A) (A) (A) (A) (A) (A) (A) (A) (A) (A)
                 (A) (A) (A) (A) (A) (A) (A) (A) (A) (A) (A) (A)
                 (A) (A) (A) (A) (A) (A) (A) (A) (A) (A) (A) (A)
                 (A) (A) (A) (A) (A) (A) (A) (A) (A) (A) (A) (A)
                 (A) (A) (A) (A) (A) (A) (A) (A) (A) (A) (A) (A)
                 (A) (A) (A) (A) (A) (A) (A) (A) (A) (A) (A) (A)
                 (A) (A) (A) (A) (A) (A) (A) (A) (A) (A) (A) (A)
                 (A) (A) (A) (A) (A) (A) (A) (A) (A) (A) (A) (A)
                 (A) (A) (A) (A) (A) (A) (A) (A) (A) (A) (A) (A)
                 (A) (A) (A) (A) (A) (A) (A) (A) (A) (A) (A) (A)
                 (A) (A) (A) (A) (A) (A) (A) (A) (A) (A) (A) (A)
                 (A) (A) (A) (A) (A) (A) (A) (A) (A) (A) (A) (A)
                 (A) (A) (A) (A) (A) (A) (A) (A) (A) (A) (A) (A)
                 (A) (A) (A) (A) (A) (A) (A) (A) (A) (A) (A) (A)
                 (A) (A) (A) (A) (A) (A) (A) (A) (A) (A) (A) (A)
                 (A) (A) (A) (A) (A) (A) (A) (A) (A) (A) (A) (A)
                 (A) (A) (A) (A) (A) (A) (A) (A) (A) (A) (A) (A)
                 (A) (A) (A) (A) (A) (A) (A) (A) (A) (A) (A) (A)
                 (A) (A) (A) (A) (A) (A) (A) (A) (A) (A) (A) (A)
                 (A) (A) (A) (A) (A) (A) (A) (A) (A) (A) (A) (A)
                 (A) (A) (A) (A) (A) (A) (A) (A) (A) (A) (A) (A)
                 (A) (A) (A) (A) (A) (A) (A) (A) (A) (A) (A) (A)
                 (A) (A) (A) (A) (A) (A) (A) (A) (A) (A) (A) (A)
 The electronic state is 1-A.
 Alpha  occ. eigenvalues --  -66.27215 -19.26082 -19.20574 -19.20064 -10.36904
 Alpha  occ. eigenvalues --  -10.32092 -10.30665 -10.25400 -10.25158 -10.24121
 Alpha  occ. eigenvalues --  -10.24067 -10.24013 -10.23010 -10.22844 -10.22235
 Alpha  occ. eigenvalues --  -10.20680 -10.20528 -10.20389  -5.32947  -3.66840
 Alpha  occ. eigenvalues --   -3.66538  -3.66522  -1.13501  -1.05133  -1.03868
 Alpha  occ. eigenvalues --   -0.85831  -0.83272  -0.80494  -0.77874  -0.73994
 Alpha  occ. eigenvalues --   -0.72506  -0.72012  -0.70072  -0.69901  -0.66799
 Alpha  occ. eigenvalues --   -0.63120  -0.61911  -0.58616  -0.56838  -0.54662
 Alpha  occ. eigenvalues --   -0.51460  -0.51032  -0.49091  -0.48847  -0.46928
 Alpha  occ. eigenvalues --   -0.45909  -0.44963  -0.44647  -0.43820  -0.43513
 Alpha  occ. eigenvalues --   -0.43043  -0.42465  -0.42254  -0.41996  -0.40960
 Alpha  occ. eigenvalues --   -0.40611  -0.40390  -0.39645  -0.39408  -0.39306
 Alpha  occ. eigenvalues --   -0.38703  -0.38127  -0.36953  -0.36419  -0.36004
 Alpha  occ. eigenvalues --   -0.35656  -0.35321  -0.33388  -0.32388  -0.31198
 Alpha  occ. eigenvalues --   -0.30197  -0.28816  -0.28364  -0.27208
 Alpha virt. eigenvalues --    0.00185   0.01209   0.04131   0.05129   0.05940
 Alpha virt. eigenvalues --    0.06762   0.07648   0.08069   0.08490   0.08940
 Alpha virt. eigenvalues --    0.10029   0.10414   0.10550   0.10972   0.11418
 Alpha virt. eigenvalues --    0.11761   0.12192   0.12840   0.13110   0.13690
 Alpha virt. eigenvalues --    0.13955   0.14395   0.14792   0.15323   0.15777
 Alpha virt. eigenvalues --    0.15938   0.16249   0.16608   0.17372   0.17657
 Alpha virt. eigenvalues --    0.18597   0.18967   0.19256   0.19925   0.20346
 Alpha virt. eigenvalues --    0.21409   0.21690   0.23364   0.24782   0.25259
 Alpha virt. eigenvalues --    0.25862   0.26387   0.26602   0.27147   0.27969
 Alpha virt. eigenvalues --    0.29621   0.30172   0.30998   0.32069   0.32643
 Alpha virt. eigenvalues --    0.32926   0.33370   0.34213   0.35428   0.36353
 Alpha virt. eigenvalues --    0.36638   0.37294   0.38875   0.40127   0.40406
 Alpha virt. eigenvalues --    0.41766   0.42959   0.43881   0.44686   0.44910
 Alpha virt. eigenvalues --    0.45297   0.45679   0.46239   0.47518   0.48396
 Alpha virt. eigenvalues --    0.49635   0.49995   0.51467   0.52415   0.52994
 Alpha virt. eigenvalues --    0.53864   0.54026   0.54464   0.55267   0.56138
 Alpha virt. eigenvalues --    0.57023   0.57370   0.58170   0.58720   0.58865
 Alpha virt. eigenvalues --    0.59437   0.59804   0.59933   0.60588   0.61193
 Alpha virt. eigenvalues --    0.61361   0.61949   0.62211   0.62367   0.62830
 Alpha virt. eigenvalues --    0.63446   0.63547   0.64277   0.65035   0.65713
 Alpha virt. eigenvalues --    0.66532   0.67047   0.67552   0.67696   0.68306
 Alpha virt. eigenvalues --    0.68755   0.69320   0.70054   0.70602   0.70682
 Alpha virt. eigenvalues --    0.71200   0.71588   0.72126   0.73185   0.74240
 Alpha virt. eigenvalues --    0.75842   0.77138   0.78920   0.80707   0.81826
 Alpha virt. eigenvalues --    0.82306   0.83468   0.85266   0.87837   0.88246
 Alpha virt. eigenvalues --    0.88860   0.90587   0.92780   0.93789   0.95209
 Alpha virt. eigenvalues --    0.95580   0.96868   0.97358   0.98020   0.99700
 Alpha virt. eigenvalues --    1.03034   1.04080   1.05453   1.07271   1.10638
 Alpha virt. eigenvalues --    1.12856   1.15489   1.16222   1.19814   1.20918
 Alpha virt. eigenvalues --    1.22251   1.23197   1.26824   1.27641   1.28357
 Alpha virt. eigenvalues --    1.29372   1.30607   1.32269   1.34252   1.35152
 Alpha virt. eigenvalues --    1.36604   1.37082   1.38565   1.40873   1.41606
 Alpha virt. eigenvalues --    1.43426   1.44869   1.45556   1.47128   1.47444
 Alpha virt. eigenvalues --    1.50075   1.50894   1.51682   1.52364   1.53844
 Alpha virt. eigenvalues --    1.54302   1.55182   1.55518   1.56845   1.58177
 Alpha virt. eigenvalues --    1.58922   1.59282   1.60095   1.60353   1.60597
 Alpha virt. eigenvalues --    1.61154   1.61894   1.62687   1.63179   1.64416
 Alpha virt. eigenvalues --    1.65162   1.66509   1.67377   1.68219   1.68921
 Alpha virt. eigenvalues --    1.70283   1.71694   1.72406   1.73943   1.74762
 Alpha virt. eigenvalues --    1.74969   1.78621   1.79155   1.79967   1.80441
 Alpha virt. eigenvalues --    1.81600   1.82708   1.84234   1.85790   1.87030
 Alpha virt. eigenvalues --    1.88526   1.89595   1.93937   1.96099   1.96884
 Alpha virt. eigenvalues --    2.01154   2.01892   2.03348   2.08434   2.11104
 Alpha virt. eigenvalues --    2.15658   2.17761   2.19474   2.22546   2.25759
 Alpha virt. eigenvalues --    2.28398   2.31310   2.35031   2.36201   2.39895
 Alpha virt. eigenvalues --    2.41601   2.42111   2.42457   2.42834   2.43998
 Alpha virt. eigenvalues --    2.44504   2.44852   2.45407   2.46801   2.46959
 Alpha virt. eigenvalues --    2.48201   2.48769   2.50354   2.50675   2.52289
 Alpha virt. eigenvalues --    2.52651   2.53547   2.54553   2.56225   2.57136
 Alpha virt. eigenvalues --    2.61787   2.64859   2.67504   2.72766   2.80456
 Alpha virt. eigenvalues --    2.81574   2.87356   2.88743   2.90532   2.91247
 Alpha virt. eigenvalues --    2.92687   2.93000   2.94692   2.96212   2.96786
 Alpha virt. eigenvalues --    2.98825   3.00490   3.00972   3.04309   3.04883
 Alpha virt. eigenvalues --    3.07392   3.10839   3.12221   3.13323   3.15863
 Alpha virt. eigenvalues --    3.16913   3.16974   3.17501   3.19241   3.21344
 Alpha virt. eigenvalues --    3.22434   3.22756   3.23220   3.23725   3.24517
 Alpha virt. eigenvalues --    3.25621   3.27613   3.28569   3.29262   3.30356
 Alpha virt. eigenvalues --    3.33181   3.34710   3.35448   3.39733   3.42296
 Alpha virt. eigenvalues --    3.46102   3.51685   3.57231   3.59817   3.62029
 Alpha virt. eigenvalues --    3.75691   3.88284   3.91605   3.96723   4.05436
 Alpha virt. eigenvalues --    4.07018   4.12770   4.18908   4.24842   4.26115
 Alpha virt. eigenvalues --    4.96606   5.01434   5.04159   5.10946   5.16850
 Alpha virt. eigenvalues --    5.26196   5.52822   5.53687   5.75880   5.84506
 Alpha virt. eigenvalues --   11.52304  11.53507  11.57823  23.42075  23.49413
 Alpha virt. eigenvalues --   23.54200  23.55157  23.57331  23.62991  23.71170
 Alpha virt. eigenvalues --   23.73776  23.79010  23.80251  23.83351  23.87056
 Alpha virt. eigenvalues --   23.91078  24.29368  49.99478  50.06149  50.12656
 Alpha virt. eigenvalues --  141.26850
          Condensed to atoms (all electrons):
               1          2          3          4          5          6
     1  C    5.281906   0.296727  -0.065826  -0.031431  -0.066273   0.369790
     2  C    0.296727   5.438132   0.370347  -0.058425  -0.013531  -0.047061
     3  C   -0.065826   0.370347   5.084286   0.224550  -0.029454  -0.010973
     4  C   -0.031431  -0.058425   0.224550   5.931679   0.248956   0.004698
     5  C   -0.066273  -0.013531  -0.029454   0.248956   4.406253  -0.008201
     6  H    0.369790  -0.047061  -0.010973   0.004698  -0.008201   0.499599
     7  H   -0.060179   0.397047  -0.052508  -0.000741  -0.000258   0.010046
     8  H    0.000306   0.005032  -0.023838   0.377111  -0.025028  -0.000110
     9  H   -0.000973   0.001969  -0.035330   0.358280  -0.025320   0.000953
    10  O    0.189906  -0.024436  -0.001460  -0.103406   0.341710  -0.030109
    11  O    0.004154  -0.001753   0.004087  -0.094188   0.649062  -0.000260
    12  C    0.320037  -0.053575   0.005993  -0.000739   0.002734  -0.040812
    13  C   -0.069584   0.006318  -0.000155  -0.000136   0.000097  -0.006730
    14  C   -0.056777   0.274875  -0.051142   0.006773   0.000130   0.002197
    15  O    0.004857  -0.048530   0.222621  -0.044277   0.002059   0.000092
    16  Si   0.003555  -0.009821  -0.040742  -0.025533   0.001921  -0.000241
    17  C    0.000049  -0.000320  -0.000474   0.002269  -0.000469   0.000000
    18  C    0.000266  -0.001011   0.001743  -0.000270   0.000341  -0.000014
    19  C    0.000001  -0.000264   0.002466  -0.000266  -0.000007   0.000000
    20  H   -0.000017   0.000261  -0.000094   0.000023   0.000004   0.000001
    21  H   -0.000555  -0.000106   0.000109   0.001810   0.003556   0.000025
    22  H    0.000060  -0.000044   0.000417   0.000057   0.000005  -0.000013
    23  H    0.000001  -0.000021  -0.000061  -0.000060   0.000004   0.000000
    24  H    0.000000   0.000003  -0.000055  -0.000002   0.000002   0.000000
    25  H   -0.000001   0.000024  -0.000007  -0.000036   0.000003   0.000000
    26  H    0.000006  -0.000044   0.000396  -0.000100   0.000138  -0.000001
    27  H    0.000003  -0.000038   0.000715  -0.004642   0.000769  -0.000003
    28  H    0.000000   0.000004  -0.000056   0.000277  -0.000038   0.000000
    29  H    0.007468  -0.041147  -0.003482   0.000691  -0.000073  -0.000454
    30  H   -0.008584  -0.029669   0.006431  -0.000242  -0.000022  -0.000554
    31  H   -0.004157  -0.038322  -0.008766  -0.000200   0.000016   0.002560
    32  H   -0.052336  -0.002896  -0.000146   0.000162  -0.000472   0.008061
    33  H   -0.039580  -0.009813  -0.000275   0.000082  -0.000051  -0.000734
    34  H    0.008148  -0.000170   0.000009   0.000001   0.000011  -0.000283
    35  H   -0.011627   0.000167  -0.000066   0.000377   0.000510   0.000562
    36  H   -0.004253   0.000074   0.000011  -0.000013  -0.000117   0.004547
    37  C    0.000561  -0.078446   0.305103  -0.080822   0.004455   0.004317
    38  C   -0.000455   0.008479  -0.051883  -0.024187   0.000321  -0.000286
    39  C   -0.000022  -0.000058  -0.003232   0.001975   0.000022  -0.000050
    40  H    0.000508  -0.001118  -0.042583   0.000665  -0.000379   0.003651
    41  H    0.000675  -0.012298  -0.040647   0.008058  -0.000145  -0.000137
    42  H   -0.000016   0.000060  -0.001893  -0.000422  -0.000019  -0.000001
    43  H   -0.000001   0.000017  -0.000352   0.000084  -0.000001  -0.000003
    44  H   -0.000003  -0.000047   0.000167  -0.000109  -0.000003   0.000006
               7          8          9         10         11         12
     1  C   -0.060179   0.000306  -0.000973   0.189906   0.004154   0.320037
     2  C    0.397047   0.005032   0.001969  -0.024436  -0.001753  -0.053575
     3  C   -0.052508  -0.023838  -0.035330  -0.001460   0.004087   0.005993
     4  C   -0.000741   0.377111   0.358280  -0.103406  -0.094188  -0.000739
     5  C   -0.000258  -0.025028  -0.025320   0.341710   0.649062   0.002734
     6  H    0.010046  -0.000110   0.000953  -0.030109  -0.000260  -0.040812
     7  H    0.471968  -0.000311  -0.000236   0.005240  -0.001381  -0.006836
     8  H   -0.000311   0.390893  -0.016368   0.003606   0.002164   0.000085
     9  H   -0.000236  -0.016368   0.419671  -0.000154   0.001241   0.000244
    10  O    0.005240   0.003606  -0.000154   8.045761  -0.073511  -0.048315
    11  O   -0.001381   0.002164   0.001241  -0.073511   7.870120  -0.000159
    12  C   -0.006836   0.000085   0.000244  -0.048315  -0.000159   5.304251
    13  C   -0.000608  -0.000004  -0.000015  -0.004357  -0.000014   0.313774
    14  C   -0.035359  -0.000066  -0.000375   0.004719  -0.000010  -0.007118
    15  O   -0.004397  -0.003940   0.003433  -0.000060   0.000013  -0.000084
    16  Si  -0.003069  -0.005393   0.002970  -0.002823   0.008150  -0.000195
    17  C   -0.000140  -0.002233  -0.000029  -0.000014  -0.005680   0.000000
    18  C   -0.004531   0.000288  -0.000032  -0.000080  -0.001734  -0.000032
    19  C   -0.000322  -0.000189   0.000012   0.000000   0.000002   0.000000
    20  H    0.000816   0.000009  -0.000001   0.000001  -0.000007   0.000000
    21  H   -0.001191  -0.000111   0.000023   0.000369   0.003069   0.000029
    22  H   -0.001399  -0.000005   0.000006  -0.000109   0.000063   0.000037
    23  H   -0.000017  -0.000032   0.000002   0.000000   0.000001   0.000000
    24  H    0.000005   0.000005   0.000000   0.000000   0.000001   0.000000
    25  H   -0.000046  -0.000011   0.000002   0.000000   0.000000   0.000000
    26  H   -0.000014   0.000213  -0.000064  -0.000002  -0.000059   0.000000
    27  H   -0.000085   0.001276   0.000165   0.000322   0.018066   0.000002
    28  H    0.000004   0.000436  -0.000007   0.000000  -0.000025   0.000000
    29  H   -0.005508  -0.000021  -0.000043  -0.000153   0.000001   0.000242
    30  H   -0.007588   0.000015   0.000024   0.000012   0.000001   0.003427
    31  H    0.007130  -0.000009  -0.000059   0.000002  -0.000001  -0.001591
    32  H    0.005623   0.000003  -0.000012   0.001723  -0.000058   0.394804
    33  H    0.000643  -0.000005  -0.000002   0.003552   0.000006   0.389048
    34  H   -0.000008   0.000000   0.000000  -0.000079   0.000000  -0.037764
    35  H    0.000119  -0.000009  -0.000014   0.012944   0.000113  -0.039270
    36  H    0.000003   0.000001  -0.000004  -0.000349   0.000000  -0.040076
    37  C    0.006080  -0.005274  -0.006732  -0.000272  -0.000092  -0.000439
    38  C   -0.000222   0.002817   0.001406  -0.000019  -0.000018   0.000010
    39  C   -0.000005   0.001317   0.003576   0.000000   0.000001   0.000000
    40  H    0.000401   0.000318  -0.001894  -0.000065   0.000005   0.000022
    41  H   -0.000375  -0.000034   0.000913  -0.000018   0.000005  -0.000012
    42  H    0.000012   0.000160  -0.000042   0.000001   0.000000   0.000001
    43  H   -0.000001   0.000064   0.000038   0.000000   0.000000   0.000000
    44  H    0.000001  -0.000021   0.000282   0.000001   0.000000   0.000000
              13         14         15         16         17         18
     1  C   -0.069584  -0.056777   0.004857   0.003555   0.000049   0.000266
     2  C    0.006318   0.274875  -0.048530  -0.009821  -0.000320  -0.001011
     3  C   -0.000155  -0.051142   0.222621  -0.040742  -0.000474   0.001743
     4  C   -0.000136   0.006773  -0.044277  -0.025533   0.002269  -0.000270
     5  C    0.000097   0.000130   0.002059   0.001921  -0.000469   0.000341
     6  H   -0.006730   0.002197   0.000092  -0.000241   0.000000  -0.000014
     7  H   -0.000608  -0.035359  -0.004397  -0.003069  -0.000140  -0.004531
     8  H   -0.000004  -0.000066  -0.003940  -0.005393  -0.002233   0.000288
     9  H   -0.000015  -0.000375   0.003433   0.002970  -0.000029  -0.000032
    10  O   -0.004357   0.004719  -0.000060  -0.002823  -0.000014  -0.000080
    11  O   -0.000014  -0.000010   0.000013   0.008150  -0.005680  -0.001734
    12  C    0.313774  -0.007118  -0.000084  -0.000195   0.000000  -0.000032
    13  C    5.337374  -0.000082   0.000001   0.000030   0.000000   0.000000
    14  C   -0.000082   5.427906  -0.000984  -0.000737   0.000006   0.000334
    15  O    0.000001  -0.000984   8.280344   0.358997  -0.025596  -0.024890
    16  Si   0.000030  -0.000737   0.358997  11.530052   0.313193   0.311909
    17  C    0.000000   0.000006  -0.025596   0.313193   5.812277  -0.054659
    18  C    0.000000   0.000334  -0.024890   0.311909  -0.054659   5.803198
    19  C    0.000000  -0.000008  -0.031437   0.330261  -0.046209  -0.046052
    20  H    0.000000  -0.000010   0.000816  -0.010307   0.000208   0.362781
    21  H   -0.000009   0.000077  -0.001331  -0.025079  -0.001346   0.364315
    22  H   -0.000001   0.000091  -0.002153  -0.026412   0.002280   0.369348
    23  H    0.000000  -0.000005  -0.001941  -0.024399  -0.000822   0.002111
    24  H    0.000000  -0.000002   0.001154  -0.014873   0.000358   0.000134
    25  H    0.000000   0.000000  -0.002005  -0.024358   0.002100  -0.000959
    26  H    0.000000   0.000001  -0.002219  -0.026297   0.369122   0.002186
    27  H    0.000000  -0.000001  -0.001505  -0.025640   0.355037  -0.001344
    28  H    0.000000   0.000000   0.000848  -0.010763   0.361325   0.000523
    29  H    0.000020   0.387706   0.006238   0.001922   0.000022  -0.000035
    30  H    0.000213   0.391094  -0.000295  -0.000300   0.000000   0.000069
    31  H   -0.000143   0.386361   0.000025  -0.000078   0.000000  -0.000004
    32  H   -0.040315  -0.000418  -0.000009  -0.000141   0.000000   0.000071
    33  H   -0.035849   0.003125  -0.000004  -0.000028   0.000000  -0.000003
    34  H    0.392618  -0.000013   0.000000   0.000000   0.000000   0.000000
    35  H    0.385239  -0.000043   0.000000  -0.000001   0.000000  -0.000002
    36  H    0.384147  -0.000032   0.000000   0.000000   0.000000   0.000000
    37  C    0.000012  -0.019363  -0.078493   0.000199   0.000031  -0.000284
    38  C    0.000000  -0.000095   0.008438   0.001154  -0.000211   0.000027
    39  C    0.000000  -0.000032   0.000978   0.000504  -0.000024   0.000001
    40  H   -0.000013  -0.001561   0.003880  -0.000036   0.000009   0.000010
    41  H    0.000001   0.003316   0.002050   0.000290   0.000020   0.000001
    42  H    0.000000  -0.000081   0.004226   0.001127   0.000274   0.000019
    43  H    0.000000   0.000000   0.000012   0.000005   0.000001   0.000000
    44  H    0.000000  -0.000012   0.000000   0.000001   0.000000   0.000000
              19         20         21         22         23         24
     1  C    0.000001  -0.000017  -0.000555   0.000060   0.000001   0.000000
     2  C   -0.000264   0.000261  -0.000106  -0.000044  -0.000021   0.000003
     3  C    0.002466  -0.000094   0.000109   0.000417  -0.000061  -0.000055
     4  C   -0.000266   0.000023   0.001810   0.000057  -0.000060  -0.000002
     5  C   -0.000007   0.000004   0.003556   0.000005   0.000004   0.000002
     6  H    0.000000   0.000001   0.000025  -0.000013   0.000000   0.000000
     7  H   -0.000322   0.000816  -0.001191  -0.001399  -0.000017   0.000005
     8  H   -0.000189   0.000009  -0.000111  -0.000005  -0.000032   0.000005
     9  H    0.000012  -0.000001   0.000023   0.000006   0.000002   0.000000
    10  O    0.000000   0.000001   0.000369  -0.000109   0.000000   0.000000
    11  O    0.000002  -0.000007   0.003069   0.000063   0.000001   0.000001
    12  C    0.000000   0.000000   0.000029   0.000037   0.000000   0.000000
    13  C    0.000000   0.000000  -0.000009  -0.000001   0.000000   0.000000
    14  C   -0.000008  -0.000010   0.000077   0.000091  -0.000005  -0.000002
    15  O   -0.031437   0.000816  -0.001331  -0.002153  -0.001941   0.001154
    16  Si   0.330261  -0.010307  -0.025079  -0.026412  -0.024399  -0.014873
    17  C   -0.046209   0.000208  -0.001346   0.002280  -0.000822   0.000358
    18  C   -0.046052   0.362781   0.364315   0.369348   0.002111   0.000134
    19  C    5.725117  -0.000566   0.002465  -0.000363   0.371102   0.362554
    20  H   -0.000566   0.443320  -0.020066  -0.021749  -0.000082   0.000633
    21  H    0.002465  -0.020066   0.437910  -0.019551  -0.000079  -0.000056
    22  H   -0.000363  -0.021749  -0.019551   0.456567  -0.000066  -0.000028
    23  H    0.371102  -0.000082  -0.000079  -0.000066   0.454600  -0.021859
    24  H    0.362554   0.000633  -0.000056  -0.000028  -0.021859   0.461037
    25  H    0.370183  -0.000027  -0.000046   0.001214  -0.019672  -0.021822
    26  H   -0.000295  -0.000054  -0.000050  -0.000085   0.000980  -0.000029
    27  H    0.002204  -0.000030   0.000611  -0.000010  -0.000025  -0.000029
    28  H   -0.000642   0.000301   0.000052  -0.000053  -0.000057   0.000777
    29  H    0.000012  -0.000003  -0.000008   0.000067   0.000001  -0.000002
    30  H    0.000001  -0.000003   0.000013   0.000138   0.000000   0.000000
    31  H    0.000000   0.000000  -0.000003  -0.000010   0.000000   0.000000
    32  H    0.000000  -0.000003   0.000148   0.000015   0.000000   0.000000
    33  H    0.000000   0.000000   0.000003  -0.000002   0.000000   0.000000
    34  H    0.000000   0.000000   0.000000   0.000000   0.000000   0.000000
    35  H    0.000000   0.000000   0.000012  -0.000001   0.000000   0.000000
    36  H    0.000000   0.000000   0.000000   0.000000   0.000000   0.000000
    37  C    0.000057   0.000005  -0.000055  -0.000065   0.000082   0.000002
    38  C   -0.000075   0.000000   0.000010   0.000006  -0.000011   0.000000
    39  C   -0.000002   0.000000   0.000000   0.000000  -0.000003   0.000000
    40  H    0.000000   0.000000   0.000001   0.000000  -0.000002   0.000000
    41  H   -0.000080   0.000001  -0.000004   0.000002  -0.000013   0.000002
    42  H    0.000142   0.000000   0.000001   0.000001   0.000252  -0.000007
    43  H    0.000000   0.000000   0.000000   0.000000  -0.000001   0.000000
    44  H    0.000000   0.000000   0.000000   0.000000   0.000000   0.000000
              25         26         27         28         29         30
     1  C   -0.000001   0.000006   0.000003   0.000000   0.007468  -0.008584
     2  C    0.000024  -0.000044  -0.000038   0.000004  -0.041147  -0.029669
     3  C   -0.000007   0.000396   0.000715  -0.000056  -0.003482   0.006431
     4  C   -0.000036  -0.000100  -0.004642   0.000277   0.000691  -0.000242
     5  C    0.000003   0.000138   0.000769  -0.000038  -0.000073  -0.000022
     6  H    0.000000  -0.000001  -0.000003   0.000000  -0.000454  -0.000554
     7  H   -0.000046  -0.000014  -0.000085   0.000004  -0.005508  -0.007588
     8  H   -0.000011   0.000213   0.001276   0.000436  -0.000021   0.000015
     9  H    0.000002  -0.000064   0.000165  -0.000007  -0.000043   0.000024
    10  O    0.000000  -0.000002   0.000322   0.000000  -0.000153   0.000012
    11  O    0.000000  -0.000059   0.018066  -0.000025   0.000001   0.000001
    12  C    0.000000   0.000000   0.000002   0.000000   0.000242   0.003427
    13  C    0.000000   0.000000   0.000000   0.000000   0.000020   0.000213
    14  C    0.000000   0.000001  -0.000001   0.000000   0.387706   0.391094
    15  O   -0.002005  -0.002219  -0.001505   0.000848   0.006238  -0.000295
    16  Si  -0.024358  -0.026297  -0.025640  -0.010763   0.001922  -0.000300
    17  C    0.002100   0.369122   0.355037   0.361325   0.000022   0.000000
    18  C   -0.000959   0.002186  -0.001344   0.000523  -0.000035   0.000069
    19  C    0.370183  -0.000295   0.002204  -0.000642   0.000012   0.000001
    20  H   -0.000027  -0.000054  -0.000030   0.000301  -0.000003  -0.000003
    21  H   -0.000046  -0.000050   0.000611   0.000052  -0.000008   0.000013
    22  H    0.001214  -0.000085  -0.000010  -0.000053   0.000067   0.000138
    23  H   -0.019672   0.000980  -0.000025  -0.000057   0.000001   0.000000
    24  H   -0.021822  -0.000029  -0.000029   0.000777  -0.000002   0.000000
    25  H    0.455672  -0.000078  -0.000078  -0.000044   0.000108   0.000000
    26  H   -0.000078   0.454625  -0.019109  -0.021111   0.000002   0.000000
    27  H   -0.000078  -0.019109   0.440010  -0.020874   0.000004   0.000000
    28  H   -0.000044  -0.021111  -0.020874   0.450256   0.000000   0.000000
    29  H    0.000108   0.000002   0.000004   0.000000   0.442462  -0.023974
    30  H    0.000000   0.000000   0.000000   0.000000  -0.023974   0.450071
    31  H   -0.000002   0.000000   0.000000   0.000000  -0.024722  -0.026689
    32  H    0.000000   0.000000  -0.000001   0.000000  -0.000265   0.000718
    33  H    0.000000   0.000000   0.000000   0.000000   0.000423  -0.002272
    34  H    0.000000   0.000000   0.000000   0.000000  -0.000001   0.000003
    35  H    0.000000   0.000000   0.000000   0.000000   0.000005  -0.000039
    36  H    0.000000   0.000000   0.000000   0.000000  -0.000003   0.000016
    37  C    0.000007   0.000088  -0.000039   0.000000  -0.004645   0.000446
    38  C    0.000006   0.000211  -0.000093   0.000000  -0.000326   0.000016
    39  C    0.000000   0.000008  -0.000008   0.000000  -0.000009   0.000001
    40  H   -0.000002   0.000003   0.000001   0.000000   0.000215  -0.000154
    41  H   -0.000018   0.000004   0.000008   0.000000   0.002209   0.000343
    42  H   -0.000017   0.000505  -0.000002  -0.000002   0.000018   0.000001
    43  H    0.000000  -0.000001   0.000000   0.000000   0.000000   0.000000
    44  H    0.000000   0.000001   0.000000   0.000000   0.000001   0.000000
              31         32         33         34         35         36
     1  C   -0.004157  -0.052336  -0.039580   0.008148  -0.011627  -0.004253
     2  C   -0.038322  -0.002896  -0.009813  -0.000170   0.000167   0.000074
     3  C   -0.008766  -0.000146  -0.000275   0.000009  -0.000066   0.000011
     4  C   -0.000200   0.000162   0.000082   0.000001   0.000377  -0.000013
     5  C    0.000016  -0.000472  -0.000051   0.000011   0.000510  -0.000117
     6  H    0.002560   0.008061  -0.000734  -0.000283   0.000562   0.004547
     7  H    0.007130   0.005623   0.000643  -0.000008   0.000119   0.000003
     8  H   -0.000009   0.000003  -0.000005   0.000000  -0.000009   0.000001
     9  H   -0.000059  -0.000012  -0.000002   0.000000  -0.000014  -0.000004
    10  O    0.000002   0.001723   0.003552  -0.000079   0.012944  -0.000349
    11  O   -0.000001  -0.000058   0.000006   0.000000   0.000113   0.000000
    12  C   -0.001591   0.394804   0.389048  -0.037764  -0.039270  -0.040076
    13  C   -0.000143  -0.040315  -0.035849   0.392618   0.385239   0.384147
    14  C    0.386361  -0.000418   0.003125  -0.000013  -0.000043  -0.000032
    15  O    0.000025  -0.000009  -0.000004   0.000000   0.000000   0.000000
    16  Si  -0.000078  -0.000141  -0.000028   0.000000  -0.000001   0.000000
    17  C    0.000000   0.000000   0.000000   0.000000   0.000000   0.000000
    18  C   -0.000004   0.000071  -0.000003   0.000000  -0.000002   0.000000
    19  C    0.000000   0.000000   0.000000   0.000000   0.000000   0.000000
    20  H    0.000000  -0.000003   0.000000   0.000000   0.000000   0.000000
    21  H   -0.000003   0.000148   0.000003   0.000000   0.000012   0.000000
    22  H   -0.000010   0.000015  -0.000002   0.000000  -0.000001   0.000000
    23  H    0.000000   0.000000   0.000000   0.000000   0.000000   0.000000
    24  H    0.000000   0.000000   0.000000   0.000000   0.000000   0.000000
    25  H   -0.000002   0.000000   0.000000   0.000000   0.000000   0.000000
    26  H    0.000000   0.000000   0.000000   0.000000   0.000000   0.000000
    27  H    0.000000  -0.000001   0.000000   0.000000   0.000000   0.000000
    28  H    0.000000   0.000000   0.000000   0.000000   0.000000   0.000000
    29  H   -0.024722  -0.000265   0.000423  -0.000001   0.000005  -0.000003
    30  H   -0.026689   0.000718  -0.002272   0.000003  -0.000039   0.000016
    31  H    0.465884   0.000156   0.000599   0.000005   0.000000   0.000009
    32  H    0.000156   0.478769  -0.026419  -0.004602  -0.004027   0.006786
    33  H    0.000599  -0.026419   0.474717  -0.004487   0.006930  -0.004804
    34  H    0.000005  -0.004602  -0.004487   0.468583  -0.025401  -0.027410
    35  H    0.000000  -0.004027   0.006930  -0.025401   0.459850  -0.027586
    36  H    0.000009   0.006786  -0.004804  -0.027410  -0.027586   0.487212
    37  C    0.002823  -0.000002   0.000007   0.000000   0.000003  -0.000009
    38  C    0.000282   0.000001  -0.000001   0.000000   0.000000   0.000000
    39  C   -0.000010   0.000000   0.000000   0.000000   0.000000   0.000000
    40  H    0.001084   0.000003   0.000018   0.000000   0.000000  -0.000015
    41  H   -0.002259   0.000002  -0.000011   0.000000   0.000000   0.000000
    42  H   -0.000002   0.000000   0.000000   0.000000   0.000000   0.000000
    43  H    0.000000   0.000000   0.000000   0.000000   0.000000   0.000000
    44  H   -0.000008   0.000000   0.000000   0.000000   0.000000   0.000000
              37         38         39         40         41         42
     1  C    0.000561  -0.000455  -0.000022   0.000508   0.000675  -0.000016
     2  C   -0.078446   0.008479  -0.000058  -0.001118  -0.012298   0.000060
     3  C    0.305103  -0.051883  -0.003232  -0.042583  -0.040647  -0.001893
     4  C   -0.080822  -0.024187   0.001975   0.000665   0.008058  -0.000422
     5  C    0.004455   0.000321   0.000022  -0.000379  -0.000145  -0.000019
     6  H    0.004317  -0.000286  -0.000050   0.003651  -0.000137  -0.000001
     7  H    0.006080  -0.000222  -0.000005   0.000401  -0.000375   0.000012
     8  H   -0.005274   0.002817   0.001317   0.000318  -0.000034   0.000160
     9  H   -0.006732   0.001406   0.003576  -0.001894   0.000913  -0.000042
    10  O   -0.000272  -0.000019   0.000000  -0.000065  -0.000018   0.000001
    11  O   -0.000092  -0.000018   0.000001   0.000005   0.000005   0.000000
    12  C   -0.000439   0.000010   0.000000   0.000022  -0.000012   0.000001
    13  C    0.000012   0.000000   0.000000  -0.000013   0.000001   0.000000
    14  C   -0.019363  -0.000095  -0.000032  -0.001561   0.003316  -0.000081
    15  O   -0.078493   0.008438   0.000978   0.003880   0.002050   0.004226
    16  Si   0.000199   0.001154   0.000504  -0.000036   0.000290   0.001127
    17  C    0.000031  -0.000211  -0.000024   0.000009   0.000020   0.000274
    18  C   -0.000284   0.000027   0.000001   0.000010   0.000001   0.000019
    19  C    0.000057  -0.000075  -0.000002   0.000000  -0.000080   0.000142
    20  H    0.000005   0.000000   0.000000   0.000000   0.000001   0.000000
    21  H   -0.000055   0.000010   0.000000   0.000001  -0.000004   0.000001
    22  H   -0.000065   0.000006   0.000000   0.000000   0.000002   0.000001
    23  H    0.000082  -0.000011  -0.000003  -0.000002  -0.000013   0.000252
    24  H    0.000002   0.000000   0.000000   0.000000   0.000002  -0.000007
    25  H    0.000007   0.000006   0.000000  -0.000002  -0.000018  -0.000017
    26  H    0.000088   0.000211   0.000008   0.000003   0.000004   0.000505
    27  H   -0.000039  -0.000093  -0.000008   0.000001   0.000008  -0.000002
    28  H    0.000000   0.000000   0.000000   0.000000   0.000000  -0.000002
    29  H   -0.004645  -0.000326  -0.000009   0.000215   0.002209   0.000018
    30  H    0.000446   0.000016   0.000001  -0.000154   0.000343   0.000001
    31  H    0.002823   0.000282  -0.000010   0.001084  -0.002259  -0.000002
    32  H   -0.000002   0.000001   0.000000   0.000003   0.000002   0.000000
    33  H    0.000007  -0.000001   0.000000   0.000018  -0.000011   0.000000
    34  H    0.000000   0.000000   0.000000   0.000000   0.000000   0.000000
    35  H    0.000003   0.000000   0.000000   0.000000   0.000000   0.000000
    36  H   -0.000009   0.000000   0.000000  -0.000015   0.000000   0.000000
    37  C    5.451346   0.329079  -0.064557   0.388026   0.390331  -0.047912
    38  C    0.329079   5.066820   0.614336  -0.048632  -0.040078   0.398049
    39  C   -0.064557   0.614336   5.154038   0.002016   0.000676  -0.040774
    40  H    0.388026  -0.048632   0.002016   0.466401  -0.020917   0.005365
    41  H    0.390331  -0.040078   0.000676  -0.020917   0.448175  -0.001664
    42  H   -0.047912   0.398049  -0.040774   0.005365  -0.001664   0.459682
    43  H    0.006296  -0.038470   0.392538   0.000140  -0.000314  -0.007766
    44  H   -0.009066  -0.039511   0.386672   0.004858   0.000183   0.005950
              43         44
     1  C   -0.000001  -0.000003
     2  C    0.000017  -0.000047
     3  C   -0.000352   0.000167
     4  C    0.000084  -0.000109
     5  C   -0.000001  -0.000003
     6  H   -0.000003   0.000006
     7  H   -0.000001   0.000001
     8  H    0.000064  -0.000021
     9  H    0.000038   0.000282
    10  O    0.000000   0.000001
    11  O    0.000000   0.000000
    12  C    0.000000   0.000000
    13  C    0.000000   0.000000
    14  C    0.000000  -0.000012
    15  O    0.000012   0.000000
    16  Si   0.000005   0.000001
    17  C    0.000001   0.000000
    18  C    0.000000   0.000000
    19  C    0.000000   0.000000
    20  H    0.000000   0.000000
    21  H    0.000000   0.000000
    22  H    0.000000   0.000000
    23  H   -0.000001   0.000000
    24  H    0.000000   0.000000
    25  H    0.000000   0.000000
    26  H   -0.000001   0.000001
    27  H    0.000000   0.000000
    28  H    0.000000   0.000000
    29  H    0.000000   0.000001
    30  H    0.000000   0.000000
    31  H    0.000000  -0.000008
    32  H    0.000000   0.000000
    33  H    0.000000   0.000000
    34  H    0.000000   0.000000
    35  H    0.000000   0.000000
    36  H    0.000000   0.000000
    37  C    0.006296  -0.009066
    38  C   -0.038470  -0.039511
    39  C    0.392538   0.386672
    40  H    0.000140   0.004858
    41  H   -0.000314   0.000183
    42  H   -0.007766   0.005950
    43  H    0.454838  -0.034324
    44  H   -0.034324   0.466597
 Mulliken charges:
               1
     1  C   -0.016332
     2  C   -0.326574
     3  C    0.236052
     4  C   -0.698333
     5  C    0.506783
     6  H    0.235925
     7  H    0.282197
     8  H    0.296892
     9  H    0.292493
    10  O   -0.320078
    11  O   -0.381376
    12  C   -0.457724
    13  C   -0.661830
    14  C   -0.714385
    15  O   -0.626937
    16  Si   1.411028
    17  C   -1.080356
    18  C   -1.083742
    19  C   -1.039803
    20  H    0.243839
    21  H    0.255037
    22  H    0.241744
    23  H    0.240094
    24  H    0.232099
    25  H    0.239908
    26  H    0.241123
    27  H    0.254365
    28  H    0.238870
    29  H    0.255038
    30  H    0.247335
    31  H    0.240097
    32  H    0.235075
    33  H    0.245187
    34  H    0.230841
    35  H    0.241253
    36  H    0.221863
    37  C   -0.492790
    38  C   -0.186893
    39  C   -0.449874
    40  H    0.239770
    41  H    0.261759
    42  H    0.224776
    43  H    0.227198
    44  H    0.218383
 Sum of Mulliken charges =   0.00000
 Mulliken charges with hydrogens summed into heavy atoms:
               1
     1  C    0.219593
     2  C   -0.044376
     3  C    0.236052
     4  C   -0.108947
     5  C    0.506783
    10  O   -0.320078
    11  O   -0.381376
    12  C    0.022537
    13  C    0.032127
    14  C    0.028085
    15  O   -0.626937
    16  Si   1.411028
    17  C   -0.345999
    18  C   -0.343121
    19  C   -0.327701
    37  C    0.008740
    38  C    0.037883
    39  C   -0.004292
 Electronic spatial extent (au):  <R**2>=           5327.8077
 Charge=              0.0000 electrons
 Dipole moment (field-independent basis, Debye):
    X=             -1.0743    Y=              2.6054    Z=             -3.6697  Tot=              4.6270
 Quadrupole moment (field-independent basis, Debye-Ang):
   XX=           -111.9065   YY=           -120.2112   ZZ=           -128.1467
   XY=             -6.4938   XZ=              6.4162   YZ=              9.8138
 Traceless Quadrupole moment (field-independent basis, Debye-Ang):
   XX=              8.1816   YY=             -0.1230   ZZ=             -8.0586
   XY=             -6.4938   XZ=              6.4162   YZ=              9.8138
 Octapole moment (field-independent basis, Debye-Ang**2):
  XXX=            -15.7075  YYY=             -2.3950  ZZZ=            -28.1892  XYY=              2.1625
  XXY=             -1.9627  XXZ=             -2.7490  XZZ=             -4.3816  YZZ=             16.8523
  YYZ=              1.8402  XYZ=             -4.2500
 Hexadecapole moment (field-independent basis, Debye-Ang**3):
 XXXX=          -3740.3300 YYYY=          -2215.0140 ZZZZ=          -1353.9647 XXXY=             -0.2420
 XXXZ=             50.6339 YYYX=            -33.2596 YYYZ=             54.0757 ZZZX=             -1.5992
 ZZZY=             36.6790 XXYY=           -949.4085 XXZZ=           -865.3497 YYZZ=           -597.6004
 XXYZ=             17.9230 YYXZ=             21.7037 ZZXY=              0.4681
 N-N= 1.637408338881D+03 E-N=-5.770237705913D+03  KE= 1.060525868930D+03
 1\1\GINC-CPU-E-609\SP\RmPW1PW91\6-311G(d)\C14H26O3Si1\KE291\06-Feb-201
 9\0\\# mPW1PW91/6-311g(d) geom=checkpoint nmr=giao scrf=(solvent=chlor
 oform)\\P_ng_2ginp005\\0,1\C,0,-0.0208590907,0.2593758819,1.1370348313
 \C,0,-1.0513363601,1.0854972886,0.3460924394\C,0,-2.3680015019,1.25132
 78772,1.1795540009\C,0,-2.0335569636,1.1443144315,2.6960852496\C,0,-0.
 6369781589,1.5801831301,3.0646247973\H,0,-0.4595563566,-0.6890847018,1
 .4791020793\H,0,-0.6173900471,2.090065878,0.2866509071\H,0,-2.75579156
 5,1.696692726,3.2940110369\H,0,-2.1164760344,0.0918755712,2.9947979396
 \O,0,0.3513833294,1.0349753923,2.320921279\O,0,-0.3556423948,2.3359593
 053,3.9728546097\C,0,1.2870749903,-0.0367945164,0.4085118566\C,0,2.306
 5844578,-0.789770746,1.2693426391\C,0,-1.277035913,0.6026457716,-1.091
 9155628\O,0,-2.970067288,2.5013939024,0.8503031587\Si,0,-2.7542040088,
 4.1248762908,1.2520225562\C,0,-3.2079449876,4.4648484684,3.050930449\C
 ,0,-0.9913289724,4.7256321973,0.9404470038\C,0,-3.9448702181,5.0123536
 903,0.0978546355\H,0,-0.9438908334,5.8059988561,1.123123214\H,0,-0.261
 6282807,4.2541328569,1.6063771355\H,0,-0.6749367297,4.5531489537,-0.09
 3737677\H,0,-4.9749707335,4.6754558287,0.2535075773\H,0,-3.9165699213,
 6.0940453478,0.2702677225\H,0,-3.6875456663,4.833124584,-0.9512082655\
 H,0,-4.2011079744,4.0759694362,3.3002288037\H,0,-2.4814756807,4.028568
 4348,3.7435510159\H,0,-3.2231375975,5.5472522277,3.2259707105\H,0,-2.0
 604193936,1.1983311263,-1.5682303474\H,0,-0.3686605866,0.7219920456,-1
 .6872350199\H,0,-1.5733758703,-0.4498881407,-1.1407008184\H,0,1.714919
 032,0.909481349,0.0547215765\H,0,1.0515974725,-0.6315849864,-0.4800192
 563\H,0,3.2151740397,-0.9954056896,0.6957744325\H,0,2.5847668418,-0.20
 88156153,2.1519523747\H,0,1.9027549819,-1.7496861723,1.6106052332\C,0,
 -3.4293815866,0.1745888363,0.8314692397\C,0,-4.6636644329,0.23185613,1
 .6883384416\C,0,-5.1399800145,-0.7851612962,2.4082599804\H,0,-2.975747
 8507,-0.8212926245,0.9018848921\H,0,-3.7174501731,0.3302362846,-0.2139
 653756\H,0,-5.1926626911,1.183455045,1.6896379791\H,0,-6.047795418,-0.
 6914441993,2.9971445159\H,0,-4.6442758492,-1.753442457,2.4290570088\\V
 ersion=ES64L-G09RevD.01\State=1-A\HF=-1064.3848129\RMSD=9.297e-09\Dipo
 le=-0.4233547,-1.0066005,-1.4564859\Quadrupole=-2.088528,7.5813863,-5.
 4928583,-3.4183363,-8.6588293,-1.7573074\PG=C01 [X(C14H26O3Si1)]\\@


 TIMES HAVE CHANGED. IN THE BIBLE WHEN AN ASS
 SPOKE IT WAS CONSIDERED A MIRACLE.
 Job cpu time:       0 days  0 hours 21 minutes 39.3 seconds.
 File lengths (MBytes):  RWF=    237 Int=      0 D2E=      0 Chk=     19 Scr=      1
 Normal termination of Gaussian 09 at Wed Feb  6 11:22:15 2019.
