 Entering Gaussian System, Link 0=/usr/local/Cluster-Apps/gaussian/g09/g09
 Initial command:
 /usr/local/Cluster-Apps/gaussian/g09/l1.exe "/home/ke291/rds/hpc-work/06Feb0927IP1/Gau-377072.inp" -scrdir="/home/ke291/rds/hpc-work/06Feb0927IP1/"
 Entering Link 1 = /usr/local/Cluster-Apps/gaussian/g09/l1.exe PID=    377077.
  
 Copyright (c) 1988,1990,1992,1993,1995,1998,2003,2009,2013,
            Gaussian, Inc.  All Rights Reserved.
  
 This is part of the Gaussian(R) 09 program.  It is based on
 the Gaussian(R) 03 system (copyright 2003, Gaussian, Inc.),
 the Gaussian(R) 98 system (copyright 1998, Gaussian, Inc.),
 the Gaussian(R) 94 system (copyright 1995, Gaussian, Inc.),
 the Gaussian 92(TM) system (copyright 1992, Gaussian, Inc.),
 the Gaussian 90(TM) system (copyright 1990, Gaussian, Inc.),
 the Gaussian 88(TM) system (copyright 1988, Gaussian, Inc.),
 the Gaussian 86(TM) system (copyright 1986, Carnegie Mellon
 University), and the Gaussian 82(TM) system (copyright 1983,
 Carnegie Mellon University). Gaussian is a federally registered
 trademark of Gaussian, Inc.
  
 This software contains proprietary and confidential information,
 including trade secrets, belonging to Gaussian, Inc.
  
 This software is provided under written license and may be
 used, copied, transmitted, or stored only in accord with that
 written license.
  
 The following legend is applicable only to US Government
 contracts under FAR:
  
                    RESTRICTED RIGHTS LEGEND
  
 Use, reproduction and disclosure by the US Government is
 subject to restrictions as set forth in subparagraphs (a)
 and (c) of the Commercial Computer Software - Restricted
 Rights clause in FAR 52.227-19.
  
 Gaussian, Inc.
 340 Quinnipiac St., Bldg. 40, Wallingford CT 06492
  
  
 ---------------------------------------------------------------
 Warning -- This program may not be used in any manner that
 competes with the business of Gaussian, Inc. or will provide
 assistance to any competitor of Gaussian, Inc.  The licensee
 of this program is prohibited from giving any competitor of
 Gaussian, Inc. access to this program.  By using this program,
 the user acknowledges that Gaussian, Inc. is engaged in the
 business of creating and licensing software in the field of
 computational chemistry and represents and warrants to the
 licensee that it is not a competitor of Gaussian, Inc. and that
 it will not use this program in any manner prohibited above.
 ---------------------------------------------------------------
  

 Cite this work as:
 Gaussian 09, Revision D.01,
 M. J. Frisch, G. W. Trucks, H. B. Schlegel, G. E. Scuseria, 
 M. A. Robb, J. R. Cheeseman, G. Scalmani, V. Barone, B. Mennucci, 
 G. A. Petersson, H. Nakatsuji, M. Caricato, X. Li, H. P. Hratchian, 
 A. F. Izmaylov, J. Bloino, G. Zheng, J. L. Sonnenberg, M. Hada, 
 M. Ehara, K. Toyota, R. Fukuda, J. Hasegawa, M. Ishida, T. Nakajima, 
 Y. Honda, O. Kitao, H. Nakai, T. Vreven, J. A. Montgomery, Jr., 
 J. E. Peralta, F. Ogliaro, M. Bearpark, J. J. Heyd, E. Brothers, 
 K. N. Kudin, V. N. Staroverov, T. Keith, R. Kobayashi, J. Normand, 
 K. Raghavachari, A. Rendell, J. C. Burant, S. S. Iyengar, J. Tomasi, 
 M. Cossi, N. Rega, J. M. Millam, M. Klene, J. E. Knox, J. B. Cross, 
 V. Bakken, C. Adamo, J. Jaramillo, R. Gomperts, R. E. Stratmann, 
 O. Yazyev, A. J. Austin, R. Cammi, C. Pomelli, J. W. Ochterski, 
 R. L. Martin, K. Morokuma, V. G. Zakrzewski, G. A. Voth, 
 P. Salvador, J. J. Dannenberg, S. Dapprich, A. D. Daniels, 
 O. Farkas, J. B. Foresman, J. V. Ortiz, J. Cioslowski, 
 and D. J. Fox, Gaussian, Inc., Wallingford CT, 2013.
 
 ******************************************
 Gaussian 09:  ES64L-G09RevD.01 24-Apr-2013
                 6-Feb-2019 
 ******************************************
 %nprocshared=2
 Will use up to    2 processors via shared memory.
 %mem=6000MB
 %chk=/home/ke291/rds/hpc-work/06Feb0927IP1/P_ng_correct1ginp002.chk
 ----------------------------------------------------------------------
 # mPW1PW91/6-311g(d) geom=checkpoint nmr=giao scrf=(solvent=chloroform
 )
 ----------------------------------------------------------------------
 1/29=2,38=1/1;
 2/12=2,40=1/2;
 3/5=4,6=6,7=1,11=2,14=-4,16=1,25=1,30=1,70=2201,72=7,74=-7/1,2,8,3;
 4//1;
 5/5=2,38=5,53=7/2;
 8/6=1,10=90,11=11/1;
 10/13=100,45=16/2;
 6/7=2,8=2,9=2,10=2,28=1/1;
 99/9=1/99;
 --------------------
 P_ng_correct1ginp002
 --------------------
 Structure from the checkpoint file:  "/home/ke291/rds/hpc-work/06Feb0927IP1/P_ng_correct1ginp002.chk"
 Charge =  0 Multiplicity = 1
 Redundant internal coordinates found in file.
 C,0,1.0156218512,-0.4838270299,0.6217013276
 C,0,-0.5201905822,-0.5028380694,0.6237931753
 C,0,-1.0924787805,0.59165499,1.5680637812
 C,0,-0.5565026481,1.9415955654,1.0681539272
 C,0,0.9429498925,1.9965161934,0.8428952712
 H,0,1.3694938903,-0.8798644497,1.5814546685
 H,0,-0.8716471406,-0.2285844438,-0.3781849655
 H,0,-1.0067342023,2.1744525713,0.0955443373
 H,0,-0.812728281,2.7553007258,1.7487436464
 O,0,1.5927885153,0.8573783199,0.5263486024
 O,0,1.5682984498,3.0358724252,0.8694059483
 C,0,1.6866114795,-1.2933098742,-0.4952166663
 C,0,1.3215015312,-0.8702826581,-1.9211043863
 C,0,-1.0368856322,-1.9156532899,0.9349482707
 O,0,-2.5159422414,0.5466455667,1.5290756773
 Si,0,-3.7405444911,1.2065906664,0.5827827657
 C,0,-3.9533776511,3.0489136108,0.9315482253
 C,0,-3.4562062827,0.9330310775,-1.2646951458
 C,0,-5.2747529969,0.2702060723,1.1363500478
 H,0,-2.5900432035,1.4795212324,-1.6522955579
 H,0,-3.3169370075,-0.1281263422,-1.4969727582
 H,0,-4.3327503868,1.2806461307,-1.8243987691
 H,0,-6.1644402078,0.634136287,0.6104557276
 H,0,-5.1801178459,-0.8017177553,0.9337946129
 H,0,-5.4472821428,0.3940462934,2.2104881335
 H,0,-4.0773546073,3.2335230188,2.0039255201
 H,0,-3.1044216319,3.6469877484,0.585723748
 H,0,-4.84956198,3.4249900715,0.4242000904
 H,0,-0.8439451359,-2.5963088755,0.1016231905
 H,0,-0.5604684487,-2.3394897749,1.8252810359
 H,0,-2.1146382808,-1.8896859014,1.1074790117
 H,0,1.4514144816,-2.3515980569,-0.3385240875
 H,0,2.7683937203,-1.1956547731,-0.3514850797
 H,0,1.92123614,-1.428193902,-2.646250559
 H,0,0.2688547806,-1.0603406367,-2.1529896751
 H,0,1.5171461545,0.1950264495,-2.0749609132
 C,0,-0.6974524253,0.3618635355,3.0526675101
 C,0,-1.2793539789,1.3721641149,4.003408069
 C,0,-0.5642148226,2.1637347413,4.8045321381
 H,0,0.3938865339,0.358628476,3.1502427542
 H,0,-1.0516631983,-0.637155711,3.3342376248
 H,0,-2.3658540912,1.4296600726,4.0237830117
 H,0,-1.039243209,2.8659475102,5.4835383455
 H,0,0.5231841134,2.1362100771,4.8151003673
 Recover connectivity data from disk.
                          Input orientation:                          
 ---------------------------------------------------------------------
 Center     Atomic      Atomic             Coordinates (Angstroms)
 Number     Number       Type             X           Y           Z
 ---------------------------------------------------------------------
      1          6           0        1.015622   -0.483827    0.621701
      2          6           0       -0.520191   -0.502838    0.623793
      3          6           0       -1.092479    0.591655    1.568064
      4          6           0       -0.556503    1.941596    1.068154
      5          6           0        0.942950    1.996516    0.842895
      6          1           0        1.369494   -0.879864    1.581455
      7          1           0       -0.871647   -0.228584   -0.378185
      8          1           0       -1.006734    2.174453    0.095544
      9          1           0       -0.812728    2.755301    1.748744
     10          8           0        1.592789    0.857378    0.526349
     11          8           0        1.568298    3.035872    0.869406
     12          6           0        1.686611   -1.293310   -0.495217
     13          6           0        1.321502   -0.870283   -1.921104
     14          6           0       -1.036886   -1.915653    0.934948
     15          8           0       -2.515942    0.546646    1.529076
     16         14           0       -3.740544    1.206591    0.582783
     17          6           0       -3.953378    3.048914    0.931548
     18          6           0       -3.456206    0.933031   -1.264695
     19          6           0       -5.274753    0.270206    1.136350
     20          1           0       -2.590043    1.479521   -1.652296
     21          1           0       -3.316937   -0.128126   -1.496973
     22          1           0       -4.332750    1.280646   -1.824399
     23          1           0       -6.164440    0.634136    0.610456
     24          1           0       -5.180118   -0.801718    0.933795
     25          1           0       -5.447282    0.394046    2.210488
     26          1           0       -4.077355    3.233523    2.003926
     27          1           0       -3.104422    3.646988    0.585724
     28          1           0       -4.849562    3.424990    0.424200
     29          1           0       -0.843945   -2.596309    0.101623
     30          1           0       -0.560468   -2.339490    1.825281
     31          1           0       -2.114638   -1.889686    1.107479
     32          1           0        1.451414   -2.351598   -0.338524
     33          1           0        2.768394   -1.195655   -0.351485
     34          1           0        1.921236   -1.428194   -2.646251
     35          1           0        0.268855   -1.060341   -2.152990
     36          1           0        1.517146    0.195026   -2.074961
     37          6           0       -0.697452    0.361864    3.052668
     38          6           0       -1.279354    1.372164    4.003408
     39          6           0       -0.564215    2.163735    4.804532
     40          1           0        0.393887    0.358628    3.150243
     41          1           0       -1.051663   -0.637156    3.334238
     42          1           0       -2.365854    1.429660    4.023783
     43          1           0       -1.039243    2.865948    5.483538
     44          1           0        0.523184    2.136210    4.815100
 ---------------------------------------------------------------------
                    Distance matrix (angstroms):
                    1          2          3          4          5
     1  C    0.000000
     2  C    1.535932   0.000000
     3  C    2.548794   1.554695   0.000000
     4  C    2.924649   2.484760   1.536073   0.000000
     5  C    2.491247   2.904403   2.577300   1.517272   0.000000
     6  H    1.096904   2.151783   2.868250   3.454501   3.000163
     7  H    2.150978   1.096675   2.123545   2.626955   3.120076
     8  H    3.381304   2.771941   2.163542   1.096768   2.095582
     9  H    3.886520   3.459272   2.189125   1.091316   2.116299
    10  O    1.463231   2.514829   2.892480   2.467495   1.349121
    11  O    3.571427   4.116380   3.679953   2.398275   1.213270
    12  C    1.533948   2.597500   3.941264   4.235599   3.628572
    13  C    2.590130   3.162807   4.487634   4.513228   4.000191
    14  C    2.522110   1.536176   2.586604   3.889329   4.385578
    15  O    3.789083   2.429810   1.424708   2.449028   3.812729
    16  Si   5.047786   3.646163   2.891570   3.303625   4.756759
    17  C    6.104688   4.949386   3.824659   3.575412   5.008934
    18  C    5.056009   3.774692   3.705168   3.855862   4.992546
    19  C    6.356276   4.844190   4.216767   5.006004   6.459574
    20  H    4.693252   3.659866   3.660836   3.427776   4.356065
    21  H    4.835946   3.529851   3.854964   4.299258   5.304312
    22  H    6.140184   4.869299   4.741611   4.802475   5.954825
    23  H    7.266585   5.757642   5.161745   5.776496   7.240518
    24  H    6.211735   4.679781   4.364926   5.377884   6.732781
    25  H    6.712975   5.253402   4.406367   5.255432   6.728543
    26  H    6.455048   5.340279   4.009854   3.865378   5.299211
    27  H    5.834354   4.888840   3.787871   3.103706   4.378517
    28  H    7.051116   5.849028   4.842715   4.587537   5.980722
    29  H    2.862001   2.181765   3.517859   4.648589   4.983625
    30  H    2.715907   2.195105   2.990118   4.347522   4.693218
    31  H    3.465681   2.167847   2.722866   4.136188   4.951910
    32  H    2.144882   2.869006   4.332344   4.943884   4.534356
    33  H    2.127440   3.499421   4.667492   4.786716   3.866361
    34  H    3.520153   4.184499   5.560819   5.593878   4.985962
    35  H    2.930689   2.940055   4.292850   4.479799   4.332909
    36  H    2.825660   3.452684   4.498787   4.150867   3.476917
    37  C    3.091830   2.584291   1.553351   2.540416   3.200953
    38  C    4.488603   3.938751   2.564180   3.076115   3.913731
    39  C    5.196301   4.958944   3.636650   3.742984   4.241942
    40  H    2.736751   2.821455   2.183317   2.782826   2.882360
    41  H    3.413946   2.765323   2.151979   3.468469   4.137813
    42  H    5.164298   4.324460   2.890380   3.503081   4.624668
    43  H    6.251473   5.935929   4.528375   4.536858   5.120602
    44  H    4.969073   5.061646   3.941987   3.904255   3.996765
                    6          7          8          9         10
     6  H    0.000000
     7  H    3.047469   0.000000
     8  H    4.145267   2.453009   0.000000
     9  H    4.243172   3.664815   1.762978   0.000000
    10  O    2.044779   2.840940   2.945810   3.298920   0.000000
    11  O    3.984913   4.262217   2.823420   2.553673   2.205476
    12  C    2.141043   2.773450   4.430405   5.260542   2.382826
    13  C    3.502901   2.757223   4.331047   5.582793   3.008062
    14  C    2.698424   2.144254   4.175461   4.746612   3.843416
    15  O    4.139358   2.634830   2.642438   2.797740   4.240717
    16  Si   5.609201   3.348695   2.940727   3.511421   5.345051
    17  C    6.647604   4.685558   3.185325   3.258481   5.977204
    18  C    5.888509   2.969040   3.064522   4.403346   5.357790
    19  C    6.757721   4.682942   4.788049   5.143966   6.919538
    20  H    5.630433   2.737493   2.458606   4.043950   4.757061
    21  H    5.657248   2.690952   3.629741   5.011974   5.400968
    22  H    6.984500   4.043334   3.943026   5.228050   6.388832
    23  H    7.745657   5.453013   5.407369   5.868207   7.760896
    24  H    6.582020   4.540120   5.193976   5.691275   6.985046
    25  H    6.963258   5.293896   5.230803   5.221860   7.253523
    26  H    6.838611   5.285565   3.767261   3.309320   6.322960
    27  H    6.442033   4.575419   2.609392   2.720217   5.463445
    28  H    7.651645   5.460424   4.054526   4.301038   6.935917
    29  H    3.167869   2.416010   4.773542   5.599438   4.248060
    30  H    2.432018   3.067249   4.854567   5.101606   4.067396
    31  H    3.658356   2.551761   4.332284   4.866425   4.650708
    32  H    2.420543   3.147281   5.168757   5.963509   3.326488
    33  H    2.406844   3.766409   5.080261   5.731095   2.523407
    34  H    4.298671   3.792543   5.391615   6.655236   3.923914
    35  H    3.897442   2.267707   4.140884   5.563494   3.550958
    36  H    3.813996   2.960545   3.872879   5.157910   2.685376
    37  C    2.824646   3.485645   3.482199   2.728012   3.445726
    38  C    4.237203   4.682625   3.998673   2.685948   4.539179
    39  C    4.836420   5.716490   4.729747   3.122427   4.966094
    40  H    2.224134   3.794232   3.819704   3.027236   2.927616
    41  H    2.998859   3.739173   4.289090   3.752285   4.136544
    42  H    5.025107   4.935560   4.222912   3.057013   5.313229
    43  H    5.921096   6.630537   5.432283   3.743293   5.961180
    44  H    4.502156   5.874353   4.961484   3.401541   4.601397
                   11         12         13         14         15
    11  O    0.000000
    12  C    4.540706   0.000000
    13  C    4.806860   1.531474   0.000000
    14  C    5.595434   3.138490   3.848614   0.000000
    15  O    4.828295   5.014444   5.351393   2.933174   0.000000
    16  Si   5.622476   6.071705   6.017239   4.145142   1.682453
    17  C    5.522041   7.259479   7.163943   5.757852   2.946965
    18  C    5.849955   5.656613   5.148719   4.336651   2.972969
    19  C    7.385629   7.318961   7.359301   4.772637   2.800302
    20  H    5.106174   5.226586   4.570998   4.542394   3.316153
    21  H    6.283006   5.234182   4.716545   3.782608   3.202168
    22  H    6.720103   6.680172   6.050323   5.356589   3.883985
    23  H    8.101274   8.159447   8.044339   5.735725   3.763383
    24  H    7.763528   7.031053   7.101141   4.290364   3.044713
    25  H    7.615518   7.814118   8.030256   5.139388   3.013364
    26  H    5.761909   7.743464   7.835479   6.074634   3.143692
    27  H    4.721043   6.966274   6.802846   5.944715   3.293682
    28  H    6.445041   8.113522   7.876030   6.581781   3.866704
    29  H    6.174939   2.908220   3.429250   1.093137   3.835539
    30  H    5.860023   3.395375   4.442498   1.095127   3.498770
    31  H    6.154821   4.168189   4.692394   1.091784   2.504895
    32  H    5.522463   1.095374   2.171574   2.829031   5.256202
    33  H    4.564715   1.095650   2.159414   4.080865   5.873357
    34  H    5.693180   2.167992   1.093976   4.670448   6.404833
    35  H    5.253798   2.193746   1.094513   3.460040   4.888262
    36  H    4.091738   2.177029   1.093998   4.476338   5.420195
    37  C    4.129235   4.583758   5.507519   3.128423   2.379576
    38  C    4.549617   6.011599   6.847837   4.503774   2.886685
    39  C    4.559984   6.716004   7.615469   5.642562   4.141598
    40  H    3.707977   4.205878   5.299930   3.482384   3.336261
    41  H    5.141083   4.753252   5.771038   2.718706   2.608469
    42  H    5.292218   6.652699   7.363967   4.743225   2.650624
    43  H    5.302675   7.776581   8.623298   6.599499   4.816386
    44  H    4.179732   6.427646   7.419755   5.822971   4.749838
                   16         17         18         19         20
    16  Si   0.000000
    17  C    1.887085   0.000000
    18  C    1.889142   3.089923   0.000000
    19  C    1.880704   3.083698   3.084067   0.000000
    20  H    2.528581   3.316311   1.095045   4.055447   0.000000
    21  H    2.507249   4.049241   1.095173   3.305465   1.771166
    22  H    2.480064   3.296352   1.096555   3.267169   1.762441
    23  H    2.490731   3.289840   3.307576   1.095698   4.314051
    24  H    2.495773   4.041319   3.288553   1.094991   4.312818
    25  H    2.494515   3.303900   4.041261   1.094932   4.925766
    26  H    2.498308   1.095191   4.044993   3.311751   4.319325
    27  H    2.521943   1.094538   3.303538   4.051689   3.157725
    28  H    2.485229   1.096349   3.317178   3.261994   3.633471
    29  H    4.804565   6.498145   4.598584   5.377697   4.768383
    30  H    4.922537   6.430045   5.351882   5.432276   5.549555
    31  H    3.536355   5.272730   3.923614   3.827831   4.381087
    32  H    6.361285   7.745346   5.977568   7.368205   5.721613
    33  H    7.000708   8.052624   6.641604   8.309910   6.128745
    34  H    7.030256   8.207084   6.033321   8.305112   5.458424
    35  H    5.357118   6.650383   4.317254   6.581922   3.856798
    36  H    5.977472   6.863702   5.092683   7.513193   4.324070
    37  C    4.009277   4.724451   5.155247   4.963099   5.193047
    38  C    4.217292   4.404340   5.717030   5.039598   5.806584
    39  C    5.369205   5.222066   6.834747   6.263400   6.801673
    40  H    4.940082   5.573055   5.885986   6.016399   5.764079
    41  H    4.266144   5.270671   5.421946   4.846494   5.631381
    42  H    3.712144   3.834596   5.422500   4.259495   5.680723
    43  H    5.836771   5.407982   7.424051   6.601171   7.432852
    44  H    6.079152   5.996216   7.365263   7.115564   7.207679
                   21         22         23         24         25
    21  H    0.000000
    22  H    1.767406   0.000000
    23  H    3.623613   3.114736   0.000000
    24  H    3.135889   3.558357   1.770626   0.000000
    25  H    4.307703   4.278849   1.769763   1.769513   0.000000
    26  H    4.912760   4.305232   3.613101   4.317920   3.159430
    27  H    4.316743   3.594030   4.294368   4.921448   4.325562
    28  H    4.320241   3.149842   3.090706   4.270130   3.568573
    29  H    3.842281   5.559865   6.245186   4.766074   5.880497
    30  H    4.850321   6.376179   6.459315   4.949813   5.612624
    31  H    3.366271   4.854579   4.797667   3.257454   4.187908
    32  H    5.387300   6.989820   8.235072   6.928069   7.850353
    33  H    6.283551   7.663406   9.168914   8.061387   8.751468
    34  H    5.518104   6.864809   8.957539   7.977370   9.011300
    35  H    3.762617   5.173293   7.203830   6.267888   7.336852
    36  H    4.879227   5.955052   8.149297   7.409417   8.179728
    37  C    5.272667   6.151856   5.993871   5.092920   4.824022
    38  C    6.054486   6.579889   5.993403   5.418879   4.641433
    39  C    7.248384   7.676225   7.161876   6.714393   5.805619
    40  H    5.966888   6.923747   7.038329   6.109711   5.916388
    41  H    5.360146   6.407420   5.930907   4.778425   4.652704
    42  H    5.814637   6.171881   5.168454   4.737843   3.722329
    43  H    7.929685   8.171066   7.415899   7.162317   6.021126
    44  H    7.727614   8.270129   8.041118   7.498240   6.742819
                   26         27         28         29         30
    26  H    0.000000
    27  H    1.768855   0.000000
    28  H    1.768756   1.766603   0.000000
    29  H    6.932578   6.657542   7.239134   0.000000
    30  H    6.592334   6.621640   7.320422   1.765591   0.000000
    31  H    5.559059   5.648598   6.016017   1.767971   1.770030
    32  H    8.200484   7.588999   8.582134   2.349955   2.954636
    33  H    8.487040   7.669388   8.943450   3.900786   4.138598
    34  H    8.907235   7.839666   8.878331   4.069586   5.194604
    35  H    7.389638   6.406129   7.277245   2.946320   4.260356
    36  H    7.560967   6.352493   7.563957   4.254859   5.094325
    37  C    4.557414   4.761444   5.790648   4.181017   2.970278
    38  C    3.910421   4.492912   5.456300   5.582319   4.363188
    39  C    4.618441   5.143057   6.256379   6.697284   5.399535
    40  H    5.437928   5.443181   6.657900   4.422439   3.153753
    41  H    5.089862   5.488354   6.276415   3.785660   2.327265
    42  H    3.203589   4.157196   4.806989   5.823055   4.722215
    43  H    4.633890   5.372483   6.358299   7.670684   6.380333
    44  H    5.501977   5.773179   7.057433   6.817818   5.490466
                   31         32         33         34         35
    31  H    0.000000
    32  H    3.875696   0.000000
    33  H    5.143370   1.752372   0.000000
    34  H    5.530980   2.529626   2.457173   0.000000
    35  H    4.123046   2.521523   3.084060   1.763232   0.000000
    36  H    5.259639   3.082990   2.543616   1.767627   1.772080
    37  C    3.295702   4.845687   5.101589   6.522231   5.482270
    38  C    4.441145   6.338444   6.476345   7.893272   6.798181
    39  C    5.701073   7.134565   6.998306   8.636758   7.713351
    40  H    3.939606   4.542597   4.507347   6.254987   5.491209
    41  H    2.767165   4.763810   5.337538   6.725334   5.659728
    42  H    4.425607   6.920923   7.238491   8.428275   7.162005
    43  H    6.551520   8.205033   8.064875   9.659066   8.685817
    44  H    6.075558   6.896512   6.544914   8.386375   7.670521
                   36         37         38         39         40
    36  H    0.000000
    37  C    5.587920   0.000000
    38  C    6.793573   1.504402   0.000000
    39  C    7.452201   2.516649   1.334094   0.000000
    40  H    5.347077   1.095697   2.134216   2.629266   0.000000
    41  H    6.045721   1.096716   2.130023   3.200681   1.764952
    42  H    7.334623   2.206087   1.088211   2.096268   3.086479
    43  H    8.414265   3.506621   2.116560   1.086188   3.712786
    44  H    7.226970   2.782881   2.119376   1.087799   2.438907
                   41         42         43         44
    41  H    0.000000
    42  H    2.544464   0.000000
    43  H    4.109912   2.440021   0.000000
    44  H    3.516341   3.077651   1.849461   0.000000
 Stoichiometry    C14H26O3Si
 Framework group  C1[X(C14H26O3Si)]
 Deg. of freedom   126
 Full point group                 C1      NOp   1
 Largest Abelian subgroup         C1      NOp   1
 Largest concise Abelian subgroup C1      NOp   1
                         Standard orientation:                         
 ---------------------------------------------------------------------
 Center     Atomic      Atomic             Coordinates (Angstroms)
 Number     Number       Type             X           Y           Z
 ---------------------------------------------------------------------
      1          6           0        2.416911   -0.252933    0.576080
      2          6           0        0.967211   -0.723753    0.765246
      3          6           0       -0.039320    0.409065    0.417834
      4          6           0        0.225230    0.813782   -1.040157
      5          6           0        1.675678    1.107729   -1.374685
      6          1           0        2.661910    0.450336    1.381428
      7          1           0        0.763737   -1.519939    0.039033
      8          1           0       -0.067100   -0.008124   -1.704923
      9          1           0       -0.358588    1.689437   -1.328873
     10          8           0        2.642413    0.492251   -0.662829
     11          8           0        1.999114    1.821390   -2.301023
     12          6           0        3.478918   -1.359779    0.581399
     13          6           0        3.308916   -2.436215   -0.494611
     14          6           0        0.774297   -1.308124    2.172773
     15          8           0       -1.367910   -0.074189    0.594209
     16         14           0       -2.506861   -0.901313   -0.327368
     17          6           0       -3.244426    0.212929   -1.659867
     18          6           0       -1.801806   -2.465347   -1.118286
     19          6           0       -3.831978   -1.362881    0.924857
     20          1           0       -1.043316   -2.257785   -1.880345
     21          1           0       -1.354957   -3.127889   -0.369442
     22          1           0       -2.608765   -3.021177   -1.610531
     23          1           0       -4.662223   -1.887008    0.438505
     24          1           0       -3.430557   -2.019690    1.703618
     25          1           0       -4.239809   -0.472762    1.414999
     26          1           0       -3.621338    1.145671   -1.227001
     27          1           0       -2.523587    0.474587   -2.440853
     28          1           0       -4.087579   -0.292045   -2.145743
     29          1           0        1.294781   -2.263896    2.275464
     30          1           0        1.156138   -0.638360    2.950537
     31          1           0       -0.286925   -1.478992    2.364096
     32          1           0        3.493329   -1.814435    1.577854
     33          1           0        4.449885   -0.868089    0.455252
     34          1           0        4.161986   -3.120984   -0.482446
     35          1           0        2.406440   -3.036256   -0.341495
     36          1           0        3.254716   -1.987762   -1.490997
     37          6           0        0.098391    1.636310    1.360067
     38          6           0       -0.897190    2.730778    1.087702
     39          6           0       -0.579626    3.987760    0.773127
     40          1           0        1.113129    2.044126    1.292654
     41          1           0       -0.039674    1.277010    2.387017
     42          1           0       -1.944497    2.447569    1.172217
     43          1           0       -1.342037    4.742123    0.601458
     44          1           0        0.454799    4.311167    0.679960
 ---------------------------------------------------------------------
 Rotational constants (GHZ):      0.4437602      0.2975754      0.2430223
 Standard basis: 6-311G(d) (5D, 7F)
 There are   428 symmetry adapted cartesian basis functions of A   symmetry.
 There are   410 symmetry adapted basis functions of A   symmetry.
   410 basis functions,   720 primitive gaussians,   428 cartesian basis functions
    74 alpha electrons       74 beta electrons
       nuclear repulsion energy      1632.9993064244 Hartrees.
 NAtoms=   44 NActive=   44 NUniq=   44 SFac= 1.00D+00 NAtFMM=   60 NAOKFM=F Big=F
 Integral buffers will be    131072 words long.
 Raffenetti 2 integral format.
 Two-electron integral symmetry is turned on.
 ------------------------------------------------------------------------------
 Polarizable Continuum Model (PCM)
 =================================
 Model                : PCM (using non-symmetric T matrix).
 Atomic radii         : UFF (Universal Force Field).
 Polarization charges : Total charges.
 Charge compensation  : None.
 Solution method      : On-the-fly selection.
 Cavity type          : Scaled VdW (van der Waals Surface) (Alpha=1.100).
 Cavity algorithm     : GePol (No added spheres)
                        Default sphere list used, NSphG=   44.
                        Lebedev-Laikov grids with approx.  5.0 points / Ang**2.
                        Smoothing algorithm: Karplus/York (Gamma=1.0000).
                        Polarization charges: spherical gaussians, with
                                              point-specific exponents (IZeta= 3).
                        Self-potential: point-specific (ISelfS= 7).
                        Self-field    : sphere-specific E.n sum rule (ISelfD= 2).
 Solvent              : Chloroform, Eps=   4.711300 Eps(inf)=   2.090627
 ------------------------------------------------------------------------------
 One-electron integrals computed using PRISM.
 NBasis=   410 RedAO= T EigKep=  1.12D-03  NBF=   410
 NBsUse=   410 1.00D-06 EigRej= -1.00D+00 NBFU=   410
 ExpMin= 6.54D-02 ExpMax= 6.94D+04 ExpMxC= 2.33D+03 IAcc=2 IRadAn=         4 AccDes= 0.00D+00
 Harris functional with IExCor=  908 and IRadAn=       4 diagonalized for initial guess.
 HarFok:  IExCor=  908 AccDes= 0.00D+00 IRadAn=         4 IDoV= 1 UseB2=F ITyADJ=14
 ICtDFT=  3500011 ScaDFX=  1.000000  1.000000  1.000000  1.000000
 FoFCou: FMM=F IPFlag=           0 FMFlag=      100000 FMFlg1=           0
         NFxFlg=           0 DoJE=T BraDBF=F KetDBF=T FulRan=T
         wScrn=  0.000000 ICntrl=     500 IOpCl=  0 I1Cent=   200000004 NGrid=           0
         NMat0=    1 NMatS0=      1 NMatT0=    0 NMatD0=    1 NMtDS0=    0 NMtDT0=    0
 Petite list used in FoFCou.
 Requested convergence on RMS density matrix=1.00D-08 within 128 cycles.
 Requested convergence on MAX density matrix=1.00D-06.
 Requested convergence on             energy=1.00D-06.
 No special actions if energy rises.
 Inv3:  Mode=1 IEnd=    26107500.
 Iteration    1 A*A^-1 deviation from unit magnitude is 6.22D-15 for   1441.
 Iteration    1 A*A^-1 deviation from orthogonality  is 4.12D-15 for   2782   1622.
 Iteration    1 A^-1*A deviation from unit magnitude is 5.88D-15 for   2946.
 Iteration    1 A^-1*A deviation from orthogonality  is 3.12D-13 for   2246   2220.
 Error on total polarization charges =  0.01117
 SCF Done:  E(RmPW1PW91) =  -1064.38454260     A.U. after   12 cycles
            NFock= 12  Conv=0.91D-08     -V/T= 2.0036
 DoSCS=F DFT=T ScalE2(SS,OS)=  1.000000  1.000000
 Range of M.O.s used for correlation:     1   410
 NBasis=   410 NAE=    74 NBE=    74 NFC=     0 NFV=     0
 NROrb=    410 NOA=    74 NOB=    74 NVA=   336 NVB=   336
 NEqPCM:  Using equilibrium solvation (IEInf=0, Eps=   4.7113, EpsInf=   2.0906)
          Differentiating once with respect to magnetic field using GIAOs.
          Electric field/nuclear overlap derivatives assumed to be zero.
 FoFJK:  IHMeth= 1 ICntrl=    6127 DoSepK=F KAlg= 0 I1Cent=   0 FoldK=F
 IRaf=         1 NMat=   1 IRICut=       1 DoRegI=T DoRafI=F ISym2E= 0.
          There are     3 degrees of freedom in the 1st order CPHF.  IDoFFX=0 NUNeed=     3.
      3 vectors produced by pass  0 Test12= 8.29D-13 3.33D-08 XBig12= 3.47D+01 1.08D+00.
 AX will form     3 AO Fock derivatives at one time.
      3 vectors produced by pass  1 Test12= 8.29D-13 3.33D-08 XBig12= 7.27D-02 9.36D-02.
      3 vectors produced by pass  2 Test12= 8.29D-13 3.33D-08 XBig12= 5.13D-04 7.29D-03.
      3 vectors produced by pass  3 Test12= 8.29D-13 3.33D-08 XBig12= 1.90D-06 2.73D-04.
      3 vectors produced by pass  4 Test12= 8.29D-13 3.33D-08 XBig12= 5.81D-09 2.10D-05.
      3 vectors produced by pass  5 Test12= 8.29D-13 3.33D-08 XBig12= 2.56D-11 1.27D-06.
      2 vectors produced by pass  6 Test12= 8.29D-13 3.33D-08 XBig12= 9.15D-14 5.88D-08.
 InvSVY:  IOpt=1 It=  1 EMax= 8.88D-16
 Solved reduced A of dimension    20 with     3 vectors.
 Calculating GIAO nuclear magnetic shielding tensors.
 SCF GIAO Magnetic shielding tensor (ppm):
      1  C    Isotropic =   102.5774   Anisotropy =    60.0332
   XX=    93.0809   YX=     4.0166   ZX=   -15.9622
   XY=    -0.7423   YY=    89.1179   ZY=   -25.8392
   XZ=    -7.9083   YZ=   -28.4392   ZZ=   125.5333
   Eigenvalues:    73.6503    91.4823   142.5995
      2  C    Isotropic =   145.3101   Anisotropy =    17.7713
   XX=   149.7423   YX=    -8.0951   ZX=     0.7634
   XY=    -9.6262   YY=   145.4331   ZY=     3.0329
   XZ=     3.6990   YZ=    -6.1588   ZZ=   140.7549
   Eigenvalues:   138.4570   140.3157   157.1577
      3  C    Isotropic =   107.6960   Anisotropy =    55.0297
   XX=   138.1191   YX=    17.3101   ZX=    -1.7192
   XY=    15.3192   YY=   101.8303   ZY=     1.3428
   XZ=     2.8765   YZ=    -0.6631   ZZ=    83.1385
   Eigenvalues:    83.1303    95.5751   144.3825
      4  C    Isotropic =   143.1629   Anisotropy =    31.7033
   XX=   151.2645   YX=     9.0126   ZX=   -12.8126
   XY=     8.0536   YY=   131.7102   ZY=   -11.3738
   XZ=    -9.2940   YZ=    -4.2935   ZZ=   146.5141
   Eigenvalues:   127.5616   137.6288   164.2985
      5  C    Isotropic =    12.8413   Anisotropy =    88.7920
   XX=   -59.0763   YX=    25.9257   ZX=   -29.4693
   XY=    34.7997   YY=    54.2897   ZY=    21.7817
   XZ=   -40.7994   YZ=    23.2597   ZZ=    43.3106
   Eigenvalues:   -79.5632    46.0512    72.0360
      6  H    Isotropic =    27.8632   Anisotropy =     2.3001
   XX=    28.1978   YX=    -0.1957   ZX=     1.0518
   XY=    -0.1181   YY=    27.6366   ZY=     0.7744
   XZ=     1.0782   YZ=     1.7040   ZZ=    27.7553
   Eigenvalues:    26.0874    28.1056    29.3966
      7  H    Isotropic =    30.0439   Anisotropy =     3.2626
   XX=    31.6294   YX=    -0.9860   ZX=     1.3636
   XY=    -1.0909   YY=    30.1682   ZY=     3.0045
   XZ=     1.6211   YZ=     2.5613   ZZ=    28.3341
   Eigenvalues:    25.7582    32.1545    32.2190
      8  H    Isotropic =    29.8783   Anisotropy =     4.8733
   XX=    30.8130   YX=     2.6379   ZX=     0.7724
   XY=     2.8082   YY=    28.1566   ZY=     0.4242
   XZ=     0.9819   YZ=     1.3904   ZZ=    30.6654
   Eigenvalues:    26.4318    30.0760    33.1272
      9  H    Isotropic =    29.2573   Anisotropy =     3.5197
   XX=    28.4619   YX=    -1.3793   ZX=     0.3294
   XY=    -0.6491   YY=    29.9981   ZY=    -1.9010
   XZ=    -0.9494   YZ=    -1.6994   ZZ=    29.3120
   Eigenvalues:    27.1740    28.9942    31.6038
     10  O    Isotropic =    97.1860   Anisotropy =   165.1043
   XX=   163.9457   YX=   -52.0066   ZX=    71.4414
   XY=   -60.2328   YY=   113.5979   ZY=   143.4990
   XZ=    73.6406   YZ=   122.0103   ZZ=    14.0143
   Eigenvalues:  -108.7488   193.0512   207.2555
     11  O    Isotropic =  -106.9247   Anisotropy =   562.5350
   XX=  -221.9002   YX=    46.2589   ZX=   -45.3060
   XY=    26.0331   YY=    16.7369   ZY=   323.8803
   XZ=   -36.1940   YZ=   297.2218   ZZ=  -115.6108
   Eigenvalues:  -385.1043  -203.7684   268.0986
     12  C    Isotropic =   160.4793   Anisotropy =    20.7601
   XX=   162.6861   YX=    -9.8558   ZX=     1.0825
   XY=   -12.4548   YY=   163.5366   ZY=    -2.9512
   XZ=    -0.7871   YZ=     5.7966   ZZ=   155.2153
   Eigenvalues:   151.6128   155.5058   174.3194
     13  C    Isotropic =   181.4571   Anisotropy =    11.3670
   XX=   180.5826   YX=    -0.8405   ZX=     1.4899
   XY=    -1.1049   YY=   181.7992   ZY=     6.9454
   XZ=     2.0089   YZ=     7.2577   ZZ=   181.9894
   Eigenvalues:   174.2109   181.1252   189.0351
     14  C    Isotropic =   177.5093   Anisotropy =    18.0710
   XX=   171.3177   YX=     0.4574   ZX=    -1.3468
   XY=     2.7984   YY=   173.4415   ZY=    -4.8071
   XZ=    -4.7513   YZ=    -3.6854   ZZ=   187.7685
   Eigenvalues:   170.3948   172.5764   189.5566
     15  O    Isotropic =   248.2761   Anisotropy =    25.1148
   XX=   229.4163   YX=     4.0576   ZX=   -11.2534
   XY=    15.8278   YY=   252.4917   ZY=    -1.0104
   XZ=     2.7409   YZ=    11.2628   ZZ=   262.9204
   Eigenvalues:   224.8393   254.9697   265.0193
     16  Si   Isotropic =   333.8282   Anisotropy =    40.4106
   XX=   341.5646   YX=    21.7830   ZX=    19.6838
   XY=    16.0583   YY=   328.3048   ZY=    10.5999
   XZ=     2.6827   YZ=     2.7448   ZZ=   331.6154
   Eigenvalues:   314.8025   325.9135   360.7686
     17  C    Isotropic =   185.4638   Anisotropy =    12.1722
   XX=   184.2268   YX=    -0.7401   ZX=     6.7079
   XY=     1.1706   YY=   187.0643   ZY=    -4.5983
   XZ=     6.2289   YZ=    -5.9103   ZZ=   185.1002
   Eigenvalues:   176.6927   186.1201   193.5786
     18  C    Isotropic =   186.1288   Anisotropy =     9.3710
   XX=   187.5048   YX=    -1.6266   ZX=     1.5932
   XY=    -3.9795   YY=   189.0193   ZY=     4.4631
   XZ=     1.5629   YZ=     5.7059   ZZ=   181.8622
   Eigenvalues:   178.4057   187.6045   192.3761
     19  C    Isotropic =   186.9857   Anisotropy =    12.2135
   XX=   189.6142   YX=     5.3837   ZX=    -4.2906
   XY=     5.3656   YY=   180.3480   ZY=     0.1336
   XZ=    -3.5082   YZ=     0.2232   ZZ=   190.9949
   Eigenvalues:   177.6304   188.1986   195.1280
     20  H    Isotropic =    31.9637   Anisotropy =     6.3711
   XX=    33.2966   YX=     1.3623   ZX=    -3.1829
   XY=     0.5151   YY=    29.9715   ZY=     1.3560
   XZ=    -3.2822   YZ=     0.9806   ZZ=    32.6229
   Eigenvalues:    28.3381    31.3418    36.2111
     21  H    Isotropic =    31.9432   Anisotropy =     7.1889
   XX=    31.0711   YX=    -1.6015   ZX=     2.8487
   XY=    -1.9129   YY=    34.1279   ZY=    -2.7613
   XZ=     2.4263   YZ=    -1.9460   ZZ=    30.6304
   Eigenvalues:    28.1377    30.9560    36.7357
     22  H    Isotropic =    32.1659   Anisotropy =    10.6541
   XX=    32.9272   YX=     3.8405   ZX=     3.0732
   XY=     3.4730   YY=    33.0063   ZY=     3.6252
   XZ=     3.0353   YZ=     3.8151   ZZ=    30.5644
   Eigenvalues:    27.8217    29.4074    39.2687
     23  H    Isotropic =    32.3492   Anisotropy =    10.3059
   XX=    36.5134   YX=     4.3077   ZX=     1.3803
   XY=     4.4363   YY=    30.6654   ZY=     0.9339
   XZ=     1.7305   YZ=     1.1444   ZZ=    29.8687
   Eigenvalues:    28.3025    29.5252    39.2198
     24  H    Isotropic =    31.9293   Anisotropy =     8.1656
   XX=    30.9574   YX=    -0.1693   ZX=    -0.0205
   XY=    -0.3916   YY=    31.0409   ZY=    -4.6434
   XZ=     0.7576   YZ=    -4.8139   ZZ=    33.7896
   Eigenvalues:    27.4909    30.9240    37.3730
     25  H    Isotropic =    31.8838   Anisotropy =     8.6316
   XX=    32.1709   YX=    -2.5030   ZX=    -3.4660
   XY=    -2.0874   YY=    32.6079   ZY=     2.5357
   XZ=    -3.3277   YZ=     3.3144   ZZ=    30.8727
   Eigenvalues:    27.8482    30.1650    37.6383
     26  H    Isotropic =    31.8813   Anisotropy =     8.1796
   XX=    31.1634   YX=    -3.6138   ZX=     0.2773
   XY=    -3.1873   YY=    35.3225   ZY=     1.7303
   XZ=     0.6400   YZ=     0.8945   ZZ=    29.1579
   Eigenvalues:    28.1147    30.1948    37.3343
     27  H    Isotropic =    31.9522   Anisotropy =     6.6199
   XX=    32.8827   YX=     0.8886   ZX=    -1.1823
   XY=     1.7083   YY=    28.9924   ZY=    -2.7904
   XZ=    -2.0018   YZ=    -2.7782   ZZ=    33.9814
   Eigenvalues:    27.6871    31.8039    36.3654
     28  H    Isotropic =    32.2569   Anisotropy =    10.4320
   XX=    35.2334   YX=     2.0661   ZX=     4.8454
   XY=     2.4238   YY=    29.7763   ZY=     0.9187
   XZ=     4.8417   YZ=     0.7386   ZZ=    31.7609
   Eigenvalues:    28.0442    29.5149    39.2115
     29  H    Isotropic =    31.2859   Anisotropy =     9.4083
   XX=    29.6179   YX=    -3.3646   ZX=    -0.3064
   XY=    -3.4272   YY=    34.2574   ZY=    -3.7764
   XZ=    -0.2661   YZ=    -3.9474   ZZ=    29.9824
   Eigenvalues:    26.2319    30.0676    37.5581
     30  H    Isotropic =    31.5510   Anisotropy =     8.9826
   XX=    28.5334   YX=    -0.0031   ZX=     2.4019
   XY=     0.3329   YY=    29.6468   ZY=     1.6676
   XZ=     2.2834   YZ=     2.0453   ZZ=    36.4728
   Eigenvalues:    27.8195    29.2941    37.5394
     31  H    Isotropic =    30.5233   Anisotropy =     7.5282
   XX=    34.5186   YX=     1.3210   ZX=    -0.6706
   XY=     1.6482   YY=    27.0565   ZY=    -3.7300
   XZ=    -1.5729   YZ=    -3.4739   ZZ=    29.9949
   Eigenvalues:    24.5971    31.4308    35.5421
     32  H    Isotropic =    30.4131   Anisotropy =     7.2882
   XX=    30.0365   YX=    -2.6932   ZX=     1.3888
   XY=    -2.7051   YY=    27.8141   ZY=    -2.1967
   XZ=     1.5604   YZ=    -2.2506   ZZ=    33.3888
   Eigenvalues:    25.8449    30.1226    35.2719
     33  H    Isotropic =    30.1283   Anisotropy =     9.8783
   XX=    36.0915   YX=     2.2929   ZX=     0.7363
   XY=     1.5457   YY=    28.9769   ZY=     1.5509
   XZ=     1.0641   YZ=     1.4642   ZZ=    25.3166
   Eigenvalues:    24.7718    28.8993    36.7138
     34  H    Isotropic =    31.2055   Anisotropy =    12.0452
   XX=    33.2118   YX=    -5.5787   ZX=    -0.6187
   XY=    -5.9501   YY=    32.9956   ZY=     1.9701
   XZ=    -0.9167   YZ=     2.3886   ZZ=    27.4092
   Eigenvalues:    26.1778    28.2032    39.2357
     35  H    Isotropic =    31.2296   Anisotropy =     6.7675
   XX=    33.4931   YX=     2.0451   ZX=    -1.3114
   XY=     2.3721   YY=    33.4304   ZY=     1.9008
   XZ=    -0.6166   YZ=     2.1934   ZZ=    26.7655
   Eigenvalues:    25.8628    32.0848    35.7413
     36  H    Isotropic =    31.1303   Anisotropy =     7.1645
   XX=    27.8786   YX=    -1.9613   ZX=    -1.2293
   XY=    -1.6444   YY=    29.8129   ZY=     0.1572
   XZ=    -1.2365   YZ=    -0.0746   ZZ=    35.6995
   Eigenvalues:    26.6792    30.8051    35.9067
     37  C    Isotropic =   146.2520   Anisotropy =    15.3103
   XX=   147.1000   YX=    -9.5497   ZX=     4.3481
   XY=    -1.2700   YY=   151.4648   ZY=     8.7642
   XZ=     6.9313   YZ=     7.5592   ZZ=   140.1914
   Eigenvalues:   132.1009   150.1963   156.4589
     38  C    Isotropic =    45.6207   Anisotropy =   178.9168
   XX=   -74.0674   YX=    18.4318   ZX=    -0.1945
   XY=    23.1500   YY=    53.9852   ZY=    29.1996
   XZ=    -2.0094   YZ=    29.8917   ZZ=   156.9444
   Eigenvalues:   -77.5012    49.4648   164.8986
     39  C    Isotropic =    64.7983   Anisotropy =   140.9732
   XX=   -42.6376   YX=    31.7193   ZX=    -5.0945
   XY=    29.3687   YY=    83.9878   ZY=    18.3684
   XZ=    -7.2086   YZ=    22.9554   ZZ=   153.0448
   Eigenvalues:   -50.1801    85.7947   158.7805
     40  H    Isotropic =    30.2009   Anisotropy =     6.2792
   XX=    31.3927   YX=     1.7834   ZX=     0.9545
   XY=     0.0006   YY=    33.1907   ZY=     2.6888
   XZ=     1.3699   YZ=     2.0473   ZZ=    26.0194
   Eigenvalues:    25.1866    31.0291    34.3871
     41  H    Isotropic =    29.5704   Anisotropy =     4.2024
   XX=    25.7099   YX=    -2.1696   ZX=     0.6641
   XY=    -2.1286   YY=    30.7147   ZY=     1.3624
   XZ=     0.2612   YZ=    -0.6102   ZZ=    32.2865
   Eigenvalues:    24.8707    31.4684    32.3720
     42  H    Isotropic =    25.7272   Anisotropy =     7.2973
   XX=    23.5504   YX=    -2.0608   ZX=    -0.3813
   XY=    -0.5911   YY=    30.0701   ZY=     0.9725
   XZ=    -0.9216   YZ=     1.5377   ZZ=    23.5612
   Eigenvalues:    22.9036    23.6860    30.5921
     43  H    Isotropic =    26.6924   Anisotropy =     6.8855
   XX=    23.4146   YX=     1.0024   ZX=    -0.2621
   XY=    -1.4976   YY=    31.2653   ZY=    -0.3494
   XZ=     0.0043   YZ=    -0.1346   ZZ=    25.3974
   Eigenvalues:    23.3974    25.3971    31.2827
     44  H    Isotropic =    26.7992   Anisotropy =     7.4527
   XX=    23.2558   YX=     0.3428   ZX=     0.1059
   XY=     2.5430   YY=    31.5227   ZY=     0.1689
   XZ=    -0.8576   YZ=     0.0668   ZZ=    25.6193
   Eigenvalues:    22.9540    25.6760    31.7677
 End of Minotr F.D. properties file   721 does not exist.
 End of Minotr F.D. properties file   722 does not exist.
 End of Minotr F.D. properties file   788 does not exist.

 **********************************************************************

            Population analysis using the SCF density.

 **********************************************************************

 Orbital symmetries:
       Occupied  (A) (A) (A) (A) (A) (A) (A) (A) (A) (A) (A) (A)
                 (A) (A) (A) (A) (A) (A) (A) (A) (A) (A) (A) (A)
                 (A) (A) (A) (A) (A) (A) (A) (A) (A) (A) (A) (A)
                 (A) (A) (A) (A) (A) (A) (A) (A) (A) (A) (A) (A)
                 (A) (A) (A) (A) (A) (A) (A) (A) (A) (A) (A) (A)
                 (A) (A) (A) (A) (A) (A) (A) (A) (A) (A) (A) (A)
                 (A) (A)
       Virtual   (A) (A) (A) (A) (A) (A) (A) (A) (A) (A) (A) (A)
                 (A) (A) (A) (A) (A) (A) (A) (A) (A) (A) (A) (A)
                 (A) (A) (A) (A) (A) (A) (A) (A) (A) (A) (A) (A)
                 (A) (A) (A) (A) (A) (A) (A) (A) (A) (A) (A) (A)
                 (A) (A) (A) (A) (A) (A) (A) (A) (A) (A) (A) (A)
                 (A) (A) (A) (A) (A) (A) (A) (A) (A) (A) (A) (A)
                 (A) (A) (A) (A) (A) (A) (A) (A) (A) (A) (A) (A)
                 (A) (A) (A) (A) (A) (A) (A) (A) (A) (A) (A) (A)
                 (A) (A) (A) (A) (A) (A) (A) (A) (A) (A) (A) (A)
                 (A) (A) (A) (A) (A) (A) (A) (A) (A) (A) (A) (A)
                 (A) (A) (A) (A) (A) (A) (A) (A) (A) (A) (A) (A)
                 (A) (A) (A) (A) (A) (A) (A) (A) (A) (A) (A) (A)
                 (A) (A) (A) (A) (A) (A) (A) (A) (A) (A) (A) (A)
                 (A) (A) (A) (A) (A) (A) (A) (A) (A) (A) (A) (A)
                 (A) (A) (A) (A) (A) (A) (A) (A) (A) (A) (A) (A)
                 (A) (A) (A) (A) (A) (A) (A) (A) (A) (A) (A) (A)
                 (A) (A) (A) (A) (A) (A) (A) (A) (A) (A) (A) (A)
                 (A) (A) (A) (A) (A) (A) (A) (A) (A) (A) (A) (A)
                 (A) (A) (A) (A) (A) (A) (A) (A) (A) (A) (A) (A)
                 (A) (A) (A) (A) (A) (A) (A) (A) (A) (A) (A) (A)
                 (A) (A) (A) (A) (A) (A) (A) (A) (A) (A) (A) (A)
                 (A) (A) (A) (A) (A) (A) (A) (A) (A) (A) (A) (A)
                 (A) (A) (A) (A) (A) (A) (A) (A) (A) (A) (A) (A)
                 (A) (A) (A) (A) (A) (A) (A) (A) (A) (A) (A) (A)
                 (A) (A) (A) (A) (A) (A) (A) (A) (A) (A) (A) (A)
                 (A) (A) (A) (A) (A) (A) (A) (A) (A) (A) (A) (A)
                 (A) (A) (A) (A) (A) (A) (A) (A) (A) (A) (A) (A)
                 (A) (A) (A) (A) (A) (A) (A) (A) (A) (A) (A) (A)
 The electronic state is 1-A.
 Alpha  occ. eigenvalues --  -66.27481 -19.25917 -19.20691 -19.19572 -10.36981
 Alpha  occ. eigenvalues --  -10.31725 -10.30657 -10.25339 -10.25082 -10.24061
 Alpha  occ. eigenvalues --  -10.23961 -10.23907 -10.22816 -10.22688 -10.22359
 Alpha  occ. eigenvalues --  -10.21137 -10.20793 -10.20724  -5.33213  -3.67101
 Alpha  occ. eigenvalues --   -3.66808  -3.66790  -1.13175  -1.04797  -1.04059
 Alpha  occ. eigenvalues --   -0.85957  -0.83245  -0.80445  -0.77666  -0.74144
 Alpha  occ. eigenvalues --   -0.72653  -0.72153  -0.70430  -0.70174  -0.66985
 Alpha  occ. eigenvalues --   -0.62881  -0.62554  -0.58509  -0.55814  -0.53746
 Alpha  occ. eigenvalues --   -0.52420  -0.50299  -0.49426  -0.48909  -0.47602
 Alpha  occ. eigenvalues --   -0.45994  -0.45064  -0.44788  -0.44336  -0.43566
 Alpha  occ. eigenvalues --   -0.43155  -0.42591  -0.42354  -0.41403  -0.41086
 Alpha  occ. eigenvalues --   -0.40754  -0.40469  -0.39759  -0.39627  -0.39133
 Alpha  occ. eigenvalues --   -0.38087  -0.37806  -0.37264  -0.36664  -0.36023
 Alpha  occ. eigenvalues --   -0.35873  -0.34217  -0.33622  -0.32544  -0.31072
 Alpha  occ. eigenvalues --   -0.30657  -0.28779  -0.28218  -0.27225
 Alpha virt. eigenvalues --    0.00317   0.01331   0.03633   0.05532   0.05837
 Alpha virt. eigenvalues --    0.06522   0.07621   0.08022   0.08334   0.08782
 Alpha virt. eigenvalues --    0.09615   0.09887   0.10398   0.11012   0.11304
 Alpha virt. eigenvalues --    0.11904   0.12232   0.13160   0.13250   0.13569
 Alpha virt. eigenvalues --    0.13902   0.14509   0.14668   0.15241   0.15603
 Alpha virt. eigenvalues --    0.16163   0.16563   0.17238   0.17875   0.18748
 Alpha virt. eigenvalues --    0.18996   0.19293   0.19989   0.20481   0.20707
 Alpha virt. eigenvalues --    0.21931   0.22777   0.23265   0.23834   0.24523
 Alpha virt. eigenvalues --    0.25455   0.26280   0.26882   0.27084   0.27938
 Alpha virt. eigenvalues --    0.28995   0.29602   0.30648   0.31619   0.33179
 Alpha virt. eigenvalues --    0.33719   0.34184   0.34764   0.35353   0.36084
 Alpha virt. eigenvalues --    0.36896   0.37491   0.38498   0.40263   0.40883
 Alpha virt. eigenvalues --    0.41007   0.42415   0.42637   0.44067   0.44432
 Alpha virt. eigenvalues --    0.44989   0.45427   0.46172   0.46960   0.48626
 Alpha virt. eigenvalues --    0.49295   0.49797   0.50684   0.51112   0.51544
 Alpha virt. eigenvalues --    0.53496   0.53967   0.54736   0.55867   0.56646
 Alpha virt. eigenvalues --    0.57100   0.57406   0.57941   0.58277   0.59036
 Alpha virt. eigenvalues --    0.59550   0.59682   0.60867   0.61005   0.61114
 Alpha virt. eigenvalues --    0.61345   0.62253   0.62309   0.62408   0.63416
 Alpha virt. eigenvalues --    0.63706   0.64045   0.64313   0.64591   0.65052
 Alpha virt. eigenvalues --    0.65858   0.66823   0.67395   0.68086   0.68782
 Alpha virt. eigenvalues --    0.69266   0.69605   0.69944   0.70771   0.71732
 Alpha virt. eigenvalues --    0.71949   0.72837   0.73771   0.74002   0.74557
 Alpha virt. eigenvalues --    0.76164   0.76889   0.77329   0.79835   0.82096
 Alpha virt. eigenvalues --    0.83634   0.84104   0.86398   0.86825   0.87705
 Alpha virt. eigenvalues --    0.88974   0.89314   0.91494   0.92439   0.94600
 Alpha virt. eigenvalues --    0.95283   0.95693   0.97212   0.98642   1.00444
 Alpha virt. eigenvalues --    1.01268   1.03627   1.04862   1.08808   1.09775
 Alpha virt. eigenvalues --    1.13332   1.15358   1.16302   1.16693   1.18744
 Alpha virt. eigenvalues --    1.20520   1.23507   1.25845   1.27072   1.28852
 Alpha virt. eigenvalues --    1.29323   1.29977   1.31109   1.31617   1.32984
 Alpha virt. eigenvalues --    1.34361   1.37641   1.38693   1.40692   1.41246
 Alpha virt. eigenvalues --    1.42446   1.43352   1.46374   1.48024   1.48167
 Alpha virt. eigenvalues --    1.49467   1.50796   1.51636   1.53056   1.54604
 Alpha virt. eigenvalues --    1.54932   1.55677   1.56952   1.57151   1.58042
 Alpha virt. eigenvalues --    1.59451   1.59588   1.60148   1.60396   1.60711
 Alpha virt. eigenvalues --    1.61395   1.61924   1.62237   1.62606   1.63448
 Alpha virt. eigenvalues --    1.64269   1.65244   1.66717   1.67626   1.68158
 Alpha virt. eigenvalues --    1.68462   1.69563   1.71464   1.73537   1.74091
 Alpha virt. eigenvalues --    1.75645   1.77599   1.79218   1.79456   1.80683
 Alpha virt. eigenvalues --    1.81535   1.82626   1.83283   1.85313   1.87265
 Alpha virt. eigenvalues --    1.90906   1.91866   1.93247   1.94977   1.97503
 Alpha virt. eigenvalues --    1.99708   2.03548   2.06172   2.07637   2.13307
 Alpha virt. eigenvalues --    2.15809   2.16240   2.21715   2.23163   2.23333
 Alpha virt. eigenvalues --    2.29246   2.32531   2.33969   2.35102   2.39580
 Alpha virt. eigenvalues --    2.40827   2.41794   2.42343   2.43211   2.43654
 Alpha virt. eigenvalues --    2.44563   2.45114   2.45865   2.46386   2.47302
 Alpha virt. eigenvalues --    2.47579   2.49029   2.49548   2.49856   2.51138
 Alpha virt. eigenvalues --    2.53083   2.54011   2.58188   2.58761   2.60300
 Alpha virt. eigenvalues --    2.63081   2.63457   2.68430   2.72391   2.81125
 Alpha virt. eigenvalues --    2.81611   2.86883   2.88145   2.89996   2.91216
 Alpha virt. eigenvalues --    2.91913   2.93619   2.93655   2.95863   2.97659
 Alpha virt. eigenvalues --    2.98166   2.99982   3.01544   3.03649   3.08330
 Alpha virt. eigenvalues --    3.10113   3.11402   3.12632   3.13764   3.14902
 Alpha virt. eigenvalues --    3.15928   3.16782   3.17969   3.20260   3.21140
 Alpha virt. eigenvalues --    3.21827   3.22272   3.23647   3.23848   3.24753
 Alpha virt. eigenvalues --    3.26622   3.27716   3.28296   3.29164   3.32880
 Alpha virt. eigenvalues --    3.33273   3.34867   3.36350   3.37099   3.39471
 Alpha virt. eigenvalues --    3.42680   3.51007   3.56627   3.59581   3.63339
 Alpha virt. eigenvalues --    3.78882   3.88411   3.89285   3.99296   4.03967
 Alpha virt. eigenvalues --    4.08561   4.13457   4.19302   4.22165   4.26294
 Alpha virt. eigenvalues --    4.93900   5.00245   5.01994   5.11327   5.15475
 Alpha virt. eigenvalues --    5.23163   5.52067   5.56587   5.76916   5.85341
 Alpha virt. eigenvalues --   11.52387  11.53239  11.56665  23.41650  23.49654
 Alpha virt. eigenvalues --   23.54413  23.54557  23.56569  23.60006  23.70600
 Alpha virt. eigenvalues --   23.75133  23.78664  23.80183  23.83098  23.86327
 Alpha virt. eigenvalues --   23.88306  24.29428  49.98708  50.06220  50.13483
 Alpha virt. eigenvalues --  141.27789
          Condensed to atoms (all electrons):
               1          2          3          4          5          6
     1  C    5.189138   0.266022  -0.057713  -0.005110  -0.048722   0.399793
     2  C    0.266022   5.543539   0.323996  -0.086191  -0.011315  -0.044009
     3  C   -0.057713   0.323996   5.196599   0.231514  -0.016034  -0.017386
     4  C   -0.005110  -0.086191   0.231514   5.877290   0.240321   0.002795
     5  C   -0.048722  -0.011315  -0.016034   0.240321   4.393958  -0.001372
     6  H    0.399793  -0.044009  -0.017386   0.002795  -0.001372   0.477434
     7  H   -0.042035   0.410613  -0.058687  -0.007956   0.000516   0.006742
     8  H    0.001390  -0.006761  -0.028718   0.358810  -0.027751  -0.000056
     9  H   -0.000677   0.007224  -0.032751   0.364001  -0.025205   0.000193
    10  O    0.218313  -0.036832   0.006562  -0.107868   0.342634  -0.032646
    11  O    0.002456  -0.000439   0.004055  -0.094439   0.669055  -0.000012
    12  C    0.337465  -0.062791   0.011108  -0.001966   0.002519  -0.053524
    13  C   -0.070897  -0.008182  -0.001020   0.000311  -0.000096   0.007877
    14  C   -0.064569   0.289488  -0.057731   0.008101   0.000105  -0.001124
    15  O    0.003916  -0.049549   0.219154  -0.022900   0.002036  -0.000071
    16  Si   0.001979  -0.010142  -0.043780  -0.004576   0.001397  -0.000158
    17  C    0.000006  -0.000242  -0.000018  -0.001794  -0.000001   0.000000
    18  C   -0.000066   0.000567   0.000036  -0.002199  -0.000037  -0.000003
    19  C   -0.000002  -0.000112   0.002149  -0.000074   0.000002   0.000000
    20  H   -0.000069   0.000089   0.000265   0.000121   0.000012  -0.000002
    21  H   -0.000052   0.000179   0.000089   0.000293   0.000007  -0.000002
    22  H   -0.000002   0.000129  -0.000058   0.000061   0.000002   0.000000
    23  H    0.000000  -0.000002  -0.000055   0.000000   0.000000   0.000000
    24  H   -0.000001   0.000024  -0.000059  -0.000016   0.000000   0.000000
    25  H    0.000000  -0.000023  -0.000112  -0.000035   0.000000   0.000000
    26  H    0.000002  -0.000040   0.000488  -0.000307  -0.000020   0.000000
    27  H    0.000004  -0.000020   0.000003   0.000934  -0.000016   0.000000
    28  H    0.000000   0.000003  -0.000038   0.000112   0.000002   0.000000
    29  H   -0.006062  -0.035056   0.007024  -0.000261  -0.000001  -0.000654
    30  H   -0.003828  -0.039159  -0.008703  -0.000205   0.000019   0.005705
    31  H    0.005815  -0.035155  -0.008129   0.000673  -0.000098  -0.000118
    32  H   -0.038190  -0.006852  -0.000352   0.000111  -0.000056  -0.000110
    33  H   -0.048377   0.009528  -0.000134   0.000275  -0.000173  -0.007057
    34  H    0.007583  -0.000048   0.000009  -0.000018   0.000016  -0.000173
    35  H   -0.007449   0.003809   0.000293   0.000102  -0.000030  -0.000350
    36  H   -0.008249  -0.000189  -0.000511   0.000867   0.000066   0.000480
    37  C   -0.000776  -0.092303   0.272369  -0.108470   0.000630   0.007302
    38  C   -0.000632   0.009929  -0.058062  -0.013244   0.000537   0.000203
    39  C   -0.000030  -0.000015  -0.002081  -0.000638   0.000389   0.000008
    40  H    0.003702  -0.009872  -0.024618  -0.003467   0.001752  -0.001500
    41  H   -0.000511  -0.008035  -0.046494   0.007212  -0.000323  -0.000066
    42  H    0.000007  -0.000293  -0.003024   0.000577   0.000022  -0.000001
    43  H    0.000000   0.000016  -0.000292   0.000059  -0.000008  -0.000001
    44  H   -0.000023  -0.000024  -0.000189  -0.000048   0.000421   0.000051
               7          8          9         10         11         12
     1  C   -0.042035   0.001390  -0.000677   0.218313   0.002456   0.337465
     2  C    0.410613  -0.006761   0.007224  -0.036832  -0.000439  -0.062791
     3  C   -0.058687  -0.028718  -0.032751   0.006562   0.004055   0.011108
     4  C   -0.007956   0.358810   0.364001  -0.107868  -0.094439  -0.001966
     5  C    0.000516  -0.027751  -0.025205   0.342634   0.669055   0.002519
     6  H    0.006742  -0.000056   0.000193  -0.032646  -0.000012  -0.053524
     7  H    0.468735   0.001037   0.000252   0.001908  -0.000121  -0.013331
     8  H    0.001037   0.419962  -0.013138   0.002478   0.002572  -0.000083
     9  H    0.000252  -0.013138   0.399980   0.004018   0.008785   0.000031
    10  O    0.001908   0.002478   0.004018   8.048551  -0.077440  -0.061047
    11  O   -0.000121   0.002572   0.008785  -0.077440   7.868531  -0.000155
    12  C   -0.013331  -0.000083   0.000031  -0.061047  -0.000155   5.322717
    13  C    0.004961   0.000185   0.000013   0.000770  -0.000021   0.287483
    14  C   -0.039449   0.000175  -0.000114   0.003463   0.000004  -0.003593
    15  O   -0.000864  -0.005989  -0.000149  -0.000024  -0.000019  -0.000066
    16  Si  -0.000605   0.003623  -0.003132  -0.000508  -0.000526  -0.000147
    17  C   -0.000236   0.000320  -0.001437   0.000000   0.000002   0.000000
    18  C   -0.004516   0.003283   0.000197   0.000003   0.000002  -0.000004
    19  C   -0.000122  -0.000047  -0.000022   0.000000   0.000000   0.000000
    20  H   -0.001262   0.004819   0.000012   0.000002   0.000000  -0.000005
    21  H   -0.001468  -0.000393   0.000006  -0.000002   0.000000   0.000012
    22  H    0.000486  -0.000048  -0.000006   0.000000   0.000000   0.000000
    23  H    0.000000   0.000009  -0.000002   0.000000   0.000000   0.000000
    24  H   -0.000012  -0.000007  -0.000003   0.000000   0.000000   0.000000
    25  H    0.000004  -0.000001  -0.000013   0.000000   0.000000   0.000000
    26  H    0.000005  -0.000001   0.000196   0.000000   0.000001   0.000000
    27  H   -0.000039   0.001246  -0.000337   0.000000  -0.000024   0.000000
    28  H    0.000005  -0.000040   0.000117   0.000000   0.000000   0.000000
    29  H   -0.008448  -0.000021   0.000015  -0.000032   0.000000   0.001650
    30  H    0.007158  -0.000020   0.000017   0.000055   0.000000  -0.001596
    31  H   -0.003266   0.000054  -0.000035  -0.000114   0.000000   0.000114
    32  H    0.000251  -0.000009  -0.000003   0.003640   0.000008   0.387159
    33  H   -0.000307  -0.000010  -0.000010   0.003390  -0.000030   0.403781
    34  H    0.000280   0.000001   0.000000  -0.000166   0.000000  -0.034714
    35  H   -0.001605  -0.000022   0.000000  -0.000005   0.000002  -0.035772
    36  H    0.000326  -0.000031  -0.000005   0.010126  -0.000156  -0.043678
    37  C    0.009335   0.006016  -0.008433  -0.003095   0.000289  -0.000681
    38  C   -0.000225  -0.000166   0.009735   0.000033  -0.000099   0.000007
    39  C   -0.000007   0.000005   0.004229  -0.000021  -0.000029   0.000000
    40  H   -0.000256   0.000229  -0.000539   0.002780  -0.000392   0.000896
    41  H   -0.000168  -0.000136   0.000342   0.000059   0.000004  -0.000080
    42  H    0.000008   0.000054  -0.000229  -0.000001   0.000003   0.000001
    43  H   -0.000001  -0.000005   0.000142   0.000000  -0.000002   0.000000
    44  H    0.000005   0.000006  -0.000029  -0.000082   0.000283  -0.000001
              13         14         15         16         17         18
     1  C   -0.070897  -0.064569   0.003916   0.001979   0.000006  -0.000066
     2  C   -0.008182   0.289488  -0.049549  -0.010142  -0.000242   0.000567
     3  C   -0.001020  -0.057731   0.219154  -0.043780  -0.000018   0.000036
     4  C    0.000311   0.008101  -0.022900  -0.004576  -0.001794  -0.002199
     5  C   -0.000096   0.000105   0.002036   0.001397  -0.000001  -0.000037
     6  H    0.007877  -0.001124  -0.000071  -0.000158   0.000000  -0.000003
     7  H    0.004961  -0.039449  -0.000864  -0.000605  -0.000236  -0.004516
     8  H    0.000185   0.000175  -0.005989   0.003623   0.000320   0.003283
     9  H    0.000013  -0.000114  -0.000149  -0.003132  -0.001437   0.000197
    10  O    0.000770   0.003463  -0.000024  -0.000508   0.000000   0.000003
    11  O   -0.000021   0.000004  -0.000019  -0.000526   0.000002   0.000002
    12  C    0.287483  -0.003593  -0.000066  -0.000147   0.000000  -0.000004
    13  C    5.378790  -0.000084  -0.000002  -0.000123   0.000000  -0.000013
    14  C   -0.000084   5.401299  -0.007410  -0.001203   0.000004   0.000679
    15  O   -0.000002  -0.007410   8.291387   0.345463  -0.023882  -0.024076
    16  Si  -0.000123  -0.001203   0.345463  11.507858   0.318203   0.306647
    17  C    0.000000   0.000004  -0.023882   0.318203   5.762399  -0.054504
    18  C   -0.000013   0.000679  -0.024076   0.306647  -0.054504   5.793360
    19  C    0.000000  -0.000149  -0.029542   0.336054  -0.046146  -0.044258
    20  H    0.000117   0.000109  -0.001313  -0.028485  -0.001081   0.368886
    21  H    0.000058   0.000395  -0.002084  -0.026251   0.002146   0.371062
    22  H   -0.000001  -0.000016   0.000833  -0.010637   0.000376   0.363101
    23  H    0.000000  -0.000002   0.001184  -0.014508   0.000674   0.000230
    24  H    0.000000   0.000155  -0.001965  -0.025413   0.002070  -0.000648
    25  H    0.000000  -0.000009  -0.001576  -0.023534  -0.000506   0.002120
    26  H    0.000000   0.000001  -0.002324  -0.025125   0.370899   0.001958
    27  H    0.000000   0.000000  -0.001291  -0.026726   0.371506  -0.001172
    28  H    0.000000   0.000000   0.000943  -0.012053   0.361748   0.000595
    29  H    0.000259   0.390930  -0.000006  -0.000260   0.000000   0.000077
    30  H    0.000220   0.385958  -0.000085  -0.000060   0.000000   0.000004
    31  H   -0.000107   0.384087   0.010200   0.003044   0.000056  -0.000063
    32  H   -0.036740   0.002809  -0.000002  -0.000009   0.000000  -0.000002
    33  H   -0.042511  -0.000529   0.000004   0.000020   0.000000   0.000000
    34  H    0.391477  -0.000054   0.000000   0.000000   0.000000   0.000000
    35  H    0.384104   0.000604   0.000002  -0.000046   0.000001   0.000363
    36  H    0.385168   0.000127   0.000003   0.000005   0.000000   0.000009
    37  C    0.000024  -0.008082  -0.079821   0.000557   0.000020  -0.000345
    38  C    0.000000  -0.000354   0.008437   0.001198  -0.000220   0.000033
    39  C    0.000000   0.000006   0.000992   0.000632  -0.000026   0.000001
    40  H   -0.000031   0.000618   0.003321  -0.000038   0.000004   0.000012
    41  H    0.000000   0.002528   0.002326  -0.000021   0.000020   0.000012
    42  H    0.000000  -0.000002   0.003809   0.000808   0.000384   0.000021
    43  H    0.000000   0.000000   0.000012   0.000017   0.000005   0.000000
    44  H    0.000000  -0.000002  -0.000002  -0.000003  -0.000001   0.000000
              19         20         21         22         23         24
     1  C   -0.000002  -0.000069  -0.000052  -0.000002   0.000000  -0.000001
     2  C   -0.000112   0.000089   0.000179   0.000129  -0.000002   0.000024
     3  C    0.002149   0.000265   0.000089  -0.000058  -0.000055  -0.000059
     4  C   -0.000074   0.000121   0.000293   0.000061   0.000000  -0.000016
     5  C    0.000002   0.000012   0.000007   0.000002   0.000000   0.000000
     6  H    0.000000  -0.000002  -0.000002   0.000000   0.000000   0.000000
     7  H   -0.000122  -0.001262  -0.001468   0.000486   0.000000  -0.000012
     8  H   -0.000047   0.004819  -0.000393  -0.000048   0.000009  -0.000007
     9  H   -0.000022   0.000012   0.000006  -0.000006  -0.000002  -0.000003
    10  O    0.000000   0.000002  -0.000002   0.000000   0.000000   0.000000
    11  O    0.000000   0.000000   0.000000   0.000000   0.000000   0.000000
    12  C    0.000000  -0.000005   0.000012   0.000000   0.000000   0.000000
    13  C    0.000000   0.000117   0.000058  -0.000001   0.000000   0.000000
    14  C   -0.000149   0.000109   0.000395  -0.000016  -0.000002   0.000155
    15  O   -0.029542  -0.001313  -0.002084   0.000833   0.001184  -0.001965
    16  Si   0.336054  -0.028485  -0.026251  -0.010637  -0.014508  -0.025413
    17  C   -0.046146  -0.001081   0.002146   0.000376   0.000674   0.002070
    18  C   -0.044258   0.368886   0.371062   0.363101   0.000230  -0.000648
    19  C    5.721493   0.002357  -0.000367  -0.000531   0.361251   0.370098
    20  H    0.002357   0.446114  -0.019637  -0.020871  -0.000080  -0.000075
    21  H   -0.000367  -0.019637   0.450972  -0.021563  -0.000045   0.001180
    22  H   -0.000531  -0.020871  -0.021563   0.443329   0.000649  -0.000054
    23  H    0.361251  -0.000080  -0.000045   0.000649   0.460474  -0.021751
    24  H    0.370098  -0.000075   0.001180  -0.000054  -0.021751   0.453768
    25  H    0.370520  -0.000087  -0.000071  -0.000069  -0.021564  -0.019299
    26  H   -0.000377  -0.000034  -0.000090  -0.000050  -0.000006  -0.000076
    27  H    0.002218   0.000733  -0.000030   0.000045  -0.000060  -0.000093
    28  H   -0.000183   0.000066  -0.000048   0.000428   0.000708  -0.000048
    29  H   -0.000002   0.000006   0.000160  -0.000003   0.000000  -0.000002
    30  H    0.000004  -0.000002  -0.000007   0.000000   0.000000  -0.000011
    31  H    0.000248  -0.000013   0.000236   0.000004  -0.000002   0.000923
    32  H    0.000000   0.000001  -0.000003   0.000000   0.000000   0.000000
    33  H    0.000000   0.000000   0.000000   0.000000   0.000000   0.000000
    34  H    0.000000  -0.000003  -0.000003   0.000000   0.000000   0.000000
    35  H    0.000001   0.000239   0.000370  -0.000015   0.000000   0.000000
    36  H    0.000000   0.000043  -0.000007   0.000000   0.000000   0.000000
    37  C    0.000046  -0.000075  -0.000084   0.000006   0.000003  -0.000002
    38  C   -0.000105   0.000009   0.000007   0.000000  -0.000001   0.000005
    39  C   -0.000002   0.000000   0.000000   0.000000   0.000000   0.000000
    40  H    0.000003   0.000002   0.000002   0.000000   0.000000  -0.000001
    41  H   -0.000046   0.000000   0.000001   0.000000   0.000001  -0.000016
    42  H    0.000164   0.000001   0.000000   0.000000  -0.000011  -0.000025
    43  H    0.000000   0.000000   0.000000   0.000000   0.000000   0.000000
    44  H    0.000000   0.000000   0.000000   0.000000   0.000000   0.000000
              25         26         27         28         29         30
     1  C    0.000000   0.000002   0.000004   0.000000  -0.006062  -0.003828
     2  C   -0.000023  -0.000040  -0.000020   0.000003  -0.035056  -0.039159
     3  C   -0.000112   0.000488   0.000003  -0.000038   0.007024  -0.008703
     4  C   -0.000035  -0.000307   0.000934   0.000112  -0.000261  -0.000205
     5  C    0.000000  -0.000020  -0.000016   0.000002  -0.000001   0.000019
     6  H    0.000000   0.000000   0.000000   0.000000  -0.000654   0.005705
     7  H    0.000004   0.000005  -0.000039   0.000005  -0.008448   0.007158
     8  H   -0.000001  -0.000001   0.001246  -0.000040  -0.000021  -0.000020
     9  H   -0.000013   0.000196  -0.000337   0.000117   0.000015   0.000017
    10  O    0.000000   0.000000   0.000000   0.000000  -0.000032   0.000055
    11  O    0.000000   0.000001  -0.000024   0.000000   0.000000   0.000000
    12  C    0.000000   0.000000   0.000000   0.000000   0.001650  -0.001596
    13  C    0.000000   0.000000   0.000000   0.000000   0.000259   0.000220
    14  C   -0.000009   0.000001   0.000000   0.000000   0.390930   0.385958
    15  O   -0.001576  -0.002324  -0.001291   0.000943  -0.000006  -0.000085
    16  Si  -0.023534  -0.025125  -0.026726  -0.012053  -0.000260  -0.000060
    17  C   -0.000506   0.370899   0.371506   0.361748   0.000000   0.000000
    18  C    0.002120   0.001958  -0.001172   0.000595   0.000077   0.000004
    19  C    0.370520  -0.000377   0.002218  -0.000183  -0.000002   0.000004
    20  H   -0.000087  -0.000034   0.000733   0.000066   0.000006  -0.000002
    21  H   -0.000071  -0.000090  -0.000030  -0.000048   0.000160  -0.000007
    22  H   -0.000069  -0.000050   0.000045   0.000428  -0.000003   0.000000
    23  H   -0.021564  -0.000006  -0.000060   0.000708   0.000000   0.000000
    24  H   -0.019299  -0.000076  -0.000093  -0.000048  -0.000002  -0.000011
    25  H    0.452279   0.001063  -0.000073  -0.000105   0.000000   0.000000
    26  H    0.001063   0.449263  -0.019359  -0.021408   0.000000   0.000000
    27  H   -0.000073  -0.019359   0.449128  -0.022432   0.000000   0.000000
    28  H   -0.000105  -0.021408  -0.022432   0.455186   0.000000   0.000000
    29  H    0.000000   0.000000   0.000000   0.000000   0.455561  -0.026553
    30  H    0.000000   0.000000   0.000000   0.000000  -0.026553   0.469344
    31  H   -0.000032   0.000002   0.000001   0.000000  -0.023048  -0.024612
    32  H    0.000000   0.000000   0.000000   0.000000  -0.000764   0.000304
    33  H    0.000000   0.000000   0.000000   0.000000   0.000185  -0.000185
    34  H    0.000000   0.000000   0.000000   0.000000  -0.000054   0.000011
    35  H    0.000000   0.000000   0.000000   0.000000   0.001719  -0.000120
    36  H    0.000000   0.000000   0.000000   0.000000  -0.000106   0.000004
    37  C    0.000101   0.000143  -0.000006   0.000000  -0.000087   0.003846
    38  C   -0.000029   0.000500  -0.000047   0.000008   0.000016   0.000112
    39  C   -0.000004   0.000076  -0.000013   0.000000   0.000000  -0.000009
    40  H   -0.000001   0.000002   0.000003   0.000000  -0.000061  -0.000272
    41  H   -0.000015   0.000010   0.000000   0.000000   0.000236   0.000331
    42  H    0.000274   0.000763  -0.000027  -0.000001  -0.000001   0.000007
    43  H   -0.000001   0.000002   0.000002   0.000000   0.000000   0.000000
    44  H    0.000000   0.000001   0.000000   0.000000   0.000000   0.000004
              31         32         33         34         35         36
     1  C    0.005815  -0.038190  -0.048377   0.007583  -0.007449  -0.008249
     2  C   -0.035155  -0.006852   0.009528  -0.000048   0.003809  -0.000189
     3  C   -0.008129  -0.000352  -0.000134   0.000009   0.000293  -0.000511
     4  C    0.000673   0.000111   0.000275  -0.000018   0.000102   0.000867
     5  C   -0.000098  -0.000056  -0.000173   0.000016  -0.000030   0.000066
     6  H   -0.000118  -0.000110  -0.007057  -0.000173  -0.000350   0.000480
     7  H   -0.003266   0.000251  -0.000307   0.000280  -0.001605   0.000326
     8  H    0.000054  -0.000009  -0.000010   0.000001  -0.000022  -0.000031
     9  H   -0.000035  -0.000003  -0.000010   0.000000   0.000000  -0.000005
    10  O   -0.000114   0.003640   0.003390  -0.000166  -0.000005   0.010126
    11  O    0.000000   0.000008  -0.000030   0.000000   0.000002  -0.000156
    12  C    0.000114   0.387159   0.403781  -0.034714  -0.035772  -0.043678
    13  C   -0.000107  -0.036740  -0.042511   0.391477   0.384104   0.385168
    14  C    0.384087   0.002809  -0.000529  -0.000054   0.000604   0.000127
    15  O    0.010200  -0.000002   0.000004   0.000000   0.000002   0.000003
    16  Si   0.003044  -0.000009   0.000020   0.000000  -0.000046   0.000005
    17  C    0.000056   0.000000   0.000000   0.000000   0.000001   0.000000
    18  C   -0.000063  -0.000002   0.000000   0.000000   0.000363   0.000009
    19  C    0.000248   0.000000   0.000000   0.000000   0.000001   0.000000
    20  H   -0.000013   0.000001   0.000000  -0.000003   0.000239   0.000043
    21  H    0.000236  -0.000003   0.000000  -0.000003   0.000370  -0.000007
    22  H    0.000004   0.000000   0.000000   0.000000  -0.000015   0.000000
    23  H   -0.000002   0.000000   0.000000   0.000000   0.000000   0.000000
    24  H    0.000923   0.000000   0.000000   0.000000   0.000000   0.000000
    25  H   -0.000032   0.000000   0.000000   0.000000   0.000000   0.000000
    26  H    0.000002   0.000000   0.000000   0.000000   0.000000   0.000000
    27  H    0.000001   0.000000   0.000000   0.000000   0.000000   0.000000
    28  H    0.000000   0.000000   0.000000   0.000000   0.000000   0.000000
    29  H   -0.023048  -0.000764   0.000185  -0.000054   0.001719  -0.000106
    30  H   -0.024612   0.000304  -0.000185   0.000011  -0.000120   0.000004
    31  H    0.428349   0.000293   0.000027  -0.000002  -0.000010   0.000022
    32  H    0.000293   0.475937  -0.026182  -0.003593  -0.005551   0.007070
    33  H    0.000027  -0.026182   0.468506  -0.005707   0.006310  -0.003278
    34  H   -0.000002  -0.003593  -0.005707   0.462281  -0.027485  -0.025585
    35  H   -0.000010  -0.005551   0.006310  -0.027485   0.480243  -0.027812
    36  H    0.000022   0.007070  -0.003278  -0.025585  -0.027812   0.467599
    37  C   -0.000971  -0.000006  -0.000020   0.000002  -0.000023   0.000014
    38  C   -0.000173  -0.000001  -0.000002   0.000000   0.000000   0.000000
    39  C    0.000004   0.000000   0.000000   0.000000   0.000000   0.000000
    40  H    0.000049  -0.000033  -0.000026   0.000001  -0.000003  -0.000009
    41  H    0.000740  -0.000009   0.000007   0.000000   0.000002   0.000000
    42  H    0.000013   0.000000   0.000000   0.000000   0.000000   0.000000
    43  H    0.000000   0.000000   0.000000   0.000000   0.000000   0.000000
    44  H    0.000000   0.000000   0.000000   0.000000   0.000000   0.000000
              37         38         39         40         41         42
     1  C   -0.000776  -0.000632  -0.000030   0.003702  -0.000511   0.000007
     2  C   -0.092303   0.009929  -0.000015  -0.009872  -0.008035  -0.000293
     3  C    0.272369  -0.058062  -0.002081  -0.024618  -0.046494  -0.003024
     4  C   -0.108470  -0.013244  -0.000638  -0.003467   0.007212   0.000577
     5  C    0.000630   0.000537   0.000389   0.001752  -0.000323   0.000022
     6  H    0.007302   0.000203   0.000008  -0.001500  -0.000066  -0.000001
     7  H    0.009335  -0.000225  -0.000007  -0.000256  -0.000168   0.000008
     8  H    0.006016  -0.000166   0.000005   0.000229  -0.000136   0.000054
     9  H   -0.008433   0.009735   0.004229  -0.000539   0.000342  -0.000229
    10  O   -0.003095   0.000033  -0.000021   0.002780   0.000059  -0.000001
    11  O    0.000289  -0.000099  -0.000029  -0.000392   0.000004   0.000003
    12  C   -0.000681   0.000007   0.000000   0.000896  -0.000080   0.000001
    13  C    0.000024   0.000000   0.000000  -0.000031   0.000000   0.000000
    14  C   -0.008082  -0.000354   0.000006   0.000618   0.002528  -0.000002
    15  O   -0.079821   0.008437   0.000992   0.003321   0.002326   0.003809
    16  Si   0.000557   0.001198   0.000632  -0.000038  -0.000021   0.000808
    17  C    0.000020  -0.000220  -0.000026   0.000004   0.000020   0.000384
    18  C   -0.000345   0.000033   0.000001   0.000012   0.000012   0.000021
    19  C    0.000046  -0.000105  -0.000002   0.000003  -0.000046   0.000164
    20  H   -0.000075   0.000009   0.000000   0.000002   0.000000   0.000001
    21  H   -0.000084   0.000007   0.000000   0.000002   0.000001   0.000000
    22  H    0.000006   0.000000   0.000000   0.000000   0.000000   0.000000
    23  H    0.000003  -0.000001   0.000000   0.000000   0.000001  -0.000011
    24  H   -0.000002   0.000005   0.000000  -0.000001  -0.000016  -0.000025
    25  H    0.000101  -0.000029  -0.000004  -0.000001  -0.000015   0.000274
    26  H    0.000143   0.000500   0.000076   0.000002   0.000010   0.000763
    27  H   -0.000006  -0.000047  -0.000013   0.000003   0.000000  -0.000027
    28  H    0.000000   0.000008   0.000000   0.000000   0.000000  -0.000001
    29  H   -0.000087   0.000016   0.000000  -0.000061   0.000236  -0.000001
    30  H    0.003846   0.000112  -0.000009  -0.000272   0.000331   0.000007
    31  H   -0.000971  -0.000173   0.000004   0.000049   0.000740   0.000013
    32  H   -0.000006  -0.000001   0.000000  -0.000033  -0.000009   0.000000
    33  H   -0.000020  -0.000002   0.000000  -0.000026   0.000007   0.000000
    34  H    0.000002   0.000000   0.000000   0.000001   0.000000   0.000000
    35  H   -0.000023   0.000000   0.000000  -0.000003   0.000002   0.000000
    36  H    0.000014   0.000000   0.000000  -0.000009   0.000000   0.000000
    37  C    5.502638   0.329356  -0.062433   0.381347   0.394036  -0.044965
    38  C    0.329356   5.054080   0.616617  -0.049322  -0.037522   0.396388
    39  C   -0.062433   0.616617   5.151574   0.002533   0.000466  -0.040568
    40  H    0.381347  -0.049322   0.002533   0.455201  -0.019910   0.005168
    41  H    0.394036  -0.037522   0.000466  -0.019910   0.445849  -0.001723
    42  H   -0.044965   0.396388  -0.040568   0.005168  -0.001723   0.458690
    43  H    0.006297  -0.039258   0.392826   0.000104  -0.000328  -0.007880
    44  H   -0.008736  -0.038846   0.386487   0.004676   0.000138   0.005848
              43         44
     1  C    0.000000  -0.000023
     2  C    0.000016  -0.000024
     3  C   -0.000292  -0.000189
     4  C    0.000059  -0.000048
     5  C   -0.000008   0.000421
     6  H   -0.000001   0.000051
     7  H   -0.000001   0.000005
     8  H   -0.000005   0.000006
     9  H    0.000142  -0.000029
    10  O    0.000000  -0.000082
    11  O   -0.000002   0.000283
    12  C    0.000000  -0.000001
    13  C    0.000000   0.000000
    14  C    0.000000  -0.000002
    15  O    0.000012  -0.000002
    16  Si   0.000017  -0.000003
    17  C    0.000005  -0.000001
    18  C    0.000000   0.000000
    19  C    0.000000   0.000000
    20  H    0.000000   0.000000
    21  H    0.000000   0.000000
    22  H    0.000000   0.000000
    23  H    0.000000   0.000000
    24  H    0.000000   0.000000
    25  H   -0.000001   0.000000
    26  H    0.000002   0.000001
    27  H    0.000002   0.000000
    28  H    0.000000   0.000000
    29  H    0.000000   0.000000
    30  H    0.000000   0.000004
    31  H    0.000000   0.000000
    32  H    0.000000   0.000000
    33  H    0.000000   0.000000
    34  H    0.000000   0.000000
    35  H    0.000000   0.000000
    36  H    0.000000   0.000000
    37  C    0.006297  -0.008736
    38  C   -0.039258  -0.038846
    39  C    0.392826   0.386487
    40  H    0.000104   0.004676
    41  H   -0.000328   0.000138
    42  H   -0.007880   0.005848
    43  H    0.456096  -0.033826
    44  H   -0.033826   0.461041
 Mulliken charges:
               1
     1  C   -0.033551
     2  C   -0.321503
     3  C    0.191041
     4  C   -0.632759
     5  C    0.474840
     6  H    0.251811
     7  H    0.272358
     8  H    0.277176
     9  H    0.286763
    10  O   -0.328899
    11  O   -0.382148
    12  C   -0.441710
    13  C   -0.681990
    14  C   -0.687167
    15  O   -0.639010
    16  Si   1.430567
    17  C   -1.060748
    18  C   -1.081350
    19  C   -1.044520
    20  H    0.249089
    21  H    0.245034
    22  H    0.244473
    23  H    0.232906
    24  H    0.241356
    25  H    0.240796
    26  H    0.243841
    27  H    0.245942
    28  H    0.236435
    29  H    0.243645
    30  H    0.232324
    31  H    0.260994
    32  H    0.240884
    33  H    0.242506
    34  H    0.235947
    35  H    0.228133
    36  H    0.237688
    37  C   -0.494962
    38  C   -0.188903
    39  C   -0.450969
    40  H    0.247945
    41  H    0.261081
    42  H    0.225738
    43  H    0.226024
    44  H    0.222852
 Sum of Mulliken charges =   0.00000
 Mulliken charges with hydrogens summed into heavy atoms:
               1
     1  C    0.218260
     2  C   -0.049146
     3  C    0.191041
     4  C   -0.068820
     5  C    0.474840
    10  O   -0.328899
    11  O   -0.382148
    12  C    0.041680
    13  C    0.019778
    14  C    0.049796
    15  O   -0.639010
    16  Si   1.430567
    17  C   -0.334530
    18  C   -0.342754
    19  C   -0.329462
    37  C    0.014065
    38  C    0.036835
    39  C   -0.002093
 Electronic spatial extent (au):  <R**2>=           5322.5975
 Charge=              0.0000 electrons
 Dipole moment (field-independent basis, Debye):
    X=             -2.0598    Y=             -3.6938    Z=              3.1614  Tot=              5.2803
 Quadrupole moment (field-independent basis, Debye-Ang):
   XX=           -119.7254   YY=           -120.1562   ZZ=           -126.8767
   XY=             -6.8112   XZ=             13.5077   YZ=              6.5964
 Traceless Quadrupole moment (field-independent basis, Debye-Ang):
   XX=              2.5274   YY=              2.0965   ZZ=             -4.6239
   XY=             -6.8112   XZ=             13.5077   YZ=              6.5964
 Octapole moment (field-independent basis, Debye-Ang**2):
  XXX=             -8.0557  YYY=              2.2531  ZZZ=             13.2973  XYY=             -7.0529
  XXY=            -23.6467  XXZ=             19.5283  XZZ=             -9.3942  YZZ=            -25.2185
  YYZ=             11.1450  XYZ=             11.7984
 Hexadecapole moment (field-independent basis, Debye-Ang**3):
 XXXX=          -3692.2972 YYYY=          -2264.1804 ZZZZ=          -1238.0733 XXXY=            -43.0260
 XXXZ=             74.9124 YYYX=            -20.8241 YYYZ=            -24.8031 ZZZX=             32.0378
 ZZZY=             17.3450 XXYY=           -980.5006 XXZZ=           -868.3933 YYZZ=           -651.0895
 XXYZ=             56.4290 YYXZ=             37.0460 ZZXY=            -25.0790
 N-N= 1.632999306424D+03 E-N=-5.761113724261D+03  KE= 1.060532397794D+03
 1\1\GINC-CPU-E-532\SP\RmPW1PW91\6-311G(d)\C14H26O3Si1\KE291\06-Feb-201
 9\0\\# mPW1PW91/6-311g(d) geom=checkpoint nmr=giao scrf=(solvent=chlor
 oform)\\P_ng_correct1ginp002\\0,1\C,0,1.0156218512,-0.4838270299,0.621
 7013276\C,0,-0.5201905822,-0.5028380694,0.6237931753\C,0,-1.0924787805
 ,0.59165499,1.5680637812\C,0,-0.5565026481,1.9415955654,1.0681539272\C
 ,0,0.9429498925,1.9965161934,0.8428952712\H,0,1.3694938903,-0.87986444
 97,1.5814546685\H,0,-0.8716471406,-0.2285844438,-0.3781849655\H,0,-1.0
 067342023,2.1744525713,0.0955443373\H,0,-0.812728281,2.7553007258,1.74
 87436464\O,0,1.5927885153,0.8573783199,0.5263486024\O,0,1.5682984498,3
 .0358724252,0.8694059483\C,0,1.6866114795,-1.2933098742,-0.4952166663\
 C,0,1.3215015312,-0.8702826581,-1.9211043863\C,0,-1.0368856322,-1.9156
 532899,0.9349482707\O,0,-2.5159422414,0.5466455667,1.5290756773\Si,0,-
 3.7405444911,1.2065906664,0.5827827657\C,0,-3.9533776511,3.0489136108,
 0.9315482253\C,0,-3.4562062827,0.9330310775,-1.2646951458\C,0,-5.27475
 29969,0.2702060723,1.1363500478\H,0,-2.5900432035,1.4795212324,-1.6522
 955579\H,0,-3.3169370075,-0.1281263422,-1.4969727582\H,0,-4.3327503868
 ,1.2806461307,-1.8243987691\H,0,-6.1644402078,0.634136287,0.6104557276
 \H,0,-5.1801178459,-0.8017177553,0.9337946129\H,0,-5.4472821428,0.3940
 462934,2.2104881335\H,0,-4.0773546073,3.2335230188,2.0039255201\H,0,-3
 .1044216319,3.6469877484,0.585723748\H,0,-4.84956198,3.4249900715,0.42
 42000904\H,0,-0.8439451359,-2.5963088755,0.1016231905\H,0,-0.560468448
 7,-2.3394897749,1.8252810359\H,0,-2.1146382808,-1.8896859014,1.1074790
 117\H,0,1.4514144816,-2.3515980569,-0.3385240875\H,0,2.7683937203,-1.1
 956547731,-0.3514850797\H,0,1.92123614,-1.428193902,-2.646250559\H,0,0
 .2688547806,-1.0603406367,-2.1529896751\H,0,1.5171461545,0.1950264495,
 -2.0749609132\C,0,-0.6974524253,0.3618635355,3.0526675101\C,0,-1.27935
 39789,1.3721641149,4.003408069\C,0,-0.5642148226,2.1637347413,4.804532
 1381\H,0,0.3938865339,0.358628476,3.1502427542\H,0,-1.0516631983,-0.63
 7155711,3.3342376248\H,0,-2.3658540912,1.4296600726,4.0237830117\H,0,-
 1.039243209,2.8659475102,5.4835383455\H,0,0.5231841134,2.1362100771,4.
 8151003673\\Version=ES64L-G09RevD.01\State=1-A\HF=-1064.3845426\RMSD=9
 .137e-09\Dipole=-1.3450852,-1.5399124,-0.3675602\Quadrupole=-3.5727287
 ,-0.3970391,3.9697677,-11.6630177,2.2534528,1.9986931\PG=C01 [X(C14H26
 O3Si1)]\\@


 LIFE IS SO UNCERTAIN - EAT DESSERT FIRST.
 Job cpu time:       0 days  0 hours 21 minutes  0.2 seconds.
 File lengths (MBytes):  RWF=    243 Int=      0 D2E=      0 Chk=     19 Scr=      1
 Normal termination of Gaussian 09 at Wed Feb  6 11:32:24 2019.
