 Entering Gaussian System, Link 0=/usr/local/shared/gaussian/em64t/09-D01/g09/g09
 Initial command:
 /usr/local/shared/gaussian/em64t/09-D01/g09/l1.exe "/scratch/ke291/P_ng_correct1ginp015/Gau-12009.inp" -scrdir="/scratch/ke291/P_ng_correct1ginp015/"
 Entering Link 1 = /usr/local/shared/gaussian/em64t/09-D01/g09/l1.exe PID=     12013.
  
 Copyright (c) 1988,1990,1992,1993,1995,1998,2003,2009,2013,
            Gaussian, Inc.  All Rights Reserved.
  
 This is part of the Gaussian(R) 09 program.  It is based on
 the Gaussian(R) 03 system (copyright 2003, Gaussian, Inc.),
 the Gaussian(R) 98 system (copyright 1998, Gaussian, Inc.),
 the Gaussian(R) 94 system (copyright 1995, Gaussian, Inc.),
 the Gaussian 92(TM) system (copyright 1992, Gaussian, Inc.),
 the Gaussian 90(TM) system (copyright 1990, Gaussian, Inc.),
 the Gaussian 88(TM) system (copyright 1988, Gaussian, Inc.),
 the Gaussian 86(TM) system (copyright 1986, Carnegie Mellon
 University), and the Gaussian 82(TM) system (copyright 1983,
 Carnegie Mellon University). Gaussian is a federally registered
 trademark of Gaussian, Inc.
  
 This software contains proprietary and confidential information,
 including trade secrets, belonging to Gaussian, Inc.
  
 This software is provided under written license and may be
 used, copied, transmitted, or stored only in accord with that
 written license.
  
 The following legend is applicable only to US Government
 contracts under FAR:
  
                    RESTRICTED RIGHTS LEGEND
  
 Use, reproduction and disclosure by the US Government is
 subject to restrictions as set forth in subparagraphs (a)
 and (c) of the Commercial Computer Software - Restricted
 Rights clause in FAR 52.227-19.
  
 Gaussian, Inc.
 340 Quinnipiac St., Bldg. 40, Wallingford CT 06492
  
  
 ---------------------------------------------------------------
 Warning -- This program may not be used in any manner that
 competes with the business of Gaussian, Inc. or will provide
 assistance to any competitor of Gaussian, Inc.  The licensee
 of this program is prohibited from giving any competitor of
 Gaussian, Inc. access to this program.  By using this program,
 the user acknowledges that Gaussian, Inc. is engaged in the
 business of creating and licensing software in the field of
 computational chemistry and represents and warrants to the
 licensee that it is not a competitor of Gaussian, Inc. and that
 it will not use this program in any manner prohibited above.
 ---------------------------------------------------------------
  

 Cite this work as:
 Gaussian 09, Revision D.01,
 M. J. Frisch, G. W. Trucks, H. B. Schlegel, G. E. Scuseria, 
 M. A. Robb, J. R. Cheeseman, G. Scalmani, V. Barone, B. Mennucci, 
 G. A. Petersson, H. Nakatsuji, M. Caricato, X. Li, H. P. Hratchian, 
 A. F. Izmaylov, J. Bloino, G. Zheng, J. L. Sonnenberg, M. Hada, 
 M. Ehara, K. Toyota, R. Fukuda, J. Hasegawa, M. Ishida, T. Nakajima, 
 Y. Honda, O. Kitao, H. Nakai, T. Vreven, J. A. Montgomery, Jr., 
 J. E. Peralta, F. Ogliaro, M. Bearpark, J. J. Heyd, E. Brothers, 
 K. N. Kudin, V. N. Staroverov, T. Keith, R. Kobayashi, J. Normand, 
 K. Raghavachari, A. Rendell, J. C. Burant, S. S. Iyengar, J. Tomasi, 
 M. Cossi, N. Rega, J. M. Millam, M. Klene, J. E. Knox, J. B. Cross, 
 V. Bakken, C. Adamo, J. Jaramillo, R. Gomperts, R. E. Stratmann, 
 O. Yazyev, A. J. Austin, R. Cammi, C. Pomelli, J. W. Ochterski, 
 R. L. Martin, K. Morokuma, V. G. Zakrzewski, G. A. Voth, 
 P. Salvador, J. J. Dannenberg, S. Dapprich, A. D. Daniels, 
 O. Farkas, J. B. Foresman, J. V. Ortiz, J. Cioslowski, 
 and D. J. Fox, Gaussian, Inc., Wallingford CT, 2013.
 
 ******************************************
 Gaussian 09:  EM64L-G09RevD.01 24-Apr-2013
                 6-Feb-2019 
 ******************************************
 %nprocshared=2
 Will use up to    2 processors via shared memory.
 %mem=6000MB
 %chk=P_ng_correct1ginp015.chk
 ----------------------------------------------------------------------
 # mPW1PW91/6-311g(d) geom=checkpoint nmr=giao scrf=(solvent=chloroform
 )
 ----------------------------------------------------------------------
 1/29=2,38=1/1;
 2/12=2,40=1/2;
 3/5=4,6=6,7=1,11=2,14=-4,16=1,25=1,30=1,70=2201,72=7,74=-7/1,2,8,3;
 4//1;
 5/5=2,38=5,53=7/2;
 8/6=1,10=90,11=11/1;
 10/13=100,45=16/2;
 6/7=2,8=2,9=2,10=2,28=1/1;
 99/9=1/99;
 --------------------
 P_ng_correct1ginp015
 --------------------
 Structure from the checkpoint file:  "P_ng_correct1ginp015.chk"
 Charge =  0 Multiplicity = 1
 Redundant internal coordinates found in file.
 C,0,1.1362537856,-0.4897338674,0.6041246778
 C,0,-0.3977562226,-0.5537780468,0.6347875966
 C,0,-0.9997508005,0.6198228552,1.4615713489
 C,0,-0.5125727184,1.9133870384,0.7888519926
 C,0,0.9867284182,1.9964381867,0.5707832089
 H,0,1.5172814201,-0.7782157907,1.5915006979
 H,0,-0.772787803,-0.3992308194,-0.3846042813
 H,0,-0.9601238619,1.9808484952,-0.2104293343
 H,0,-0.8122856495,2.8099491112,1.3323449979
 O,0,1.6718241196,0.8527956838,0.3698731501
 O,0,1.5789606833,3.0532689083,0.5026784901
 C,0,1.815874,-1.3846422395,-0.4399047476
 C,0,1.4135170351,-1.1182452068,-1.8935404879
 C,0,-0.8668783653,-1.9391434229,1.1028826844
 O,0,-2.4143150468,0.5009748779,1.4251760261
 Si,0,-3.726465691,1.2834701484,0.7276056212
 C,0,-3.6857304262,1.1667264066,-1.1577467361
 C,0,-5.2045101393,0.3259148774,1.3881543893
 C,0,-3.841707317,3.0918016881,1.2542379618
 H,0,-5.1606227708,-0.726052529,1.0873698059
 H,0,-5.2408624414,0.3611652695,2.4817746931
 H,0,-6.1428942547,0.7443495409,1.0073496112
 H,0,-3.7551478618,3.1878677883,2.3410473386
 H,0,-3.0672748906,3.7156784331,0.7968815088
 H,0,-4.8129291298,3.5040577274,0.9562639711
 H,0,-2.8680495689,1.7426452836,-1.6037895059
 H,0,-3.5857782873,0.1276834682,-1.4894485641
 H,0,-4.621033985,1.5585828653,-1.5749817297
 H,0,-0.6432231088,-2.7028436445,0.3533666504
 H,0,-0.3839040877,-2.2414253585,2.0381103964
 H,0,-1.9465091963,-1.9292187876,1.2638632585
 H,0,1.6190282746,-2.4290575413,-0.1747347441
 H,0,2.8958943957,-1.2388264564,-0.3276070757
 H,0,2.0233234214,-1.7230095947,-2.5711253697
 H,0,0.3656105119,-1.3689078436,-2.0855778011
 H,0,1.5659014965,-0.067056008,-2.1558079661
 C,0,-0.5813390683,0.5589381383,2.9580471663
 C,0,-1.1123747161,1.6756418687,3.8158696893
 C,0,-1.9855279058,1.5153380166,4.8115797911
 H,0,0.51531155,0.5614681613,3.0178648308
 H,0,-0.9243665457,-0.3977323629,3.3624297439
 H,0,-0.7253192711,2.6745865554,3.6164317568
 H,0,-2.320449771,2.3526672537,5.4168904335
 H,0,-2.3915362098,0.5378528724,5.0614178545
 Recover connectivity data from disk.
                          Input orientation:                          
 ---------------------------------------------------------------------
 Center     Atomic      Atomic             Coordinates (Angstroms)
 Number     Number       Type             X           Y           Z
 ---------------------------------------------------------------------
      1          6           0        1.136254   -0.489734    0.604125
      2          6           0       -0.397756   -0.553778    0.634788
      3          6           0       -0.999751    0.619823    1.461571
      4          6           0       -0.512573    1.913387    0.788852
      5          6           0        0.986728    1.996438    0.570783
      6          1           0        1.517281   -0.778216    1.591501
      7          1           0       -0.772788   -0.399231   -0.384604
      8          1           0       -0.960124    1.980848   -0.210429
      9          1           0       -0.812286    2.809949    1.332345
     10          8           0        1.671824    0.852796    0.369873
     11          8           0        1.578961    3.053269    0.502678
     12          6           0        1.815874   -1.384642   -0.439905
     13          6           0        1.413517   -1.118245   -1.893540
     14          6           0       -0.866878   -1.939143    1.102883
     15          8           0       -2.414315    0.500975    1.425176
     16         14           0       -3.726466    1.283470    0.727606
     17          6           0       -3.685730    1.166726   -1.157747
     18          6           0       -5.204510    0.325915    1.388154
     19          6           0       -3.841707    3.091802    1.254238
     20          1           0       -5.160623   -0.726053    1.087370
     21          1           0       -5.240862    0.361165    2.481775
     22          1           0       -6.142894    0.744350    1.007350
     23          1           0       -3.755148    3.187868    2.341047
     24          1           0       -3.067275    3.715678    0.796882
     25          1           0       -4.812929    3.504058    0.956264
     26          1           0       -2.868050    1.742645   -1.603790
     27          1           0       -3.585778    0.127683   -1.489449
     28          1           0       -4.621034    1.558583   -1.574982
     29          1           0       -0.643223   -2.702844    0.353367
     30          1           0       -0.383904   -2.241425    2.038110
     31          1           0       -1.946509   -1.929219    1.263863
     32          1           0        1.619028   -2.429058   -0.174735
     33          1           0        2.895894   -1.238826   -0.327607
     34          1           0        2.023323   -1.723010   -2.571125
     35          1           0        0.365611   -1.368908   -2.085578
     36          1           0        1.565901   -0.067056   -2.155808
     37          6           0       -0.581339    0.558938    2.958047
     38          6           0       -1.112375    1.675642    3.815870
     39          6           0       -1.985528    1.515338    4.811580
     40          1           0        0.515312    0.561468    3.017865
     41          1           0       -0.924367   -0.397732    3.362430
     42          1           0       -0.725319    2.674587    3.616432
     43          1           0       -2.320450    2.352667    5.416890
     44          1           0       -2.391536    0.537853    5.061418
 ---------------------------------------------------------------------
                    Distance matrix (angstroms):
                    1          2          3          4          5
     1  C    0.000000
     2  C    1.535652   0.000000
     3  C    2.555161   1.556698   0.000000
     4  C    2.920230   2.474636   1.537271   0.000000
     5  C    2.490888   2.902498   2.575786   1.517351   0.000000
     6  H    1.096957   2.152450   2.882160   3.465441   3.003674
     7  H    2.151794   1.097130   2.120931   2.606322   3.122162
     8  H    3.340969   2.730381   2.156281   1.097003   2.097801
     9  H    3.900643   3.460214   2.201930   1.090429   2.116182
    10  O    1.464273   2.516305   2.895409   2.464140   1.348198
    11  O    3.571995   4.115295   3.672994   2.399112   1.213371
    12  C    1.533865   2.597202   3.944773   4.220012   3.625007
    13  C    2.590412   3.160977   4.483472   4.482839   3.994533
    14  C    2.522318   1.535717   2.587397   3.881512   4.382669
    15  O    3.776529   2.409093   1.420015   2.452843   3.812282
    16  Si   5.177407   3.803210   2.900708   3.275615   4.769394
    17  C    5.394403   4.121176   3.791361   3.796798   5.050555
    18  C    6.440906   4.944320   4.215658   4.989339   6.464532
    19  C    6.166858   5.053194   3.772318   3.562076   4.998072
    20  H    6.319812   4.787422   4.389107   5.353515   6.743052
    21  H    6.702030   5.263474   4.369754   5.256625   6.716315
    22  H    7.394021   5.901741   5.164663   5.754556   7.251885
    23  H    6.361404   5.308796   3.867886   3.814172   5.199878
    24  H    5.949143   5.037942   3.781639   3.126471   4.409291
    25  H    7.174061   6.005259   4.807752   4.588172   6.004793
    26  H    5.088501   4.048103   3.761344   3.361868   4.433113
    27  H    5.202100   3.891048   3.954524   4.221846   5.352067
    28  H    6.487717   5.213562   4.818259   4.753215   6.020218
    29  H    2.850837   2.181269   3.520702   4.638567   4.978681
    30  H    2.726833   2.194917   2.983020   4.340469   4.689474
    31  H    3.465660   2.164765   2.726363   4.128853   4.949245
    32  H    2.144917   2.870439   4.339490   4.932448   4.532175
    33  H    2.127345   3.499090   4.672450   4.774995   3.862507
    34  H    3.519954   4.184090   5.557921   5.562697   4.977993
    35  H    2.932804   2.940672   4.289700   4.450507   4.332158
    36  H    2.824975   3.446777   4.487740   4.112570   3.468105
    37  C    3.096900   2.582513   1.555061   2.558255   3.197541
    38  C    4.478894   3.949718   2.582665   3.095016   3.878109
    39  C    5.609680   4.924211   3.605033   4.302369   5.200973
    40  H    2.704947   2.785054   2.172756   2.802272   2.875688
    41  H    3.444251   2.782391   2.157398   3.483411   4.144590
    42  H    4.748934   4.406794   2.990115   2.935965   3.559068
    43  H    6.571968   5.917152   4.515700   4.987998   5.877847
    44  H    5.776565   4.976130   3.860399   4.865945   5.805682
                    6          7          8          9         10
     6  H    0.000000
     7  H    3.048448   0.000000
     8  H    4.122733   2.393786   0.000000
     9  H    4.285904   3.639823   1.757674   0.000000
    10  O    2.043638   2.848321   2.921713   3.305693   0.000000
    11  O    3.983668   4.270567   2.847026   2.542756   2.206432
    12  C    2.140915   2.770427   4.368678   5.257631   2.383824
    13  C    3.503127   2.752054   4.251049   5.548986   3.012435
    14  C    2.696427   2.143082   4.135193   4.754946   3.844117
    15  O    4.137807   2.603898   2.641951   2.811846   4.234852
    16  Si   5.700329   3.576689   3.003147   3.344891   5.427245
    17  C    6.197781   3.396352   2.998189   4.142152   5.579925
    18  C    6.814905   4.827906   4.827949   5.046303   6.971260
    19  C    6.618878   4.928628   3.418039   3.043507   6.016168
    20  H    6.697109   4.639678   5.162924   5.609934   7.049106
    21  H    6.911099   5.362651   5.309996   5.189415   7.244796
    22  H    7.831841   5.664217   5.465622   5.726056   7.841426
    23  H    6.640041   5.402863   3.972290   3.133806   6.228171
    24  H    6.468745   4.857269   2.909363   2.488382   5.553152
    25  H    7.668961   5.775494   4.304120   4.077790   7.030297
    26  H    5.982955   3.234837   2.374526   3.739811   5.029675
    27  H    6.029438   3.067774   3.458926   4.780097   5.623633
    28  H    7.291513   4.478731   3.929704   4.952275   6.624248
    29  H    3.147213   2.422400   4.728135   5.601595   4.242910
    30  H    2.440276   3.068299   4.818252   5.118398   4.072252
    31  H    3.664696   2.536914   4.293614   4.873486   4.650931
    32  H    2.419756   3.144046   5.108872   5.969068   3.327153
    33  H    2.407428   3.763960   5.024830   5.735732   2.521847
    34  H    4.298392   3.788338   5.309652   6.620081   3.925277
    35  H    3.898226   2.264848   4.061357   5.525620   3.559691
    36  H    3.814503   2.952452   3.789355   5.108830   2.690058
    37  C    2.838950   3.482536   3.493501   2.786269   3.444088
    38  C    4.228986   4.697276   4.040720   2.746744   4.505966
    39  C    5.281948   5.668919   5.146720   3.893275   5.791713
    40  H    2.198457   3.762837   3.822752   3.107919   2.904179
    41  H    3.040165   3.750099   4.292348   3.797766   4.154446
    42  H    4.588186   5.045681   3.896315   2.289746   4.427794
    43  H    6.258132   6.604963   5.801333   4.378033   6.607590
    44  H    5.389918   5.758266   5.650093   4.643537   6.214554
                   11         12         13         14         15
    11  O    0.000000
    12  C    4.543088   0.000000
    13  C    4.813602   1.531638   0.000000
    14  C    5.591650   3.144014   3.853911   0.000000
    15  O    4.828194   4.992853   5.318651   2.907337   0.000000
    16  Si   5.597350   6.260945   6.249645   4.324732   1.679477
    17  C    5.833783   6.106753   5.636028   4.764746   2.954862
    18  C    7.364646   7.453429   7.526846   4.901726   2.795927
    19  C    5.472656   7.410594   7.433060   5.846616   2.962947
    20  H    7.749008   7.172016   7.229036   4.461846   3.026866
    21  H    7.594355   7.834640   8.100173   5.130741   3.020814
    22  H    8.075447   8.364756   8.305647   5.920017   3.759802
    23  H    5.643619   7.725143   7.949179   6.013435   3.139434
    24  H    4.702430   7.168546   7.119177   6.075557   3.339974
    25  H    6.423800   8.354023   8.261701   6.724675   3.871916
    26  H    5.092233   5.750973   5.157564   4.988620   3.304883
    27  H    6.261162   5.706708   5.168035   4.287700   3.163338
    28  H    6.707510   7.168316   6.609288   5.787809   3.871575
    29  H    6.171971   2.900706   3.433617   1.093176   3.814446
    30  H    5.851852   3.422522   4.466557   1.095121   3.466845
    31  H    6.150896   4.165923   4.681522   1.091612   2.480062
    32  H    5.524165   1.095384   2.171349   2.837614   5.235710
    33  H    4.565717   1.095590   2.159660   4.085976   5.856405
    34  H    5.697242   2.167863   1.093949   4.679564   6.372532
    35  H    5.265637   2.193571   1.094449   3.465614   4.852818
    36  H    4.099286   2.177807   1.094077   4.476851   5.384072
    37  C    4.113079   4.590230   5.507295   3.124673   2.390158
    38  C    4.485352   6.004298   6.839832   4.526283   2.964845
    39  C    5.799779   7.102016   7.965419   5.190304   3.560972
    40  H    3.696834   4.175521   5.267838   3.439573   3.335121
    41  H    5.133638   4.789641   5.797419   2.735837   2.603953
    42  H    3.892116   6.276055   7.022819   5.255899   3.518366
    43  H    6.312347   8.085710   8.912471   6.256450   4.401291
    44  H    6.547845   7.187687   8.098922   4.912239   3.636500
                   16         17         18         19         20
    16  Si   0.000000
    17  C    1.889403   0.000000
    18  C    1.880918   3.081439   0.000000
    19  C    1.886978   3.089970   3.086308   0.000000
    20  H    2.494878   3.286102   1.095004   4.042696   0.000000
    21  H    2.494224   4.038995   1.094792   3.304672   1.769985
    22  H    2.491593   3.302075   1.095748   3.296505   1.770125
    23  H    2.496146   4.041212   3.346555   1.094475   4.343482
    24  H    2.520906   3.271118   4.050664   1.094597   4.918888
    25  H    2.482679   3.347049   3.231170   1.096365   4.246400
    26  H    2.526484   1.095098   4.051901   3.307046   4.311925
    27  H    2.504190   1.095275   3.307595   4.047136   3.138311
    28  H    2.485528   1.096553   3.261915   3.310981   3.549483
    29  H    5.053428   5.149164   5.572208   6.679804   4.985315
    30  H    5.031404   5.721106   5.500175   6.404231   5.100716
    31  H    3.711763   4.298135   3.964296   5.366797   3.436464
    32  H    6.570494   6.483551   7.522843   7.895662   7.103295
    33  H    7.164573   7.056458   8.426672   8.164058   8.195887
    34  H    7.278779   6.552977   8.492088   8.497905   8.123275
    35  H    5.629760   4.868642   6.779785   6.982394   6.404695
    36  H    6.176338   5.486163   7.651965   7.130850   7.496573
    37  C    3.923218   5.190993   4.888003   4.466359   5.110819
    38  C    4.065052   5.622990   4.945820   4.002090   5.440695
    39  C    4.445613   6.216517   4.847310   4.311070   5.382824
    40  H    4.874346   5.954059   5.952126   5.338219   6.131945
    41  H    4.197678   5.523102   4.768759   5.013202   4.819705
    42  H    4.391742   5.816396   5.526720   3.932671   6.134527
    43  H    5.010934   6.818820   5.353153   4.493130   6.024105
    44  H    4.595640   6.383450   4.631480   4.808354   5.005832
                   21         22         23         24         25
    21  H    0.000000
    22  H    1.770430   0.000000
    23  H    3.196467   3.667542   0.000000
    24  H    4.337754   4.281650   1.770932   0.000000
    25  H    3.519671   3.063887   1.771017   1.765643   0.000000
    26  H    4.922455   4.305723   4.293873   3.113803   3.665925
    27  H    4.308646   3.626723   4.905722   4.286007   4.345954
    28  H    4.274958   3.106038   4.328927   3.562719   3.198265
    29  H    5.920858   6.523589   6.952369   6.875330   7.501704
    30  H    5.528143   6.568355   6.397990   6.650430   7.334660
    31  H    4.193081   4.982310   5.533179   5.773998   6.150730
    32  H    7.867686   8.468487   8.170727   7.788662   8.823327
    33  H    8.755536   9.349588   8.423402   7.833963   9.141621
    34  H    9.090873   9.250971   9.035313   8.175389   9.300487
    35  H    7.435483   7.509507   7.572309   6.778369   7.734072
    36  H    8.247580   8.371946   7.689591   6.670366   7.945271
    37  C    4.687975   5.896651   4.167136   4.562403   5.530571
    38  C    4.533439   5.836199   3.383220   4.134933   5.021409
    39  C    4.166210   5.687731   3.468781   4.704198   5.178095
    40  H    5.784553   6.957537   5.058941   5.264669   6.426444
    41  H    4.470304   5.838132   4.681140   5.300400   6.011199
    42  H    5.198990   6.315318   3.327150   3.810314   4.947026
    43  H    4.594540   6.053249   3.495244   4.874426   5.237876
    44  H    3.847653   5.527278   4.035150   5.361107   5.613716
                   26         27         28         29         30
    26  H    0.000000
    27  H    1.770963   0.000000
    28  H    1.762857   1.768203   0.000000
    29  H    5.342535   4.479563   6.140135   0.000000
    30  H    5.941989   5.320559   6.741496   1.765932   0.000000
    31  H    4.749237   3.807726   5.232292   1.768065   1.771628
    32  H    6.291198   5.946041   7.536600   2.339152   2.990590
    33  H    6.613688   6.725274   8.116998   3.890042   4.166402
    34  H    6.072235   6.004757   7.477208   4.077156   5.225759
    35  H    4.513362   4.267157   5.804958   2.957293   4.281105
    36  H    4.820754   5.198246   6.423257   4.257178   5.110634
    37  C    5.238374   5.384501   6.153599   4.174615   2.954200
    38  C    5.697332   6.054775   6.433170   5.601800   4.362856
    39  C    6.479774   6.647507   6.909119   6.282555   4.936659
    40  H    5.848248   6.109254   6.962077   4.370067   3.102373
    41  H    5.746517   5.558768   6.470746   3.800926   2.333479
    42  H    5.719311   6.382707   6.585805   6.290556   5.174441
    43  H    7.068376   7.365401   7.403346   7.349187   6.022628
    44  H    6.789962   6.671454   7.074910   5.976994   4.571145
                   31         32         33         34         35
    31  H    0.000000
    32  H    3.877172   0.000000
    33  H    5.143762   1.752258   0.000000
    34  H    5.523516   2.530740   2.455440   0.000000
    35  H    4.108357   2.519185   3.083783   1.763280   0.000000
    36  H    5.243933   3.083265   2.546418   1.767457   1.772131
    37  C    3.305280   4.856342   5.110639   6.524056   5.481921
    38  C    4.494835   6.343031   6.459779   7.885248   6.803000
    39  C    4.944976   7.308517   7.604272   9.003450   7.836932
    40  H    3.916708   4.511555   4.483349   6.223323   5.458378
    41  H    2.791811   4.806940   5.377565   6.756649   5.682254
    42  H    5.312335   6.776141   6.632001   8.073398   7.074807
    43  H    5.976790   8.345697   8.550341   9.964332   8.795003
    44  H    4.550375   7.232184   7.755972   9.102648   7.894121
                   36         37         38         39         40
    36  H    0.000000
    37  C    5.581579   0.000000
    38  C    6.772820   1.504954   0.000000
    39  C    7.978792   2.514365   1.333991   0.000000
    40  H    5.316547   1.098284   2.127806   3.222030   0.000000
    41  H    6.063145   1.093806   2.130689   2.624107   1.763934
    42  H    6.788597   2.220398   1.089715   2.088148   2.522443
    43  H    8.848986   3.505407   2.116855   1.086137   4.123743
    44  H    8.253216   2.775144   2.117123   1.087538   3.553369
                   41         42         43         44
    41  H    0.000000
    42  H    3.089220   0.000000
    43  H    3.706016   2.426876   0.000000
    44  H    2.431968   3.070813   1.850666   0.000000
 Stoichiometry    C14H26O3Si
 Framework group  C1[X(C14H26O3Si)]
 Deg. of freedom   126
 Full point group                 C1      NOp   1
 Largest Abelian subgroup         C1      NOp   1
 Largest concise Abelian subgroup C1      NOp   1
                         Standard orientation:                         
 ---------------------------------------------------------------------
 Center     Atomic      Atomic             Coordinates (Angstroms)
 Number     Number       Type             X           Y           Z
 ---------------------------------------------------------------------
      1          6           0       -2.537159    0.117069   -0.609440
      2          6           0       -1.161276   -0.527349   -0.832819
      3          6           0       -0.013502    0.388107   -0.315263
      4          6           0       -0.284156    0.611722    1.181381
      5          6           0       -1.681885    1.099987    1.513506
      6          1           0       -2.656342    0.941415   -1.323278
      7          1           0       -1.096913   -1.432542   -0.216234
      8          1           0       -0.173603   -0.345262    1.706143
      9          1           0        0.420414    1.307584    1.637881
     10          8           0       -2.699611    0.732604    0.709203
     11          8           0       -1.927366    1.748853    2.508986
     12          6           0       -3.741240   -0.819454   -0.770237
     13          6           0       -3.755510   -2.035035    0.161468
     14          6           0       -0.998077   -0.946608   -2.301156
     15          8           0        1.217394   -0.283624   -0.539125
     16         14           0        2.413389   -1.052500    0.354781
     17          6           0        1.751043   -2.593234    1.224999
     18          6           0        3.673659   -1.555200   -0.947857
     19          6           0        3.214090    0.100176    1.616090
     20          1           0        3.230518   -2.230972   -1.686769
     21          1           0        4.059806   -0.680799   -1.481602
     22          1           0        4.524509   -2.071539   -0.489475
     23          1           0        3.504996    1.046740    1.149973
     24          1           0        2.554776    0.327291    2.459811
     25          1           0        4.118750   -0.366329    2.023496
     26          1           0        1.042131   -2.359672    2.026330
     27          1           0        1.251382   -3.264713    0.518542
     28          1           0        2.579875   -3.148874    1.679676
     29          1           0       -1.659533   -1.781699   -2.546377
     30          1           0       -1.229719   -0.127288   -2.989883
     31          1           0        0.030146   -1.264975   -2.482859
     32          1           0       -3.787313   -1.140106   -1.816624
     33          1           0       -4.638340   -0.215268   -0.595626
     34          1           0       -4.696359   -2.582641    0.053503
     35          1           0       -2.943229   -2.734763   -0.058532
     36          1           0       -3.666391   -1.727729    1.207711
     37          6           0        0.060110    1.733274   -1.092002
     38          6           0        1.136824    2.678677   -0.631802
     39          6           0        2.190356    3.040629   -1.365692
     40          1           0       -0.910577    2.240664   -1.011077
     41          1           0        0.215474    1.500652   -2.149433
     42          1           0        1.018402    3.111798    0.361104
     43          1           0        2.928694    3.745655   -0.994897
     44          1           0        2.348003    2.649136   -2.367999
 ---------------------------------------------------------------------
 Rotational constants (GHZ):      0.4828601      0.2721086      0.2442983
 Standard basis: 6-311G(d) (5D, 7F)
 There are   428 symmetry adapted cartesian basis functions of A   symmetry.
 There are   410 symmetry adapted basis functions of A   symmetry.
   410 basis functions,   720 primitive gaussians,   428 cartesian basis functions
    74 alpha electrons       74 beta electrons
       nuclear repulsion energy      1630.4385762366 Hartrees.
 NAtoms=   44 NActive=   44 NUniq=   44 SFac= 1.00D+00 NAtFMM=   60 NAOKFM=F Big=F
 Integral buffers will be    131072 words long.
 Raffenetti 2 integral format.
 Two-electron integral symmetry is turned on.
 ------------------------------------------------------------------------------
 Polarizable Continuum Model (PCM)
 =================================
 Model                : PCM (using non-symmetric T matrix).
 Atomic radii         : UFF (Universal Force Field).
 Polarization charges : Total charges.
 Charge compensation  : None.
 Solution method      : On-the-fly selection.
 Cavity type          : Scaled VdW (van der Waals Surface) (Alpha=1.100).
 Cavity algorithm     : GePol (No added spheres)
                        Default sphere list used, NSphG=   44.
                        Lebedev-Laikov grids with approx.  5.0 points / Ang**2.
                        Smoothing algorithm: Karplus/York (Gamma=1.0000).
                        Polarization charges: spherical gaussians, with
                                              point-specific exponents (IZeta= 3).
                        Self-potential: point-specific (ISelfS= 7).
                        Self-field    : sphere-specific E.n sum rule (ISelfD= 2).
 Solvent              : Chloroform, Eps=   4.711300 Eps(inf)=   2.090627
 ------------------------------------------------------------------------------
 One-electron integrals computed using PRISM.
 NBasis=   410 RedAO= T EigKep=  1.03D-03  NBF=   410
 NBsUse=   410 1.00D-06 EigRej= -1.00D+00 NBFU=   410
 ExpMin= 6.54D-02 ExpMax= 6.94D+04 ExpMxC= 2.33D+03 IAcc=2 IRadAn=         4 AccDes= 0.00D+00
 Harris functional with IExCor=  908 and IRadAn=       4 diagonalized for initial guess.
 HarFok:  IExCor=  908 AccDes= 0.00D+00 IRadAn=         4 IDoV= 1 UseB2=F ITyADJ=14
 ICtDFT=  3500011 ScaDFX=  1.000000  1.000000  1.000000  1.000000
 FoFCou: FMM=F IPFlag=           0 FMFlag=      100000 FMFlg1=           0
         NFxFlg=           0 DoJE=T BraDBF=F KetDBF=T FulRan=T
         wScrn=  0.000000 ICntrl=     500 IOpCl=  0 I1Cent=   200000004 NGrid=           0
         NMat0=    1 NMatS0=      1 NMatT0=    0 NMatD0=    1 NMtDS0=    0 NMtDT0=    0
 Petite list used in FoFCou.
 Requested convergence on RMS density matrix=1.00D-08 within 128 cycles.
 Requested convergence on MAX density matrix=1.00D-06.
 Requested convergence on             energy=1.00D-06.
 No special actions if energy rises.
 Inv3:  Mode=1 IEnd=    26001408.
 Iteration    1 A*A^-1 deviation from unit magnitude is 1.07D-14 for   1831.
 Iteration    1 A*A^-1 deviation from orthogonality  is 7.77D-15 for   2333    430.
 Iteration    1 A^-1*A deviation from unit magnitude is 8.22D-15 for   1831.
 Iteration    1 A^-1*A deviation from orthogonality  is 8.41D-12 for   2917   2663.
 Error on total polarization charges =  0.01118
 SCF Done:  E(RmPW1PW91) =  -1064.38255021     A.U. after   12 cycles
            NFock= 12  Conv=0.89D-08     -V/T= 2.0036
 DoSCS=F DFT=T ScalE2(SS,OS)=  1.000000  1.000000
 Range of M.O.s used for correlation:     1   410
 NBasis=   410 NAE=    74 NBE=    74 NFC=     0 NFV=     0
 NROrb=    410 NOA=    74 NOB=    74 NVA=   336 NVB=   336
 NEqPCM:  Using equilibrium solvation (IEInf=0, Eps=   4.7113, EpsInf=   2.0906)
          Differentiating once with respect to magnetic field using GIAOs.
          Electric field/nuclear overlap derivatives assumed to be zero.
 FoFJK:  IHMeth= 1 ICntrl=    6127 DoSepK=F KAlg= 0 I1Cent=   0 FoldK=F
 IRaf=         1 NMat=   1 IRICut=       1 DoRegI=T DoRafI=F ISym2E= 0.
          There are     3 degrees of freedom in the 1st order CPHF.  IDoFFX=0 NUNeed=     3.
      3 vectors produced by pass  0 Test12= 8.29D-13 3.33D-08 XBig12= 3.27D+01 1.37D+00.
 AX will form     3 AO Fock derivatives at one time.
      3 vectors produced by pass  1 Test12= 8.29D-13 3.33D-08 XBig12= 8.47D-02 1.01D-01.
      3 vectors produced by pass  2 Test12= 8.29D-13 3.33D-08 XBig12= 6.16D-04 8.27D-03.
      3 vectors produced by pass  3 Test12= 8.29D-13 3.33D-08 XBig12= 2.23D-06 3.12D-04.
      3 vectors produced by pass  4 Test12= 8.29D-13 3.33D-08 XBig12= 8.91D-09 1.89D-05.
      3 vectors produced by pass  5 Test12= 8.29D-13 3.33D-08 XBig12= 3.54D-11 1.16D-06.
      2 vectors produced by pass  6 Test12= 8.29D-13 3.33D-08 XBig12= 1.30D-13 5.48D-08.
 InvSVY:  IOpt=1 It=  1 EMax= 3.33D-17
 Solved reduced A of dimension    20 with     3 vectors.
 Calculating GIAO nuclear magnetic shielding tensors.
 SCF GIAO Magnetic shielding tensor (ppm):
      1  C    Isotropic =   101.9507   Anisotropy =    60.0897
   XX=    92.5755   YX=    -3.5085   ZX=   -13.6307
   XY=     0.2850   YY=    82.3032   ZY=    22.7889
   XZ=    -5.2817   YZ=    23.5206   ZZ=   130.9733
   Eigenvalues:    72.8278    91.0138   142.0105
      2  C    Isotropic =   143.5702   Anisotropy =    21.0033
   XX=   150.3885   YX=     8.5666   ZX=     3.2706
   XY=     9.8985   YY=   141.0616   ZY=    -2.9792
   XZ=     7.4510   YZ=     5.5075   ZZ=   139.2604
   Eigenvalues:   134.5178   138.6203   157.5724
      3  C    Isotropic =   108.1327   Anisotropy =    50.5362
   XX=   131.2523   YX=   -20.3790   ZX=    -2.8641
   XY=   -17.7936   YY=   107.2858   ZY=     1.1605
   XZ=     2.5490   YZ=     2.4323   ZZ=    85.8601
   Eigenvalues:    85.6403    96.9343   141.8235
      4  C    Isotropic =   143.3466   Anisotropy =    33.1523
   XX=   150.3235   YX=   -10.9991   ZX=   -11.3582
   XY=   -10.2808   YY=   131.6267   ZY=    11.9302
   XZ=   -10.3329   YZ=     4.5809   ZZ=   148.0897
   Eigenvalues:   126.2217   138.3700   165.4482
      5  C    Isotropic =    12.8282   Anisotropy =    88.5175
   XX=   -62.3740   YX=    -1.3240   ZX=   -37.2506
   XY=    -8.7862   YY=    64.1452   ZY=   -14.7214
   XZ=   -48.8888   YZ=   -13.8117   ZZ=    36.7135
   Eigenvalues:   -79.1433    45.7881    71.8399
      6  H    Isotropic =    27.8705   Anisotropy =     2.1992
   XX=    28.2125   YX=     0.2067   ZX=     0.7987
   XY=    -0.0453   YY=    27.6069   ZY=    -0.8867
   XZ=     0.7822   YZ=    -1.8378   ZZ=    27.7923
   Eigenvalues:    26.1520    28.1230    29.3367
      7  H    Isotropic =    30.0623   Anisotropy =     4.1767
   XX=    31.6278   YX=     1.5002   ZX=     0.8412
   XY=     1.7459   YY=    30.4254   ZY=    -2.5930
   XZ=     1.0977   YZ=    -2.0145   ZZ=    28.1337
   Eigenvalues:    26.1766    31.1636    32.8468
      8  H    Isotropic =    29.6859   Anisotropy =     4.8562
   XX=    29.9938   YX=    -2.7314   ZX=     0.3790
   XY=    -2.7040   YY=    28.9263   ZY=    -1.2580
   XZ=     0.3166   YZ=    -2.1219   ZZ=    30.1377
   Eigenvalues:    26.3526    29.7819    32.9234
      9  H    Isotropic =    29.2049   Anisotropy =     4.1690
   XX=    29.8990   YX=     1.0637   ZX=     1.0701
   XY=     0.7024   YY=    27.8351   ZY=     2.2947
   XZ=    -0.4078   YZ=     2.9901   ZZ=    29.8806
   Eigenvalues:    25.9482    29.6822    31.9843
     10  O    Isotropic =    97.5839   Anisotropy =   165.8649
   XX=   175.6335   YX=    40.1963   ZX=    59.2107
   XY=    49.7321   YY=   129.4045   ZY=  -138.3763
   XZ=    66.7292   YZ=  -116.6060   ZZ=   -12.2863
   Eigenvalues:  -108.2318   192.8230   208.1605
     11  O    Isotropic =  -108.4591   Anisotropy =   560.5824
   XX=  -217.8653   YX=    14.4848   ZX=  -101.8663
   XY=    35.4361   YY=    84.4060   ZY=  -287.9942
   XZ=   -83.2870   YZ=  -264.2552   ZZ=  -191.9181
   Eigenvalues:  -388.8799  -201.7600   265.2625
     12  C    Isotropic =   160.4046   Anisotropy =    20.9923
   XX=   165.6154   YX=     9.5852   ZX=     2.9264
   XY=    12.3666   YY=   160.5411   ZY=     3.9342
   XZ=     0.2867   YZ=    -4.6394   ZZ=   155.0572
   Eigenvalues:   151.3662   155.4480   174.3995
     13  C    Isotropic =   181.3500   Anisotropy =    11.4354
   XX=   180.6370   YX=     1.3633   ZX=     0.6400
   XY=     1.5462   YY=   183.2046   ZY=    -6.8823
   XZ=     1.1316   YZ=    -7.2576   ZZ=   180.2083
   Eigenvalues:   174.0854   180.9909   188.9736
     14  C    Isotropic =   177.4402   Anisotropy =    18.2146
   XX=   171.0972   YX=     0.2890   ZX=    -1.5017
   XY=    -1.6686   YY=   172.8213   ZY=     3.1225
   XZ=    -5.4897   YZ=     2.5176   ZZ=   188.4021
   Eigenvalues:   170.4079   172.3294   189.5833
     15  O    Isotropic =   246.8593   Anisotropy =    24.6956
   XX=   221.1570   YX=     2.2046   ZX=    -8.2487
   XY=   -16.1969   YY=   257.4528   ZY=     1.0479
   XZ=     1.0601   YZ=    -6.6850   ZZ=   261.9681
   Eigenvalues:   219.4684   257.7865   263.3230
     16  Si   Isotropic =   334.2830   Anisotropy =    40.7180
   XX=   346.0019   YX=   -18.5777   ZX=    19.2885
   XY=   -17.5531   YY=   325.7659   ZY=   -10.1625
   XZ=     2.3474   YZ=    -0.8426   ZZ=   331.0813
   Eigenvalues:   315.1360   326.2847   361.4284
     17  C    Isotropic =   185.4997   Anisotropy =    11.6999
   XX=   185.8363   YX=     1.7585   ZX=     0.3406
   XY=     3.7036   YY=   189.1885   ZY=    -5.6690
   XZ=     0.1857   YZ=    -6.6511   ZZ=   181.4743
   Eigenvalues:   177.7518   185.4477   193.2997
     18  C    Isotropic =   187.0559   Anisotropy =    12.1755
   XX=   189.3202   YX=    -5.7718   ZX=    -3.7490
   XY=    -6.1819   YY=   180.3819   ZY=     0.0146
   XZ=    -3.3729   YZ=     0.0293   ZZ=   191.4657
   Eigenvalues:   177.2055   188.7894   195.1729
     19  C    Isotropic =   185.1030   Anisotropy =    11.8123
   XX=   184.6590   YX=     0.4832   ZX=     6.7748
   XY=    -0.9887   YY=   186.8740   ZY=     4.2535
   XZ=     6.2827   YZ=     6.1152   ZZ=   183.7761
   Eigenvalues:   176.1056   186.2256   192.9779
     20  H    Isotropic =    31.9802   Anisotropy =     8.2096
   XX=    30.7624   YX=     0.2212   ZX=     0.2541
   XY=     0.4549   YY=    31.6399   ZY=     4.6279
   XZ=     1.0188   YZ=     4.7612   ZZ=    33.5382
   Eigenvalues:    27.7927    30.6946    37.4532
     21  H    Isotropic =    31.9457   Anisotropy =     8.2213
   XX=    31.7339   YX=     1.7932   ZX=    -3.5451
   XY=     1.5121   YY=    32.7828   ZY=    -2.6244
   XZ=    -3.3292   YZ=    -3.5738   ZZ=    31.3202
   Eigenvalues:    27.7261    30.6844    37.4265
     22  H    Isotropic =    32.4292   Anisotropy =    10.3988
   XX=    36.5228   YX=    -4.5211   ZX=     1.2244
   XY=    -4.6078   YY=    30.9061   ZY=    -0.8023
   XZ=     1.5397   YZ=    -1.0347   ZZ=    29.8588
   Eigenvalues:    28.3423    29.5836    39.3617
     23  H    Isotropic =    31.8093   Anisotropy =     7.8314
   XX=    30.5943   YX=     2.8008   ZX=     0.8983
   XY=     2.3133   YY=    35.4804   ZY=    -2.9615
   XZ=     0.9060   YZ=    -1.7709   ZZ=    29.3532
   Eigenvalues:    27.4666    30.9310    37.0303
     24  H    Isotropic =    31.9943   Anisotropy =     6.5463
   XX=    32.3134   YX=    -0.6654   ZX=    -0.9844
   XY=    -1.4397   YY=    28.9959   ZY=     2.3019
   XZ=    -2.0529   YZ=     2.5298   ZZ=    34.6736
   Eigenvalues:    28.0511    31.5733    36.3585
     25  H    Isotropic =    32.2901   Anisotropy =    10.5203
   XX=    36.0891   YX=    -2.0847   ZX=     4.5611
   XY=    -2.4892   YY=    29.6138   ZY=    -0.7226
   XZ=     4.4860   YZ=    -0.3976   ZZ=    31.1672
   Eigenvalues:    28.0471    29.5194    39.3036
     26  H    Isotropic =    32.0421   Anisotropy =     6.5085
   XX=    32.5168   YX=    -1.5978   ZX=    -3.3849
   XY=    -0.6427   YY=    30.4101   ZY=    -1.3476
   XZ=    -3.6278   YZ=    -0.7381   ZZ=    33.1994
   Eigenvalues:    28.2506    31.4946    36.3811
     27  H    Isotropic =    31.9943   Anisotropy =     7.5349
   XX=    30.9883   YX=     2.0295   ZX=     2.6796
   XY=     2.4595   YY=    34.5250   ZY=     2.5492
   XZ=     2.1458   YZ=     1.7373   ZZ=    30.4696
   Eigenvalues:    28.3002    30.6651    37.0176
     28  H    Isotropic =    32.2193   Anisotropy =    10.4941
   XX=    32.9366   YX=    -3.9397   ZX=     2.8401
   XY=    -3.6019   YY=    33.1745   ZY=    -3.5681
   XZ=     2.7431   YZ=    -3.6709   ZZ=    30.5469
   Eigenvalues:    28.0030    29.4396    39.2154
     29  H    Isotropic =    31.3095   Anisotropy =     9.5700
   XX=    30.7286   YX=     3.9051   ZX=     0.5930
   XY=     3.9579   YY=    32.0617   ZY=     4.2852
   XZ=     0.6635   YZ=     4.4134   ZZ=    31.1382
   Eigenvalues:    25.9502    30.2888    37.6895
     30  H    Isotropic =    31.5636   Anisotropy =     8.8167
   XX=    28.3861   YX=     0.3947   ZX=     1.7097
   XY=     0.0876   YY=    30.3090   ZY=    -2.6914
   XZ=     1.4137   YZ=    -3.1825   ZZ=    35.9957
   Eigenvalues:    27.6930    29.5563    37.4414
     31  H    Isotropic =    30.4818   Anisotropy =     7.4929
   XX=    33.9387   YX=    -2.2746   ZX=    -0.2811
   XY=    -2.3690   YY=    26.8868   ZY=     3.6846
   XZ=    -1.2992   YZ=     3.4466   ZZ=    30.6200
   Eigenvalues:    24.4542    31.5142    35.4771
     32  H    Isotropic =    30.3961   Anisotropy =     7.3379
   XX=    30.5437   YX=     2.0958   ZX=     1.8128
   XY=     2.0583   YY=    26.6686   ZY=     1.2468
   XZ=     1.9669   YZ=     1.2516   ZZ=    33.9760
   Eigenvalues:    25.7448    30.1555    35.2880
     33  H    Isotropic =    30.1250   Anisotropy =     9.7397
   XX=    35.3293   YX=    -3.1377   ZX=     0.4264
   XY=    -2.4752   YY=    29.9322   ZY=    -1.1257
   XZ=     0.8809   YZ=    -1.0962   ZZ=    25.1134
   Eigenvalues:    24.8694    28.8874    36.6181
     34  H    Isotropic =    31.2086   Anisotropy =    12.0294
   XX=    34.7819   YX=     5.4750   ZX=    -0.0046
   XY=     5.8622   YY=    31.8114   ZY=    -1.1294
   XZ=    -0.3111   YZ=    -1.5100   ZZ=    27.0324
   Eigenvalues:    26.2238    28.1737    39.2281
     35  H    Isotropic =    31.2094   Anisotropy =     6.6294
   XX=    32.6175   YX=    -1.6099   ZX=    -1.6562
   XY=    -2.0180   YY=    34.5345   ZY=    -0.7723
   XZ=    -1.0608   YZ=    -1.1153   ZZ=    26.4762
   Eigenvalues:    25.9833    32.0159    35.6290
     36  H    Isotropic =    31.1357   Anisotropy =     7.2065
   XX=    28.4081   YX=     2.4174   ZX=    -1.0988
   XY=     2.0881   YY=    29.3623   ZY=    -0.7375
   XZ=    -1.0987   YZ=    -0.4437   ZZ=    35.6366
   Eigenvalues:    26.5561    30.9109    35.9400
     37  C    Isotropic =   146.5690   Anisotropy =    14.7877
   XX=   145.2094   YX=     6.4496   ZX=     8.4385
   XY=     3.2826   YY=   153.6297   ZY=    -9.0608
   XZ=     5.5230   YZ=    -2.5468   ZZ=   140.8679
   Eigenvalues:   132.9620   150.3176   156.4275
     38  C    Isotropic =    46.5890   Anisotropy =   177.8262
   XX=    74.1837   YX=   -63.2646   ZX=    -3.5834
   XY=   -61.9269   YY=    76.5719   ZY=   -91.6764
   XZ=    -0.8688   YZ=   -90.3797   ZZ=   -10.9885
   Eigenvalues:   -77.1564    51.7836   165.1398
     39  C    Isotropic =    63.5528   Anisotropy =   143.0582
   XX=    90.7284   YX=   -54.6996   ZX=   -15.7042
   XY=   -53.5467   YY=    81.5216   ZY=   -81.1809
   XZ=   -16.9561   YZ=   -81.9399   ZZ=    18.4085
   Eigenvalues:   -51.7787    83.5122   158.9250
     40  H    Isotropic =    30.0029   Anisotropy =     5.4760
   XX=    32.3771   YX=    -0.8397   ZX=    -0.0377
   XY=    -1.1702   YY=    32.3822   ZY=    -1.9908
   XZ=     0.8860   YZ=    -1.3250   ZZ=    25.2493
   Eigenvalues:    24.8775    31.4776    33.6536
     41  H    Isotropic =    29.8148   Anisotropy =     5.1300
   XX=    27.6453   YX=     3.5472   ZX=     1.3304
   XY=     3.2213   YY=    29.8981   ZY=    -1.8583
   XZ=    -0.2479   YZ=    -1.3662   ZZ=    31.9009
   Eigenvalues:    24.9258    31.2838    33.2348
     42  H    Isotropic =    25.8208   Anisotropy =     5.8666
   XX=    26.2269   YX=     1.4001   ZX=    -1.6363
   XY=     2.7832   YY=    28.1142   ZY=    -1.0649
   XZ=    -0.6739   YZ=    -0.5904   ZZ=    23.1212
   Eigenvalues:    22.7346    24.9958    29.7318
     43  H    Isotropic =    26.6536   Anisotropy =     6.4217
   XX=    28.1806   YX=     2.3165   ZX=    -0.7809
   XY=     1.6067   YY=    27.3699   ZY=    -1.6287
   XZ=    -2.5802   YZ=    -2.8826   ZZ=    24.4103
   Eigenvalues:    23.1157    25.9104    30.9347
     44  H    Isotropic =    26.6938   Anisotropy =     7.1394
   XX=    27.6618   YX=     0.5641   ZX=    -3.6054
   XY=     1.7313   YY=    26.5736   ZY=    -3.8646
   XZ=    -1.7153   YZ=    -2.7601   ZZ=    25.8459
   Eigenvalues:    22.5221    26.1059    31.4534
 End of Minotr F.D. properties file   721 does not exist.
 End of Minotr F.D. properties file   722 does not exist.
 End of Minotr F.D. properties file   788 does not exist.

 **********************************************************************

            Population analysis using the SCF density.

 **********************************************************************

 Orbital symmetries:
       Occupied  (A) (A) (A) (A) (A) (A) (A) (A) (A) (A) (A) (A)
                 (A) (A) (A) (A) (A) (A) (A) (A) (A) (A) (A) (A)
                 (A) (A) (A) (A) (A) (A) (A) (A) (A) (A) (A) (A)
                 (A) (A) (A) (A) (A) (A) (A) (A) (A) (A) (A) (A)
                 (A) (A) (A) (A) (A) (A) (A) (A) (A) (A) (A) (A)
                 (A) (A) (A) (A) (A) (A) (A) (A) (A) (A) (A) (A)
                 (A) (A)
       Virtual   (A) (A) (A) (A) (A) (A) (A) (A) (A) (A) (A) (A)
                 (A) (A) (A) (A) (A) (A) (A) (A) (A) (A) (A) (A)
                 (A) (A) (A) (A) (A) (A) (A) (A) (A) (A) (A) (A)
                 (A) (A) (A) (A) (A) (A) (A) (A) (A) (A) (A) (A)
                 (A) (A) (A) (A) (A) (A) (A) (A) (A) (A) (A) (A)
                 (A) (A) (A) (A) (A) (A) (A) (A) (A) (A) (A) (A)
                 (A) (A) (A) (A) (A) (A) (A) (A) (A) (A) (A) (A)
                 (A) (A) (A) (A) (A) (A) (A) (A) (A) (A) (A) (A)
                 (A) (A) (A) (A) (A) (A) (A) (A) (A) (A) (A) (A)
                 (A) (A) (A) (A) (A) (A) (A) (A) (A) (A) (A) (A)
                 (A) (A) (A) (A) (A) (A) (A) (A) (A) (A) (A) (A)
                 (A) (A) (A) (A) (A) (A) (A) (A) (A) (A) (A) (A)
                 (A) (A) (A) (A) (A) (A) (A) (A) (A) (A) (A) (A)
                 (A) (A) (A) (A) (A) (A) (A) (A) (A) (A) (A) (A)
                 (A) (A) (A) (A) (A) (A) (A) (A) (A) (A) (A) (A)
                 (A) (A) (A) (A) (A) (A) (A) (A) (A) (A) (A) (A)
                 (A) (A) (A) (A) (A) (A) (A) (A) (A) (A) (A) (A)
                 (A) (A) (A) (A) (A) (A) (A) (A) (A) (A) (A) (A)
                 (A) (A) (A) (A) (A) (A) (A) (A) (A) (A) (A) (A)
                 (A) (A) (A) (A) (A) (A) (A) (A) (A) (A) (A) (A)
                 (A) (A) (A) (A) (A) (A) (A) (A) (A) (A) (A) (A)
                 (A) (A) (A) (A) (A) (A) (A) (A) (A) (A) (A) (A)
                 (A) (A) (A) (A) (A) (A) (A) (A) (A) (A) (A) (A)
                 (A) (A) (A) (A) (A) (A) (A) (A) (A) (A) (A) (A)
                 (A) (A) (A) (A) (A) (A) (A) (A) (A) (A) (A) (A)
                 (A) (A) (A) (A) (A) (A) (A) (A) (A) (A) (A) (A)
                 (A) (A) (A) (A) (A) (A) (A) (A) (A) (A) (A) (A)
                 (A) (A) (A) (A) (A) (A) (A) (A) (A) (A) (A) (A)
 The electronic state is 1-A.
 Alpha  occ. eigenvalues --  -66.27346 -19.26004 -19.20488 -19.19739 -10.37133
 Alpha  occ. eigenvalues --  -10.31829 -10.30674 -10.25364 -10.25306 -10.24152
 Alpha  occ. eigenvalues --  -10.24100 -10.23917 -10.22764 -10.22708 -10.22365
 Alpha  occ. eigenvalues --  -10.20910 -10.20662 -10.20558  -5.33066  -3.66958
 Alpha  occ. eigenvalues --   -3.66657  -3.66646  -1.13291  -1.04924  -1.04013
 Alpha  occ. eigenvalues --   -0.85952  -0.83246  -0.80597  -0.77732  -0.74000
 Alpha  occ. eigenvalues --   -0.72683  -0.72123  -0.70237  -0.70043  -0.67045
 Alpha  occ. eigenvalues --   -0.62947  -0.62675  -0.58552  -0.55682  -0.54020
 Alpha  occ. eigenvalues --   -0.52665  -0.50347  -0.49450  -0.48317  -0.47368
 Alpha  occ. eigenvalues --   -0.47092  -0.45293  -0.44347  -0.44246  -0.43590
 Alpha  occ. eigenvalues --   -0.42971  -0.42396  -0.42204  -0.41592  -0.41212
 Alpha  occ. eigenvalues --   -0.40713  -0.40378  -0.39832  -0.39517  -0.39377
 Alpha  occ. eigenvalues --   -0.38427  -0.37551  -0.36879  -0.36654  -0.36119
 Alpha  occ. eigenvalues --   -0.35638  -0.34205  -0.33532  -0.32374  -0.31194
 Alpha  occ. eigenvalues --   -0.30541  -0.28487  -0.28427  -0.27296
 Alpha virt. eigenvalues --    0.00239   0.01045   0.03855   0.05550   0.05909
 Alpha virt. eigenvalues --    0.06252   0.07608   0.08325   0.08436   0.08928
 Alpha virt. eigenvalues --    0.09296   0.09665   0.10350   0.10802   0.11782
 Alpha virt. eigenvalues --    0.12007   0.12592   0.12967   0.13136   0.13353
 Alpha virt. eigenvalues --    0.14434   0.14575   0.14598   0.15114   0.15763
 Alpha virt. eigenvalues --    0.16156   0.16963   0.17671   0.17896   0.18257
 Alpha virt. eigenvalues --    0.18982   0.19365   0.20017   0.20149   0.20543
 Alpha virt. eigenvalues --    0.21970   0.22799   0.23296   0.24278   0.24785
 Alpha virt. eigenvalues --    0.24917   0.26409   0.26520   0.27059   0.28224
 Alpha virt. eigenvalues --    0.28579   0.29499   0.30066   0.31963   0.33013
 Alpha virt. eigenvalues --    0.33277   0.33926   0.34304   0.35215   0.35977
 Alpha virt. eigenvalues --    0.36993   0.37289   0.38991   0.40297   0.40582
 Alpha virt. eigenvalues --    0.41456   0.42296   0.43090   0.44218   0.44635
 Alpha virt. eigenvalues --    0.44804   0.45564   0.45996   0.46900   0.48049
 Alpha virt. eigenvalues --    0.49446   0.49723   0.50081   0.50824   0.51683
 Alpha virt. eigenvalues --    0.53665   0.54159   0.54888   0.55877   0.56374
 Alpha virt. eigenvalues --    0.56787   0.57506   0.58224   0.59042   0.59174
 Alpha virt. eigenvalues --    0.59637   0.59932   0.60414   0.60545   0.61148
 Alpha virt. eigenvalues --    0.61503   0.61903   0.62489   0.62705   0.63331
 Alpha virt. eigenvalues --    0.63599   0.64187   0.64474   0.65275   0.65684
 Alpha virt. eigenvalues --    0.65741   0.65931   0.67344   0.67534   0.68208
 Alpha virt. eigenvalues --    0.69010   0.69827   0.70184   0.70364   0.71301
 Alpha virt. eigenvalues --    0.72129   0.72574   0.72664   0.73686   0.74626
 Alpha virt. eigenvalues --    0.75372   0.77393   0.77756   0.78605   0.79287
 Alpha virt. eigenvalues --    0.82728   0.84384   0.85573   0.87480   0.87747
 Alpha virt. eigenvalues --    0.90174   0.91137   0.92396   0.92943   0.93905
 Alpha virt. eigenvalues --    0.94384   0.95678   0.96829   0.98409   0.99103
 Alpha virt. eigenvalues --    1.01617   1.03859   1.04453   1.09065   1.10411
 Alpha virt. eigenvalues --    1.13505   1.15737   1.16907   1.18770   1.19458
 Alpha virt. eigenvalues --    1.20743   1.23157   1.23601   1.26297   1.27589
 Alpha virt. eigenvalues --    1.28547   1.29816   1.31016   1.32549   1.33182
 Alpha virt. eigenvalues --    1.33716   1.37609   1.40078   1.41358   1.42000
 Alpha virt. eigenvalues --    1.42426   1.43882   1.45330   1.47176   1.48372
 Alpha virt. eigenvalues --    1.49870   1.51100   1.51933   1.52354   1.53824
 Alpha virt. eigenvalues --    1.55196   1.55705   1.56706   1.56952   1.58454
 Alpha virt. eigenvalues --    1.58606   1.59569   1.59907   1.60003   1.60883
 Alpha virt. eigenvalues --    1.61174   1.61936   1.62096   1.62658   1.62947
 Alpha virt. eigenvalues --    1.65020   1.65793   1.66454   1.67027   1.67600
 Alpha virt. eigenvalues --    1.68735   1.69613   1.72596   1.73633   1.75284
 Alpha virt. eigenvalues --    1.76002   1.76779   1.78489   1.79438   1.80758
 Alpha virt. eigenvalues --    1.81196   1.81946   1.82629   1.85823   1.89692
 Alpha virt. eigenvalues --    1.91560   1.92276   1.94108   1.95060   1.96900
 Alpha virt. eigenvalues --    1.98349   2.01761   2.04663   2.08463   2.13728
 Alpha virt. eigenvalues --    2.16017   2.16802   2.21372   2.22823   2.23207
 Alpha virt. eigenvalues --    2.27807   2.31564   2.35031   2.35827   2.39406
 Alpha virt. eigenvalues --    2.40790   2.42164   2.42820   2.43112   2.43902
 Alpha virt. eigenvalues --    2.44379   2.45047   2.46049   2.46570   2.47412
 Alpha virt. eigenvalues --    2.47916   2.48565   2.49217   2.50218   2.51514
 Alpha virt. eigenvalues --    2.52269   2.53833   2.56100   2.58808   2.60750
 Alpha virt. eigenvalues --    2.62320   2.63778   2.68143   2.73475   2.80085
 Alpha virt. eigenvalues --    2.81271   2.86961   2.88143   2.89466   2.90892
 Alpha virt. eigenvalues --    2.91796   2.93225   2.93528   2.96193   2.97440
 Alpha virt. eigenvalues --    2.98761   2.99749   3.01060   3.03870   3.08820
 Alpha virt. eigenvalues --    3.09695   3.11178   3.12032   3.13465   3.14929
 Alpha virt. eigenvalues --    3.16079   3.16815   3.18225   3.18974   3.21507
 Alpha virt. eigenvalues --    3.22002   3.22557   3.23173   3.23511   3.24634
 Alpha virt. eigenvalues --    3.25419   3.26552   3.29205   3.29621   3.32696
 Alpha virt. eigenvalues --    3.34026   3.34535   3.36617   3.38396   3.39156
 Alpha virt. eigenvalues --    3.43014   3.51057   3.57774   3.59487   3.62948
 Alpha virt. eigenvalues --    3.79069   3.88365   3.89797   3.99714   4.04074
 Alpha virt. eigenvalues --    4.08571   4.13906   4.18449   4.21838   4.25993
 Alpha virt. eigenvalues --    4.93786   5.00154   5.02134   5.13057   5.14685
 Alpha virt. eigenvalues --    5.23090   5.52218   5.56867   5.76248   5.85342
 Alpha virt. eigenvalues --   11.53238  11.53553  11.56795  23.40231  23.49485
 Alpha virt. eigenvalues --   23.54262  23.54462  23.56741  23.59592  23.70814
 Alpha virt. eigenvalues --   23.74913  23.78709  23.79877  23.82936  23.86161
 Alpha virt. eigenvalues --   23.88158  24.29496  49.98956  50.06707  50.13342
 Alpha virt. eigenvalues --  141.26570
          Condensed to atoms (all electrons):
               1          2          3          4          5          6
     1  C    5.197459   0.256078  -0.056240  -0.005557  -0.047582   0.400690
     2  C    0.256078   5.562187   0.320779  -0.097447  -0.011365  -0.043678
     3  C   -0.056240   0.320779   5.167566   0.247262  -0.014778  -0.017317
     4  C   -0.005557  -0.097447   0.247262   5.897824   0.235221   0.002846
     5  C   -0.047582  -0.011365  -0.014778   0.235221   4.388845  -0.001516
     6  H    0.400690  -0.043678  -0.017317   0.002846  -0.001516   0.476321
     7  H   -0.041457   0.410858  -0.060712  -0.004900   0.000290   0.006273
     8  H    0.001416  -0.006709  -0.033630   0.362639  -0.025728  -0.000045
     9  H   -0.000553   0.006472  -0.028618   0.360706  -0.025608   0.000203
    10  O    0.217226  -0.035728   0.005268  -0.108035   0.344121  -0.032411
    11  O    0.002361  -0.000365   0.003459  -0.096674   0.671809  -0.000017
    12  C    0.336260  -0.061799   0.010808  -0.002165   0.002567  -0.053189
    13  C   -0.070114  -0.009035  -0.001091   0.000331  -0.000132   0.007902
    14  C   -0.065005   0.292333  -0.057727   0.007746   0.000125  -0.001164
    15  O    0.004145  -0.056916   0.225513  -0.018564   0.002060  -0.000059
    16  Si   0.001416  -0.006926  -0.042967  -0.007590   0.001381  -0.000160
    17  C   -0.000030   0.001411  -0.000388  -0.002232   0.000008   0.000000
    18  C   -0.000001  -0.000069   0.001966  -0.000047   0.000002   0.000000
    19  C    0.000006  -0.000239  -0.000678  -0.000368   0.000006   0.000000
    20  H   -0.000001   0.000036  -0.000101  -0.000025   0.000000   0.000000
    21  H    0.000001  -0.000026  -0.000144  -0.000039   0.000000   0.000000
    22  H    0.000000  -0.000002  -0.000052  -0.000003   0.000000   0.000000
    23  H    0.000003  -0.000059   0.000384  -0.000244  -0.000021   0.000000
    24  H    0.000003  -0.000017  -0.000187   0.001267  -0.000018   0.000000
    25  H    0.000000   0.000004  -0.000036   0.000125   0.000000   0.000000
    26  H   -0.000030   0.000310   0.000192  -0.000072   0.000046   0.000000
    27  H   -0.000034   0.000590  -0.000041   0.000301   0.000000   0.000000
    28  H    0.000000   0.000018  -0.000026   0.000118   0.000000   0.000000
    29  H   -0.006312  -0.035270   0.007142  -0.000311   0.000007  -0.000656
    30  H   -0.003691  -0.040294  -0.008250  -0.000127   0.000010   0.005689
    31  H    0.006099  -0.036786  -0.008137   0.000662  -0.000102  -0.000133
    32  H   -0.038083  -0.006684  -0.000329   0.000109  -0.000059  -0.000205
    33  H   -0.048452   0.009380  -0.000118   0.000284  -0.000181  -0.007037
    34  H    0.007528   0.000001   0.000008  -0.000018   0.000017  -0.000174
    35  H   -0.007561   0.003630   0.000254   0.000076  -0.000019  -0.000312
    36  H   -0.008084  -0.000266  -0.000516   0.000899  -0.000064   0.000475
    37  C    0.000941  -0.095651   0.268391  -0.100602  -0.001957   0.006722
    38  C   -0.000636   0.009727  -0.061845  -0.004463   0.000774   0.000228
    39  C    0.000014  -0.000202  -0.002101   0.000536   0.000011  -0.000006
    40  H    0.002930  -0.006795  -0.037858  -0.001847   0.002381  -0.000999
    41  H   -0.000177  -0.010014  -0.036081   0.006264  -0.000280  -0.000023
    42  H   -0.000086  -0.000099  -0.004094   0.002406   0.000373   0.000042
    43  H    0.000000   0.000016  -0.000157   0.000004  -0.000003   0.000000
    44  H   -0.000002  -0.000070  -0.000058   0.000046   0.000001   0.000005
               7          8          9         10         11         12
     1  C   -0.041457   0.001416  -0.000553   0.217226   0.002361   0.336260
     2  C    0.410858  -0.006709   0.006472  -0.035728  -0.000365  -0.061799
     3  C   -0.060712  -0.033630  -0.028618   0.005268   0.003459   0.010808
     4  C   -0.004900   0.362639   0.360706  -0.108035  -0.096674  -0.002165
     5  C    0.000290  -0.025728  -0.025608   0.344121   0.671809   0.002567
     6  H    0.006273  -0.000045   0.000203  -0.032411  -0.000017  -0.053189
     7  H    0.466197   0.002266   0.000296   0.001393  -0.000110  -0.013237
     8  H    0.002266   0.414203  -0.013621   0.001884   0.001709  -0.000138
     9  H    0.000296  -0.013621   0.407155   0.004785   0.011907   0.000035
    10  O    0.001393   0.001884   0.004785   8.048282  -0.077578  -0.061393
    11  O   -0.000110   0.001709   0.011907  -0.077578   7.865386  -0.000146
    12  C   -0.013237  -0.000138   0.000035  -0.061393  -0.000146   5.322946
    13  C    0.005538   0.000221   0.000016   0.001055  -0.000021   0.287193
    14  C   -0.036982   0.000145  -0.000122   0.003439   0.000004  -0.003660
    15  O    0.001203  -0.004623  -0.001058  -0.000021  -0.000019  -0.000067
    16  Si  -0.000046   0.000376  -0.004734  -0.000424  -0.000552  -0.000069
    17  C   -0.001492   0.003276   0.000076   0.000002   0.000002   0.000000
    18  C   -0.000075  -0.000023  -0.000020   0.000000   0.000000   0.000000
    19  C   -0.000064  -0.000334  -0.001740  -0.000001   0.000000   0.000000
    20  H   -0.000016  -0.000007  -0.000007   0.000000   0.000000   0.000000
    21  H    0.000001  -0.000004  -0.000007   0.000000   0.000000   0.000000
    22  H   -0.000001   0.000006  -0.000004   0.000000   0.000000   0.000000
    23  H    0.000003   0.000033   0.000110   0.000000   0.000001   0.000000
    24  H   -0.000012   0.000093   0.000506  -0.000002  -0.000062   0.000000
    25  H    0.000002  -0.000018   0.000195   0.000000   0.000000   0.000000
    26  H   -0.000670   0.005581  -0.000033   0.000005   0.000002  -0.000001
    27  H   -0.000149  -0.000473   0.000007   0.000000   0.000000   0.000005
    28  H    0.000143   0.000006  -0.000003   0.000000   0.000000   0.000000
    29  H   -0.007954  -0.000032   0.000012  -0.000031   0.000000   0.001831
    30  H    0.006949  -0.000019   0.000018   0.000046   0.000000  -0.001531
    31  H   -0.003044   0.000059  -0.000032  -0.000112   0.000000   0.000043
    32  H    0.000229  -0.000004  -0.000004   0.003642   0.000007   0.386981
    33  H   -0.000204  -0.000008  -0.000010   0.003359  -0.000031   0.404029
    34  H    0.000208   0.000001   0.000000  -0.000166   0.000000  -0.034711
    35  H   -0.000464  -0.000035   0.000000   0.000063   0.000001  -0.035795
    36  H    0.000430   0.000040  -0.000007   0.010050  -0.000177  -0.043769
    37  C    0.009312   0.006655  -0.006500  -0.002789   0.000286  -0.000515
    38  C   -0.000187  -0.000250   0.004849  -0.000082  -0.000082   0.000004
    39  C   -0.000005  -0.000010   0.000444  -0.000001   0.000001   0.000000
    40  H   -0.000402   0.000100   0.000167   0.001997  -0.000191   0.001009
    41  H   -0.000052  -0.000122  -0.000014   0.000074   0.000003  -0.000077
    42  H    0.000026   0.000205   0.001632  -0.000081   0.000242  -0.000002
    43  H   -0.000001  -0.000004   0.000000   0.000000   0.000000   0.000000
    44  H    0.000003   0.000005   0.000008   0.000000   0.000000   0.000000
              13         14         15         16         17         18
     1  C   -0.070114  -0.065005   0.004145   0.001416  -0.000030  -0.000001
     2  C   -0.009035   0.292333  -0.056916  -0.006926   0.001411  -0.000069
     3  C   -0.001091  -0.057727   0.225513  -0.042967  -0.000388   0.001966
     4  C    0.000331   0.007746  -0.018564  -0.007590  -0.002232  -0.000047
     5  C   -0.000132   0.000125   0.002060   0.001381   0.000008   0.000002
     6  H    0.007902  -0.001164  -0.000059  -0.000160   0.000000   0.000000
     7  H    0.005538  -0.036982   0.001203  -0.000046  -0.001492  -0.000075
     8  H    0.000221   0.000145  -0.004623   0.000376   0.003276  -0.000023
     9  H    0.000016  -0.000122  -0.001058  -0.004734   0.000076  -0.000020
    10  O    0.001055   0.003439  -0.000021  -0.000424   0.000002   0.000000
    11  O   -0.000021   0.000004  -0.000019  -0.000552   0.000002   0.000000
    12  C    0.287193  -0.003660  -0.000067  -0.000069   0.000000   0.000000
    13  C    5.377315  -0.000123  -0.000003  -0.000058  -0.000005   0.000000
    14  C   -0.000123   5.394991  -0.007784  -0.000670   0.000124  -0.000064
    15  O   -0.000003  -0.007784   8.283323   0.348989  -0.024536  -0.030469
    16  Si  -0.000058  -0.000670   0.348989  11.504199   0.308946   0.336353
    17  C   -0.000005   0.000124  -0.024536   0.308946   5.780520  -0.045957
    18  C    0.000000  -0.000064  -0.030469   0.336353  -0.045957   5.720092
    19  C    0.000000   0.000000  -0.022328   0.318344  -0.055836  -0.043581
    20  H    0.000000   0.000099  -0.001720  -0.024217  -0.000679   0.369375
    21  H    0.000000  -0.000006  -0.001628  -0.024134   0.002111   0.370129
    22  H    0.000000  -0.000001   0.001220  -0.014522   0.000592   0.360607
    23  H    0.000000   0.000000  -0.002753  -0.025781   0.001923  -0.000154
    24  H    0.000000   0.000000  -0.000821  -0.026805  -0.000895   0.002299
    25  H    0.000000   0.000000   0.000920  -0.012376   0.000764  -0.000568
    26  H    0.000018   0.000010  -0.001358  -0.028563   0.368361   0.002364
    27  H    0.000014   0.000127  -0.002310  -0.026751   0.371358  -0.000545
    28  H    0.000000  -0.000003   0.000932  -0.010762   0.361651  -0.000478
    29  H    0.000200   0.390662  -0.000047  -0.000099   0.000015  -0.000002
    30  H    0.000215   0.386259  -0.000037  -0.000105   0.000000   0.000003
    31  H   -0.000102   0.384653   0.011359   0.001988   0.000019   0.000171
    32  H   -0.036834   0.002678  -0.000002  -0.000005   0.000000   0.000000
    33  H   -0.042645  -0.000512   0.000004   0.000013   0.000000   0.000000
    34  H    0.391325  -0.000054   0.000000  -0.000001   0.000000   0.000000
    35  H    0.384447   0.000520  -0.000015  -0.000029   0.000085   0.000000
    36  H    0.385082   0.000114   0.000003   0.000006   0.000002   0.000000
    37  C    0.000018  -0.007934  -0.074507  -0.004898  -0.000288   0.000103
    38  C    0.000000  -0.000340   0.002819  -0.000239   0.000021  -0.000206
    39  C    0.000000   0.000007   0.001038   0.000346   0.000005  -0.000143
    40  H   -0.000028   0.000670   0.003779   0.000414   0.000017   0.000000
    41  H    0.000000   0.002321   0.001291  -0.000421   0.000003  -0.000063
    42  H    0.000000  -0.000020   0.000314  -0.000481   0.000003   0.000000
    43  H    0.000000   0.000000   0.000078   0.000262   0.000000  -0.000006
    44  H    0.000000   0.000006   0.000379  -0.000301   0.000001   0.000071
              19         20         21         22         23         24
     1  C    0.000006  -0.000001   0.000001   0.000000   0.000003   0.000003
     2  C   -0.000239   0.000036  -0.000026  -0.000002  -0.000059  -0.000017
     3  C   -0.000678  -0.000101  -0.000144  -0.000052   0.000384  -0.000187
     4  C   -0.000368  -0.000025  -0.000039  -0.000003  -0.000244   0.001267
     5  C    0.000006   0.000000   0.000000   0.000000  -0.000021  -0.000018
     6  H    0.000000   0.000000   0.000000   0.000000   0.000000   0.000000
     7  H   -0.000064  -0.000016   0.000001  -0.000001   0.000003  -0.000012
     8  H   -0.000334  -0.000007  -0.000004   0.000006   0.000033   0.000093
     9  H   -0.001740  -0.000007  -0.000007  -0.000004   0.000110   0.000506
    10  O   -0.000001   0.000000   0.000000   0.000000   0.000000  -0.000002
    11  O    0.000000   0.000000   0.000000   0.000000   0.000001  -0.000062
    12  C    0.000000   0.000000   0.000000   0.000000   0.000000   0.000000
    13  C    0.000000   0.000000   0.000000   0.000000   0.000000   0.000000
    14  C    0.000000   0.000099  -0.000006  -0.000001   0.000000   0.000000
    15  O   -0.022328  -0.001720  -0.001628   0.001220  -0.002753  -0.000821
    16  Si   0.318344  -0.024217  -0.024134  -0.014522  -0.025781  -0.026805
    17  C   -0.055836  -0.000679   0.002111   0.000592   0.001923  -0.000895
    18  C   -0.043581   0.369375   0.370129   0.360607  -0.000154   0.002299
    19  C    5.771085   0.002162  -0.000499   0.000487   0.367907   0.371315
    20  H    0.002162   0.455734  -0.019401  -0.021947  -0.000098  -0.000090
    21  H   -0.000499  -0.019401   0.452049  -0.021392   0.001121  -0.000077
    22  H    0.000487  -0.021947  -0.021392   0.462588  -0.000060  -0.000065
    23  H    0.367907  -0.000098   0.001121  -0.000060   0.443300  -0.019606
    24  H    0.371315  -0.000090  -0.000077  -0.000065  -0.019606   0.453982
    25  H    0.361537  -0.000046  -0.000071   0.000691  -0.020255  -0.022657
    26  H   -0.001004  -0.000084  -0.000090  -0.000076  -0.000059   0.001160
    27  H    0.002207   0.001193  -0.000093  -0.000034  -0.000094  -0.000016
    28  H    0.000558  -0.000078  -0.000044   0.000723  -0.000032   0.000016
    29  H    0.000000  -0.000001   0.000000   0.000000   0.000000   0.000000
    30  H    0.000001  -0.000009  -0.000001   0.000000   0.000000   0.000000
    31  H    0.000044   0.000592  -0.000004   0.000000   0.000003   0.000001
    32  H    0.000000   0.000000   0.000000   0.000000   0.000000   0.000000
    33  H    0.000000   0.000000   0.000000   0.000000   0.000000   0.000000
    34  H    0.000000   0.000000   0.000000   0.000000   0.000000   0.000000
    35  H    0.000000   0.000000   0.000000   0.000000   0.000000   0.000000
    36  H    0.000000   0.000000   0.000000   0.000000   0.000000   0.000000
    37  C    0.000269  -0.000018   0.000147   0.000000   0.000331   0.000052
    38  C   -0.001413  -0.000010   0.000128  -0.000007   0.002226  -0.000016
    39  C   -0.000678  -0.000025   0.000501  -0.000014   0.002817   0.000027
    40  H   -0.000012   0.000000  -0.000001   0.000000   0.000005   0.000004
    41  H    0.000025  -0.000017  -0.000002   0.000002   0.000015   0.000003
    42  H    0.000116   0.000000   0.000000   0.000000   0.000032  -0.000042
    43  H    0.000036   0.000000  -0.000012   0.000000   0.000141   0.000000
    44  H    0.000021  -0.000001   0.000186  -0.000003   0.000025  -0.000003
              25         26         27         28         29         30
     1  C    0.000000  -0.000030  -0.000034   0.000000  -0.006312  -0.003691
     2  C    0.000004   0.000310   0.000590   0.000018  -0.035270  -0.040294
     3  C   -0.000036   0.000192  -0.000041  -0.000026   0.007142  -0.008250
     4  C    0.000125  -0.000072   0.000301   0.000118  -0.000311  -0.000127
     5  C    0.000000   0.000046   0.000000   0.000000   0.000007   0.000010
     6  H    0.000000   0.000000   0.000000   0.000000  -0.000656   0.005689
     7  H    0.000002  -0.000670  -0.000149   0.000143  -0.007954   0.006949
     8  H   -0.000018   0.005581  -0.000473   0.000006  -0.000032  -0.000019
     9  H    0.000195  -0.000033   0.000007  -0.000003   0.000012   0.000018
    10  O    0.000000   0.000005   0.000000   0.000000  -0.000031   0.000046
    11  O    0.000000   0.000002   0.000000   0.000000   0.000000   0.000000
    12  C    0.000000  -0.000001   0.000005   0.000000   0.001831  -0.001531
    13  C    0.000000   0.000018   0.000014   0.000000   0.000200   0.000215
    14  C    0.000000   0.000010   0.000127  -0.000003   0.390662   0.386259
    15  O    0.000920  -0.001358  -0.002310   0.000932  -0.000047  -0.000037
    16  Si  -0.012376  -0.028563  -0.026751  -0.010762  -0.000099  -0.000105
    17  C    0.000764   0.368361   0.371358   0.361651   0.000015   0.000000
    18  C   -0.000568   0.002364  -0.000545  -0.000478  -0.000002   0.000003
    19  C    0.361537  -0.001004   0.002207   0.000558   0.000000   0.000001
    20  H   -0.000046  -0.000084   0.001193  -0.000078  -0.000001  -0.000009
    21  H   -0.000071  -0.000090  -0.000093  -0.000044   0.000000  -0.000001
    22  H    0.000691  -0.000076  -0.000034   0.000723   0.000000   0.000000
    23  H   -0.020255  -0.000059  -0.000094  -0.000032   0.000000   0.000000
    24  H   -0.022657   0.001160  -0.000016   0.000016   0.000000   0.000000
    25  H    0.454822   0.000022  -0.000065   0.000448   0.000000   0.000000
    26  H    0.000022   0.449393  -0.019002  -0.021657   0.000002   0.000000
    27  H   -0.000065  -0.019002   0.454065  -0.022496   0.000033  -0.000006
    28  H    0.000448  -0.021657  -0.022496   0.450866   0.000000   0.000000
    29  H    0.000000   0.000002   0.000033   0.000000   0.456715  -0.027087
    30  H    0.000000   0.000000  -0.000006   0.000000  -0.027087   0.471552
    31  H   -0.000001  -0.000006   0.000123  -0.000005  -0.023145  -0.024315
    32  H    0.000000   0.000000   0.000000   0.000000  -0.000609   0.000294
    33  H    0.000000   0.000000   0.000000   0.000000   0.000182  -0.000179
    34  H    0.000000   0.000000  -0.000001   0.000000  -0.000053   0.000011
    35  H    0.000000   0.000059   0.000105  -0.000004   0.001635  -0.000105
    36  H    0.000000   0.000003  -0.000001   0.000000  -0.000111   0.000005
    37  C   -0.000002  -0.000056  -0.000062   0.000004  -0.000167   0.003566
    38  C    0.000064   0.000010   0.000002   0.000001   0.000015   0.000192
    39  C    0.000021   0.000001   0.000000   0.000000  -0.000001  -0.000003
    40  H    0.000000   0.000004   0.000003   0.000000  -0.000058  -0.000335
    41  H    0.000000  -0.000001  -0.000001   0.000000   0.000204   0.000284
    42  H   -0.000001   0.000000   0.000000   0.000000   0.000001  -0.000002
    43  H    0.000001   0.000000   0.000000   0.000000   0.000000  -0.000001
    44  H   -0.000001   0.000000   0.000000   0.000000  -0.000001  -0.000006
              31         32         33         34         35         36
     1  C    0.006099  -0.038083  -0.048452   0.007528  -0.007561  -0.008084
     2  C   -0.036786  -0.006684   0.009380   0.000001   0.003630  -0.000266
     3  C   -0.008137  -0.000329  -0.000118   0.000008   0.000254  -0.000516
     4  C    0.000662   0.000109   0.000284  -0.000018   0.000076   0.000899
     5  C   -0.000102  -0.000059  -0.000181   0.000017  -0.000019  -0.000064
     6  H   -0.000133  -0.000205  -0.007037  -0.000174  -0.000312   0.000475
     7  H   -0.003044   0.000229  -0.000204   0.000208  -0.000464   0.000430
     8  H    0.000059  -0.000004  -0.000008   0.000001  -0.000035   0.000040
     9  H   -0.000032  -0.000004  -0.000010   0.000000   0.000000  -0.000007
    10  O   -0.000112   0.003642   0.003359  -0.000166   0.000063   0.010050
    11  O    0.000000   0.000007  -0.000031   0.000000   0.000001  -0.000177
    12  C    0.000043   0.386981   0.404029  -0.034711  -0.035795  -0.043769
    13  C   -0.000102  -0.036834  -0.042645   0.391325   0.384447   0.385082
    14  C    0.384653   0.002678  -0.000512  -0.000054   0.000520   0.000114
    15  O    0.011359  -0.000002   0.000004   0.000000  -0.000015   0.000003
    16  Si   0.001988  -0.000005   0.000013  -0.000001  -0.000029   0.000006
    17  C    0.000019   0.000000   0.000000   0.000000   0.000085   0.000002
    18  C    0.000171   0.000000   0.000000   0.000000   0.000000   0.000000
    19  C    0.000044   0.000000   0.000000   0.000000   0.000000   0.000000
    20  H    0.000592   0.000000   0.000000   0.000000   0.000000   0.000000
    21  H   -0.000004   0.000000   0.000000   0.000000   0.000000   0.000000
    22  H    0.000000   0.000000   0.000000   0.000000   0.000000   0.000000
    23  H    0.000003   0.000000   0.000000   0.000000   0.000000   0.000000
    24  H    0.000001   0.000000   0.000000   0.000000   0.000000   0.000000
    25  H   -0.000001   0.000000   0.000000   0.000000   0.000000   0.000000
    26  H   -0.000006   0.000000   0.000000   0.000000   0.000059   0.000003
    27  H    0.000123   0.000000   0.000000  -0.000001   0.000105  -0.000001
    28  H   -0.000005   0.000000   0.000000   0.000000  -0.000004   0.000000
    29  H   -0.023145  -0.000609   0.000182  -0.000053   0.001635  -0.000111
    30  H   -0.024315   0.000294  -0.000179   0.000011  -0.000105   0.000005
    31  H    0.428042   0.000275   0.000029  -0.000003  -0.000016   0.000022
    32  H    0.000275   0.475953  -0.026111  -0.003582  -0.005581   0.007085
    33  H    0.000029  -0.026111   0.468425  -0.005803   0.006248  -0.003223
    34  H   -0.000003  -0.003582  -0.005803   0.462703  -0.027472  -0.025691
    35  H   -0.000016  -0.005581   0.006248  -0.027472   0.479637  -0.027859
    36  H    0.000022   0.007085  -0.003223  -0.025691  -0.027859   0.468352
    37  C   -0.000641   0.000003  -0.000019   0.000002  -0.000023   0.000015
    38  C   -0.000211   0.000000  -0.000002   0.000000   0.000000   0.000000
    39  C    0.000033   0.000000   0.000000   0.000000   0.000000   0.000000
    40  H    0.000056  -0.000027  -0.000036   0.000001  -0.000001  -0.000008
    41  H    0.000740  -0.000009   0.000007   0.000000   0.000001   0.000000
    42  H   -0.000002   0.000000   0.000000   0.000000   0.000000   0.000000
    43  H   -0.000001   0.000000   0.000000   0.000000   0.000000   0.000000
    44  H    0.000025   0.000000   0.000000   0.000000   0.000000   0.000000
              37         38         39         40         41         42
     1  C    0.000941  -0.000636   0.000014   0.002930  -0.000177  -0.000086
     2  C   -0.095651   0.009727  -0.000202  -0.006795  -0.010014  -0.000099
     3  C    0.268391  -0.061845  -0.002101  -0.037858  -0.036081  -0.004094
     4  C   -0.100602  -0.004463   0.000536  -0.001847   0.006264   0.002406
     5  C   -0.001957   0.000774   0.000011   0.002381  -0.000280   0.000373
     6  H    0.006722   0.000228  -0.000006  -0.000999  -0.000023   0.000042
     7  H    0.009312  -0.000187  -0.000005  -0.000402  -0.000052   0.000026
     8  H    0.006655  -0.000250  -0.000010   0.000100  -0.000122   0.000205
     9  H   -0.006500   0.004849   0.000444   0.000167  -0.000014   0.001632
    10  O   -0.002789  -0.000082  -0.000001   0.001997   0.000074  -0.000081
    11  O    0.000286  -0.000082   0.000001  -0.000191   0.000003   0.000242
    12  C   -0.000515   0.000004   0.000000   0.001009  -0.000077  -0.000002
    13  C    0.000018   0.000000   0.000000  -0.000028   0.000000   0.000000
    14  C   -0.007934  -0.000340   0.000007   0.000670   0.002321  -0.000020
    15  O   -0.074507   0.002819   0.001038   0.003779   0.001291   0.000314
    16  Si  -0.004898  -0.000239   0.000346   0.000414  -0.000421  -0.000481
    17  C   -0.000288   0.000021   0.000005   0.000017   0.000003   0.000003
    18  C    0.000103  -0.000206  -0.000143   0.000000  -0.000063   0.000000
    19  C    0.000269  -0.001413  -0.000678  -0.000012   0.000025   0.000116
    20  H   -0.000018  -0.000010  -0.000025   0.000000  -0.000017   0.000000
    21  H    0.000147   0.000128   0.000501  -0.000001  -0.000002   0.000000
    22  H    0.000000  -0.000007  -0.000014   0.000000   0.000002   0.000000
    23  H    0.000331   0.002226   0.002817   0.000005   0.000015   0.000032
    24  H    0.000052  -0.000016   0.000027   0.000004   0.000003  -0.000042
    25  H   -0.000002   0.000064   0.000021   0.000000   0.000000  -0.000001
    26  H   -0.000056   0.000010   0.000001   0.000004  -0.000001   0.000000
    27  H   -0.000062   0.000002   0.000000   0.000003  -0.000001   0.000000
    28  H    0.000004   0.000001   0.000000   0.000000   0.000000   0.000000
    29  H   -0.000167   0.000015  -0.000001  -0.000058   0.000204   0.000001
    30  H    0.003566   0.000192  -0.000003  -0.000335   0.000284  -0.000002
    31  H   -0.000641  -0.000211   0.000033   0.000056   0.000740  -0.000002
    32  H    0.000003   0.000000   0.000000  -0.000027  -0.000009   0.000000
    33  H   -0.000019  -0.000002   0.000000  -0.000036   0.000007   0.000000
    34  H    0.000002   0.000000   0.000000   0.000001   0.000000   0.000000
    35  H   -0.000023   0.000000   0.000000  -0.000001   0.000001   0.000000
    36  H    0.000015   0.000000   0.000000  -0.000008   0.000000   0.000000
    37  C    5.499694   0.326138  -0.052591   0.378544   0.395737  -0.050706
    38  C    0.326138   5.019876   0.644084  -0.039305  -0.045538   0.394836
    39  C   -0.052591   0.644084   5.119692   0.000102   0.000210  -0.037167
    40  H    0.378544  -0.039305   0.000102   0.466823  -0.019511  -0.002482
    41  H    0.395737  -0.045538   0.000210  -0.019511   0.436014   0.004904
    42  H   -0.050706   0.394836  -0.037167  -0.002482   0.004904   0.473967
    43  H    0.006299  -0.037704   0.391239  -0.000326   0.000051  -0.008595
    44  H   -0.009455  -0.040360   0.388240   0.000100   0.005512   0.006383
              43         44
     1  C    0.000000  -0.000002
     2  C    0.000016  -0.000070
     3  C   -0.000157  -0.000058
     4  C    0.000004   0.000046
     5  C   -0.000003   0.000001
     6  H    0.000000   0.000005
     7  H   -0.000001   0.000003
     8  H   -0.000004   0.000005
     9  H    0.000000   0.000008
    10  O    0.000000   0.000000
    11  O    0.000000   0.000000
    12  C    0.000000   0.000000
    13  C    0.000000   0.000000
    14  C    0.000000   0.000006
    15  O    0.000078   0.000379
    16  Si   0.000262  -0.000301
    17  C    0.000000   0.000001
    18  C   -0.000006   0.000071
    19  C    0.000036   0.000021
    20  H    0.000000  -0.000001
    21  H   -0.000012   0.000186
    22  H    0.000000  -0.000003
    23  H    0.000141   0.000025
    24  H    0.000000  -0.000003
    25  H    0.000001  -0.000001
    26  H    0.000000   0.000000
    27  H    0.000000   0.000000
    28  H    0.000000   0.000000
    29  H    0.000000  -0.000001
    30  H   -0.000001  -0.000006
    31  H   -0.000001   0.000025
    32  H    0.000000   0.000000
    33  H    0.000000   0.000000
    34  H    0.000000   0.000000
    35  H    0.000000   0.000000
    36  H    0.000000   0.000000
    37  C    0.006299  -0.009455
    38  C   -0.037704  -0.040360
    39  C    0.391239   0.388240
    40  H   -0.000326   0.000100
    41  H    0.000051   0.005512
    42  H   -0.008595   0.006383
    43  H    0.457885  -0.034539
    44  H   -0.034539   0.463488
 Mulliken charges:
               1
     1  C   -0.034890
     2  C   -0.311317
     3  C    0.215287
     4  C   -0.676342
     5  C    0.479358
     6  H    0.251703
     7  H    0.260616
     8  H    0.284920
     9  H    0.283097
    10  O   -0.327836
    11  O   -0.381158
    12  C   -0.441446
    13  C   -0.680699
    14  C   -0.684863
    15  O   -0.637724
    16  Si   1.441654
    17  C   -1.068958
    18  C   -1.041066
    19  C   -1.067348
    20  H    0.239405
    21  H    0.241300
    22  H    0.231266
    23  H    0.248836
    24  H    0.240663
    25  H    0.236484
    26  H    0.245218
    27  H    0.242041
    28  H    0.240107
    29  H    0.243289
    30  H    0.231006
    31  H    0.261759
    32  H    0.240872
    33  H    0.242612
    34  H    0.235926
    35  H    0.228528
    36  H    0.237193
    37  C   -0.493845
    38  C   -0.173098
    39  C   -0.456422
    40  H    0.251116
    41  H    0.258740
    42  H    0.218379
    43  H    0.225340
    44  H    0.220296
 Sum of Mulliken charges =   0.00000
 Mulliken charges with hydrogens summed into heavy atoms:
               1
     1  C    0.216813
     2  C   -0.050701
     3  C    0.215287
     4  C   -0.108326
     5  C    0.479358
    10  O   -0.327836
    11  O   -0.381158
    12  C    0.042038
    13  C    0.020947
    14  C    0.051191
    15  O   -0.637724
    16  Si   1.441654
    17  C   -0.341593
    18  C   -0.329095
    19  C   -0.341364
    37  C    0.016012
    38  C    0.045281
    39  C   -0.010786
 Electronic spatial extent (au):  <R**2>=           5378.2785
 Charge=              0.0000 electrons
 Dipole moment (field-independent basis, Debye):
    X=              1.6427    Y=             -3.0362    Z=             -3.3645  Tot=              4.8205
 Quadrupole moment (field-independent basis, Debye-Ang):
   XX=           -119.3591   YY=           -121.5780   ZZ=           -126.1278
   XY=              7.5128   XZ=             13.3964   YZ=             -7.3774
 Traceless Quadrupole moment (field-independent basis, Debye-Ang):
   XX=              2.9959   YY=              0.7769   ZZ=             -3.7729
   XY=              7.5128   XZ=             13.3964   YZ=             -7.3774
 Octapole moment (field-independent basis, Debye-Ang**2):
  XXX=             -2.1229  YYY=             -6.8802  ZZZ=            -25.0262  XYY=             12.1136
  XXY=            -20.2365  XXZ=            -23.0325  XZZ=             14.3872  YZZ=            -19.1265
  YYZ=             -9.2308  XYZ=             10.8727
 Hexadecapole moment (field-independent basis, Debye-Ang**3):
 XXXX=          -4020.1983 YYYY=          -1978.4163 ZZZZ=          -1350.8353 XXXY=             42.8714
 XXXZ=             76.7284 YYYX=             19.7023 YYYZ=             38.0409 ZZZX=             31.3851
 ZZZY=            -47.4335 XXYY=           -973.6362 XXZZ=           -939.7698 YYZZ=           -581.3633
 XXYZ=            -60.3396 YYXZ=             34.2995 ZZXY=             41.2433
 N-N= 1.630438576237D+03 E-N=-5.756034247476D+03  KE= 1.060529570983D+03
 1\1\GINC-SWANNODE-0-15\SP\RmPW1PW91\6-311G(d)\C14H26O3Si1\KE291\06-Feb
 -2019\0\\# mPW1PW91/6-311g(d) geom=checkpoint nmr=giao scrf=(solvent=c
 hloroform)\\P_ng_correct1ginp015\\0,1\C,0,1.1362537856,-0.4897338674,0
 .6041246778\C,0,-0.3977562226,-0.5537780468,0.6347875966\C,0,-0.999750
 8005,0.6198228552,1.4615713489\C,0,-0.5125727184,1.9133870384,0.788851
 9926\C,0,0.9867284182,1.9964381867,0.5707832089\H,0,1.5172814201,-0.77
 82157907,1.5915006979\H,0,-0.772787803,-0.3992308194,-0.3846042813\H,0
 ,-0.9601238619,1.9808484952,-0.2104293343\H,0,-0.8122856495,2.80994911
 12,1.3323449979\O,0,1.6718241196,0.8527956838,0.3698731501\O,0,1.57896
 06833,3.0532689083,0.5026784901\C,0,1.815874,-1.3846422395,-0.43990474
 76\C,0,1.4135170351,-1.1182452068,-1.8935404879\C,0,-0.8668783653,-1.9
 391434229,1.1028826844\O,0,-2.4143150468,0.5009748779,1.4251760261\Si,
 0,-3.726465691,1.2834701484,0.7276056212\C,0,-3.6857304262,1.166726406
 6,-1.1577467361\C,0,-5.2045101393,0.3259148774,1.3881543893\C,0,-3.841
 707317,3.0918016881,1.2542379618\H,0,-5.1606227708,-0.726052529,1.0873
 698059\H,0,-5.2408624414,0.3611652695,2.4817746931\H,0,-6.1428942547,0
 .7443495409,1.0073496112\H,0,-3.7551478618,3.1878677883,2.3410473386\H
 ,0,-3.0672748906,3.7156784331,0.7968815088\H,0,-4.8129291298,3.5040577
 274,0.9562639711\H,0,-2.8680495689,1.7426452836,-1.6037895059\H,0,-3.5
 857782873,0.1276834682,-1.4894485641\H,0,-4.621033985,1.5585828653,-1.
 5749817297\H,0,-0.6432231088,-2.7028436445,0.3533666504\H,0,-0.3839040
 877,-2.2414253585,2.0381103964\H,0,-1.9465091963,-1.9292187876,1.26386
 32585\H,0,1.6190282746,-2.4290575413,-0.1747347441\H,0,2.8958943957,-1
 .2388264564,-0.3276070757\H,0,2.0233234214,-1.7230095947,-2.5711253697
 \H,0,0.3656105119,-1.3689078436,-2.0855778011\H,0,1.5659014965,-0.0670
 56008,-2.1558079661\C,0,-0.5813390683,0.5589381383,2.9580471663\C,0,-1
 .1123747161,1.6756418687,3.8158696893\C,0,-1.9855279058,1.5153380166,4
 .8115797911\H,0,0.51531155,0.5614681613,3.0178648308\H,0,-0.9243665457
 ,-0.3977323629,3.3624297439\H,0,-0.7253192711,2.6745865554,3.616431756
 8\H,0,-2.320449771,2.3526672537,5.4168904335\H,0,-2.3915362098,0.53785
 28724,5.0614178545\\Version=EM64L-G09RevD.01\State=1-A\HF=-1064.382550
 2\RMSD=8.940e-09\Dipole=-1.2150064,-1.4543037,-0.0743403\Quadrupole=-4
 .5798591,0.6335961,3.946263,-11.7854295,2.0608206,2.3336244\PG=C01 [X(
 C14H26O3Si1)]\\@


 KNOWLEDGE IS CHIMERA - FOR BEYOND IT LIES OTHER KNOWLEDGE,
 AND THE INCOMPLETENESS OF WHAT IS KNOWN RENDERS THE KNOWING FALSE.
     -- THE THOMAS COVENANT CHRONICLES
 Job cpu time:       0 days  0 hours 48 minutes 18.1 seconds.
 File lengths (MBytes):  RWF=    243 Int=      0 D2E=      0 Chk=     19 Scr=      1
 Normal termination of Gaussian 09 at Wed Feb  6 15:17:17 2019.
