 Entering Gaussian System, Link 0=/usr/local/Cluster-Apps/gaussian/g09/g09
 Initial command:
 /usr/local/Cluster-Apps/gaussian/g09/l1.exe "/home/ke291/rds/hpc-work/06Feb0927IP1/Gau-318937.inp" -scrdir="/home/ke291/rds/hpc-work/06Feb0927IP1/"
 Entering Link 1 = /usr/local/Cluster-Apps/gaussian/g09/l1.exe PID=    318942.
  
 Copyright (c) 1988,1990,1992,1993,1995,1998,2003,2009,2013,
            Gaussian, Inc.  All Rights Reserved.
  
 This is part of the Gaussian(R) 09 program.  It is based on
 the Gaussian(R) 03 system (copyright 2003, Gaussian, Inc.),
 the Gaussian(R) 98 system (copyright 1998, Gaussian, Inc.),
 the Gaussian(R) 94 system (copyright 1995, Gaussian, Inc.),
 the Gaussian 92(TM) system (copyright 1992, Gaussian, Inc.),
 the Gaussian 90(TM) system (copyright 1990, Gaussian, Inc.),
 the Gaussian 88(TM) system (copyright 1988, Gaussian, Inc.),
 the Gaussian 86(TM) system (copyright 1986, Carnegie Mellon
 University), and the Gaussian 82(TM) system (copyright 1983,
 Carnegie Mellon University). Gaussian is a federally registered
 trademark of Gaussian, Inc.
  
 This software contains proprietary and confidential information,
 including trade secrets, belonging to Gaussian, Inc.
  
 This software is provided under written license and may be
 used, copied, transmitted, or stored only in accord with that
 written license.
  
 The following legend is applicable only to US Government
 contracts under FAR:
  
                    RESTRICTED RIGHTS LEGEND
  
 Use, reproduction and disclosure by the US Government is
 subject to restrictions as set forth in subparagraphs (a)
 and (c) of the Commercial Computer Software - Restricted
 Rights clause in FAR 52.227-19.
  
 Gaussian, Inc.
 340 Quinnipiac St., Bldg. 40, Wallingford CT 06492
  
  
 ---------------------------------------------------------------
 Warning -- This program may not be used in any manner that
 competes with the business of Gaussian, Inc. or will provide
 assistance to any competitor of Gaussian, Inc.  The licensee
 of this program is prohibited from giving any competitor of
 Gaussian, Inc. access to this program.  By using this program,
 the user acknowledges that Gaussian, Inc. is engaged in the
 business of creating and licensing software in the field of
 computational chemistry and represents and warrants to the
 licensee that it is not a competitor of Gaussian, Inc. and that
 it will not use this program in any manner prohibited above.
 ---------------------------------------------------------------
  

 Cite this work as:
 Gaussian 09, Revision D.01,
 M. J. Frisch, G. W. Trucks, H. B. Schlegel, G. E. Scuseria, 
 M. A. Robb, J. R. Cheeseman, G. Scalmani, V. Barone, B. Mennucci, 
 G. A. Petersson, H. Nakatsuji, M. Caricato, X. Li, H. P. Hratchian, 
 A. F. Izmaylov, J. Bloino, G. Zheng, J. L. Sonnenberg, M. Hada, 
 M. Ehara, K. Toyota, R. Fukuda, J. Hasegawa, M. Ishida, T. Nakajima, 
 Y. Honda, O. Kitao, H. Nakai, T. Vreven, J. A. Montgomery, Jr., 
 J. E. Peralta, F. Ogliaro, M. Bearpark, J. J. Heyd, E. Brothers, 
 K. N. Kudin, V. N. Staroverov, T. Keith, R. Kobayashi, J. Normand, 
 K. Raghavachari, A. Rendell, J. C. Burant, S. S. Iyengar, J. Tomasi, 
 M. Cossi, N. Rega, J. M. Millam, M. Klene, J. E. Knox, J. B. Cross, 
 V. Bakken, C. Adamo, J. Jaramillo, R. Gomperts, R. E. Stratmann, 
 O. Yazyev, A. J. Austin, R. Cammi, C. Pomelli, J. W. Ochterski, 
 R. L. Martin, K. Morokuma, V. G. Zakrzewski, G. A. Voth, 
 P. Salvador, J. J. Dannenberg, S. Dapprich, A. D. Daniels, 
 O. Farkas, J. B. Foresman, J. V. Ortiz, J. Cioslowski, 
 and D. J. Fox, Gaussian, Inc., Wallingford CT, 2013.
 
 ******************************************
 Gaussian 09:  ES64L-G09RevD.01 24-Apr-2013
                 6-Feb-2019 
 ******************************************
 %nprocshared=2
 Will use up to    2 processors via shared memory.
 %mem=6000MB
 %chk=/home/ke291/rds/hpc-work/06Feb0927IP1/P_ng_3ginp008.chk
 ----------------------------------------------------------------------
 # mPW1PW91/6-311g(d) geom=checkpoint nmr=giao scrf=(solvent=chloroform
 )
 ----------------------------------------------------------------------
 1/29=2,38=1/1;
 2/12=2,40=1/2;
 3/5=4,6=6,7=1,11=2,14=-4,16=1,25=1,30=1,70=2201,72=7,74=-7/1,2,8,3;
 4//1;
 5/5=2,38=5,53=7/2;
 8/6=1,10=90,11=11/1;
 10/13=100,45=16/2;
 6/7=2,8=2,9=2,10=2,28=1/1;
 99/9=1/99;
 -------------
 P_ng_3ginp008
 -------------
 Structure from the checkpoint file:  "/home/ke291/rds/hpc-work/06Feb0927IP1/P_ng_3ginp008.chk"
 Charge =  0 Multiplicity = 1
 Redundant internal coordinates found in file.
 C,0,-0.1463011916,0.5698816957,-0.3406029173
 C,0,-1.4511699377,0.1069420213,0.3252605196
 C,0,-1.6682259268,0.9084424139,1.6420564159
 C,0,-1.7717893493,2.3954366929,1.2597617483
 C,0,-0.7138651598,2.9014668753,0.2919639428
 H,0,0.6971155527,0.3349783381,0.3191610488
 H,0,-1.3086213579,-0.9410799415,0.6085143508
 H,0,-2.7332723182,2.5717150048,0.7656683586
 H,0,-1.7433604279,3.0483704325,2.1362174366
 O,0,-0.1059869056,2.021320171,-0.533063639
 O,0,-0.4532474914,4.0812150432,0.1806033265
 C,0,0.1620691624,-0.0265606067,-1.714205604
 C,0,0.3860864235,-1.5418783354,-1.6818300547
 C,0,-2.6635264432,0.1743407402,-0.6187801777
 O,0,-2.8735381529,0.4305862491,2.2257091611
 Si,0,-4.0039984325,1.013106074,3.3267236659
 C,0,-3.2156250808,1.7856939743,4.85846368
 C,0,-5.144576854,2.2805381891,2.5158451776
 C,0,-4.9846070519,-0.5184782207,3.8047083886
 H,0,-5.9697066657,2.5270477645,3.1944621847
 H,0,-4.6276875971,3.2156069015,2.2770570622
 H,0,-5.582209228,1.8905351688,1.590709591
 H,0,-4.3373382015,-1.2718749655,4.2649863739
 H,0,-5.7756368719,-0.2693349317,4.5207512422
 H,0,-5.4579712354,-0.9735253428,2.9283762516
 H,0,-4.0032484488,2.0885880871,5.5587491078
 H,0,-2.5651203934,1.0759316821,5.3788519949
 H,0,-2.6275499676,2.6802068328,4.6270305525
 H,0,-3.5814818022,-0.0178351053,-0.0619286463
 H,0,-2.7551783991,1.1476184681,-1.1110252715
 H,0,-2.5836097446,-0.5811348322,-1.4046841972
 H,0,1.0657725673,0.4704559697,-2.0834453221
 H,0,-0.6400958986,0.2281412222,-2.4144082107
 H,0,0.679816881,-1.9034078807,-2.6713493709
 H,0,1.1836042531,-1.8121045063,-0.9806826972
 H,0,-0.5165269998,-2.0865298286,-1.3873012425
 C,0,-0.5070011901,0.726213596,2.6631042984
 C,0,-0.2343096924,-0.685905779,3.1036604243
 C,0,-0.2585873786,-1.1031419403,4.3703257644
 H,0,-0.7404911351,1.3400009977,3.5386029288
 H,0,0.4086163027,1.1558092663,2.2344459361
 H,0,0.0306285986,-1.4024741109,2.3268316926
 H,0,-0.0285917729,-2.130615614,4.6365025714
 H,0,-0.4994750369,-0.4298339305,5.1896381532
 Recover connectivity data from disk.
                          Input orientation:                          
 ---------------------------------------------------------------------
 Center     Atomic      Atomic             Coordinates (Angstroms)
 Number     Number       Type             X           Y           Z
 ---------------------------------------------------------------------
      1          6           0       -0.146301    0.569882   -0.340603
      2          6           0       -1.451170    0.106942    0.325261
      3          6           0       -1.668226    0.908442    1.642056
      4          6           0       -1.771789    2.395437    1.259762
      5          6           0       -0.713865    2.901467    0.291964
      6          1           0        0.697116    0.334978    0.319161
      7          1           0       -1.308621   -0.941080    0.608514
      8          1           0       -2.733272    2.571715    0.765668
      9          1           0       -1.743360    3.048370    2.136217
     10          8           0       -0.105987    2.021320   -0.533064
     11          8           0       -0.453247    4.081215    0.180603
     12          6           0        0.162069   -0.026561   -1.714206
     13          6           0        0.386086   -1.541878   -1.681830
     14          6           0       -2.663526    0.174341   -0.618780
     15          8           0       -2.873538    0.430586    2.225709
     16         14           0       -4.003998    1.013106    3.326724
     17          6           0       -3.215625    1.785694    4.858464
     18          6           0       -5.144577    2.280538    2.515845
     19          6           0       -4.984607   -0.518478    3.804708
     20          1           0       -5.969707    2.527048    3.194462
     21          1           0       -4.627688    3.215607    2.277057
     22          1           0       -5.582209    1.890535    1.590710
     23          1           0       -4.337338   -1.271875    4.264986
     24          1           0       -5.775637   -0.269335    4.520751
     25          1           0       -5.457971   -0.973525    2.928376
     26          1           0       -4.003248    2.088588    5.558749
     27          1           0       -2.565120    1.075932    5.378852
     28          1           0       -2.627550    2.680207    4.627031
     29          1           0       -3.581482   -0.017835   -0.061929
     30          1           0       -2.755178    1.147618   -1.111025
     31          1           0       -2.583610   -0.581135   -1.404684
     32          1           0        1.065773    0.470456   -2.083445
     33          1           0       -0.640096    0.228141   -2.414408
     34          1           0        0.679817   -1.903408   -2.671349
     35          1           0        1.183604   -1.812105   -0.980683
     36          1           0       -0.516527   -2.086530   -1.387301
     37          6           0       -0.507001    0.726214    2.663104
     38          6           0       -0.234310   -0.685906    3.103660
     39          6           0       -0.258587   -1.103142    4.370326
     40          1           0       -0.740491    1.340001    3.538603
     41          1           0        0.408616    1.155809    2.234446
     42          1           0        0.030629   -1.402474    2.326832
     43          1           0       -0.028592   -2.130616    4.636503
     44          1           0       -0.499475   -0.429834    5.189638
 ---------------------------------------------------------------------
                    Distance matrix (angstroms):
                    1          2          3          4          5
     1  C    0.000000
     2  C    1.536349   0.000000
     3  C    2.522264   1.556749   0.000000
     4  C    2.921648   2.492649   1.538839   0.000000
     5  C    2.481644   2.890345   2.589537   1.520494   0.000000
     6  H    1.096275   2.160363   2.770154   3.350479   2.928902
     7  H    2.129511   1.094944   2.149013   3.430888   3.901167
     8  H    3.453056   2.812979   2.160753   1.095286   2.100271
     9  H    3.850733   3.466546   2.197529   1.093300   2.117242
    10  O    1.464698   2.492204   2.900041   2.475699   1.350868
    11  O    3.563051   4.100198   3.698446   2.396870   1.213313
    12  C    1.528928   2.603802   3.935569   4.295388   3.655861
    13  C    2.557705   3.181593   4.612211   5.367666   4.984884
    14  C    2.563251   1.538039   2.576996   3.042595   3.473881
    15  O    3.747423   2.395742   1.421891   2.451029   3.809043
    16  Si   5.341120   4.043123   2.881821   3.341546   4.858050
    17  C    6.158672   5.146012   3.675499   3.925188   5.325098
    18  C    6.005697   4.812945   3.838121   3.600922   4.996239
    19  C    6.463539   4.998288   4.208509   5.028902   6.501895
    20  H    7.087964   5.874215   4.851039   4.624164   6.015692
    21  H    5.825361   4.854232   3.805870   3.140657   4.399691
    22  H    5.918039   4.674190   4.035642   3.857947   5.139017
    23  H    6.493713   5.074696   4.331017   5.390973   6.806706
    24  H    7.485083   6.036948   5.152171   5.810839   7.318344
    25  H    6.425120   4.898783   4.422510   5.265180   6.668791
    26  H    7.210053   6.150563   4.710155   4.853335   6.262575
    27  H    6.230485   5.264847   3.846572   4.397428   5.712806
    28  H    5.940324   5.148863   3.601322   3.485960   4.743833
    29  H    3.496217   2.168805   2.724354   3.293286   4.107407
    30  H    2.780930   2.201446   2.969534   2.853898   3.035016
    31  H    2.897858   2.179123   3.512748   4.076555   4.301520
    32  H    2.125208   3.502714   4.641761   4.788981   3.836599
    33  H    2.159002   2.859775   4.239666   4.413324   3.804808
    34  H    3.497429   4.190738   5.659088   6.320132   5.814671
    35  H    2.802179   3.511447   4.734245   5.608685   5.238108
    36  H    2.879091   2.935599   4.412854   5.354498   5.266781
    37  C    3.029324   2.596241   1.556981   2.520985   3.224411
    38  C    3.667110   3.135102   2.595062   3.906210   4.583105
    39  C    5.000447   4.387381   3.671104   4.919903   5.733865
    40  H    3.999298   3.514409   2.154953   2.714892   3.602714
    41  H    2.698541   2.864248   2.173796   2.690884   2.842626
    42  H    3.322153   2.912104   2.948789   4.337220   4.818596
    43  H    5.663755   5.061344   4.570665   5.909845   6.683298
    44  H    5.630962   4.985581   3.967657   5.004485   5.927119
                    6          7          8          9         10
     6  H    0.000000
     7  H    2.394792   0.000000
     8  H    4.119456   3.793950   0.000000
     9  H    4.076777   4.294018   1.756568   0.000000
    10  O    2.053049   3.394900   2.981991   3.295586   0.000000
    11  O    3.921329   5.112555   2.796320   2.560388   2.207505
    12  C    2.133440   2.897293   4.613438   5.283145   2.379236
    13  C    2.761032   2.911816   5.713344   6.338960   3.776001
    14  C    3.492772   2.141538   2.769290   4.086167   3.155897
    15  O    4.048905   2.635479   2.595347   2.852736   4.219076
    16  Si   5.621900   4.297972   3.256226   3.266510   5.577540
    17  C    6.165986   5.397595   4.195410   3.342535   6.228478
    18  C    6.537277   5.360158   2.993709   3.507415   5.894949
    19  C    6.720074   4.889491   4.884011   5.100191   7.004840
    20  H    7.584131   6.359304   4.046670   4.387899   6.966593
    21  H    6.362775   5.574790   2.507529   2.892602   5.456086
    22  H    6.592914   5.219799   3.043212   4.046594   5.875077
    23  H    6.595244   4.759447   5.439801   5.470365   7.195189
    24  H    7.740483   5.975874   5.606085   5.740420   7.933037
    25  H    6.812142   4.753937   4.966892   5.531862   7.042329
    26  H    7.254092   6.398807   4.981955   4.212125   7.232106
    27  H    6.065614   5.329470   4.852536   3.883360   6.472391
    28  H    5.925474   5.567923   3.864333   2.668611   5.780915
    29  H    4.310000   2.543181   2.847832   4.196684   4.056992
    30  H    3.824154   3.067899   2.355952   3.896308   2.848791
    31  H    3.817599   2.410005   3.830573   5.139777   3.697446
    32  H    2.434498   3.857049   5.192830   5.687040   2.486339
    33  H    3.044988   3.309390   4.470639   5.466176   2.653341
    34  H    3.735482   3.954424   6.594619   7.314684   4.537978
    35  H    2.556605   3.081464   6.132662   6.473516   4.069220
    36  H    3.201350   2.433670   5.590034   6.347244   4.215768
    37  C    2.664026   2.764743   3.458673   2.683022   3.471830
    38  C    3.108568   2.728555   4.724734   4.142221   4.535560
    39  C    4.403804   3.908972   5.711584   4.942757   5.816251
    40  H    3.666277   3.756530   3.630077   2.427130   4.176752
    41  H    2.103642   3.160618   3.746139   2.867480   2.945002
    42  H    2.737460   2.226901   5.086311   4.795142   4.463186
    43  H    5.024464   4.390690   6.664125   6.001146   6.630911
    44  H    5.073294   4.680041   5.794019   4.792550   6.237973
                   11         12         13         14         15
    11  O    0.000000
    12  C    4.565385   0.000000
    13  C    5.982668   1.532129   0.000000
    14  C    4.559387   3.037155   3.657270   0.000000
    15  O    4.833979   4.994680   5.457530   2.863719   0.000000
    16  Si   5.649708   6.621782   7.133470   4.250576   1.682113
    17  C    5.897671   7.608749   8.174381   5.735981   2.980728
    18  C    5.541152   7.167742   7.925881   4.518579   2.943487
    19  C    7.404359   7.562319   7.745566   5.043279   2.801888
    20  H    6.475346   8.259214   8.985015   5.568382   3.862628
    21  H    4.750826   7.027346   7.965198   4.636065   3.291811
    22  H    5.752715   6.898873   7.623092   4.043004   3.141906
    23  H    7.773282   7.585922   7.599228   5.361377   3.033107
    24  H    8.129699   8.613361   8.835056   6.024688   3.765539
    25  H    7.625478   7.350861   7.465255   4.659274   3.023998
    26  H    6.745185   8.644050   9.212629   6.604625   3.890292
    27  H    6.365024   7.678836   8.088002   6.065817   3.233249
    28  H    5.144038   7.437731   8.167602   5.813707   3.299644
    29  H    5.162062   4.091976   4.548449   1.090714   2.436299
    30  H    3.946287   3.202008   4.174537   1.094520   3.414958
    31  H    5.365546   2.818175   3.133518   1.093058   3.779867
    32  H    4.524480   1.095465   2.161656   4.017536   5.838542
    33  H    4.649212   1.094818   2.173175   2.705817   5.153633
    34  H    6.725562   2.169503   1.093677   4.439372   6.484986
    35  H    6.225679   2.183977   1.095748   4.344808   5.636578
    36  H    6.364229   2.193361   1.094579   3.211194   4.994519
    37  C    4.173935   4.491677   4.981998   3.965593   2.424708
    38  C    5.596216   4.878902   4.900867   4.527437   2.997145
    39  C    6.668525   6.193343   6.102187   5.683913   3.713445
    40  H    4.344298   5.502191   6.068552   4.726591   2.664698
    41  H    3.676830   4.129241   4.755549   4.306070   3.361333
    42  H    5.908577   4.270878   4.026804   4.292021   3.435771
    43  H    7.656514   6.692899   6.359237   6.314563   4.523870
    44  H    6.741078   6.947181   7.016975   6.227830   3.893761
                   16         17         18         19         20
    16  Si   0.000000
    17  C    1.888029   0.000000
    18  C    1.888075   3.074669   0.000000
    19  C    1.880376   3.090131   3.085653   0.000000
    20  H    2.484657   3.302041   1.096416   3.258535   0.000000
    21  H    2.518293   3.271427   1.094782   4.050247   1.765435
    22  H    2.504870   4.036078   1.095217   3.325998   1.768424
    23  H    2.492507   3.310466   4.041135   1.094723   4.271120
    24  H    2.491798   3.300129   3.304503   1.095681   3.101042
    25  H    2.493877   4.045571   3.295046   1.095034   3.547772
    26  H    2.477620   1.096583   3.255571   3.291887   3.106293
    27  H    2.507099   1.094405   4.037509   3.297573   4.297500
    28  H    2.522822   1.095238   3.309420   4.057526   3.639467
    29  H    3.567117   5.253268   3.790871   4.143704   4.773272
    30  H    4.612078   6.021125   4.488532   5.648953   5.547363
    31  H    5.190889   6.725202   5.488012   5.736417   6.502200
    32  H    7.434176   8.261375   7.937148   8.500320   9.032378
    33  H    6.700194   7.871085   6.986421   7.622967   8.071502
    34  H    8.149912   9.245649   8.850760   8.714531   9.912257
    35  H    7.310731   8.148190   8.307906   7.913297   9.350398
    36  H    6.632664   7.828718   7.464897   7.027054   8.486155
    37  C    3.570951   3.644001   4.893334   4.785548   5.776374
    38  C    4.140888   4.251633   5.766805   4.804667   6.574655
    39  C    4.426705   4.162658   6.225856   4.795520   6.868611
    40  H    3.286675   2.840240   4.618075   4.640827   5.373287
    41  H    4.548033   4.518556   5.672932   5.861384   6.594310
    42  H    4.807601   5.206893   6.354766   5.302656   7.224815
    43  H    5.234727   5.054100   7.080167   5.277590   7.685711
    44  H    4.223057   3.520754   6.006018   4.694923   6.530491
                   21         22         23         24         25
    21  H    0.000000
    22  H    1.771440   0.000000
    23  H    4.916672   4.324615   0.000000
    24  H    4.300787   3.645216   1.771780   0.000000
    25  H    4.320002   3.163484   1.769564   1.769874   0.000000
    26  H    3.525564   4.275240   3.616372   3.127076   4.290876
    27  H    4.295757   4.910848   3.145417   3.585177   4.309721
    28  H    3.132025   4.309622   4.321273   4.315269   4.924070
    29  H    4.125597   3.221180   4.567946   5.087094   3.657387
    30  H    4.388846   3.980377   6.103989   6.545826   5.302934
    31  H    5.669984   4.906438   5.974768   6.737733   5.214531
    32  H    7.678888   7.727335   8.516567   9.537693   8.352405
    33  H    6.843660   6.574877   7.780357   8.643940   7.293920
    34  H    8.880351   8.471843   8.583905   9.801499   8.360266
    35  H    8.346368   8.130057   7.634769   9.004274   7.752063
    36  H    7.644725   7.095543   6.870998   8.115757   6.654451
    37  C    4.829717   5.316334   4.607588   5.674548   5.241334
    38  C    5.933536   6.125936   4.304286   5.734805   5.234509
    39  C    6.490177   6.710389   4.083598   5.581729   5.397186
    40  H    4.496631   5.247820   4.504091   5.376548   5.289556
    41  H    5.441410   6.069943   5.704457   6.745607   6.279527
    42  H    6.559654   6.549025   4.780443   6.309517   5.538103
    43  H    7.436448   7.502611   4.409167   6.042044   5.808159
    44  H    6.230129   6.646096   4.036485   5.320813   5.476823
                   26         27         28         29         30
    26  H    0.000000
    27  H    1.768063   0.000000
    28  H    1.763706   1.772803   0.000000
    29  H    6.017219   5.641933   5.493246   0.000000
    30  H    6.850474   6.493055   5.940572   1.772474   0.000000
    31  H    7.591587   6.983020   6.857103   1.765233   1.761891
    32  H    9.312167   8.320809   7.972084   5.091358   4.000477
    33  H    8.851175   8.072136   7.716506   3.774442   2.649117
    34  H   10.276267   9.176700   9.231173   5.340705   4.852068
    35  H    9.213198   7.927003   8.133401   5.173930   4.928586
    36  H    8.822497   7.744593   7.959295   3.928111   3.943045
    37  C    4.739680   3.425411   3.488814   4.175146   4.413155
    38  C    5.284901   3.703140   4.402155   4.655194   5.242153
    39  C    5.061816   3.329502   4.471198   5.644856   6.429938
    40  H    3.909854   2.604903   2.557698   4.783176   5.070998
    41  H    5.602287   4.328600   4.155304   4.750964   4.604546
    42  H    6.237385   4.711182   5.387496   4.546509   5.107108
    43  H    5.869422   4.155359   5.467969   6.257965   7.156477
    44  H    4.330718   2.563206   3.810195   6.103070   6.875675
                   31         32         33         34         35
    31  H    0.000000
    32  H    3.858050   0.000000
    33  H    2.334891   1.754491   0.000000
    34  H    3.742032   2.475848   2.520256   0.000000
    35  H    3.985846   2.537726   3.089345   1.766491   0.000000
    36  H    2.557215   3.086497   2.535334   1.764526   1.769490
    37  C    4.750617   5.006872   5.103619   6.064639   4.751672
    38  C    5.084817   5.471147   5.607961   5.972326   4.467736
    39  C    6.247316   6.773574   6.924628   7.148861   5.587113
    40  H    5.614618   5.968762   6.056786   7.148460   5.836253
    41  H    5.021321   4.421057   4.855122   5.787848   4.443666
    42  H    4.629584   4.902034   5.058471   5.064997   3.526585
    43  H    6.739803   7.288409   7.460095   7.345622   5.755314
    44  H    6.917485   7.493882   7.633756   8.084385   6.543416
                   36         37         38         39         40
    36  H    0.000000
    37  C    4.931268   0.000000
    38  C    4.712763   1.504171   0.000000
    39  C    5.846696   2.514529   1.333835   0.000000
    40  H    6.004649   1.094418   2.133001   2.625441   0.000000
    41  H    4.948303   1.098479   2.135603   3.179623   1.747913
    42  H    3.816031   2.221134   1.089553   2.085453   3.095833
    43  H    6.043694   3.504946   2.116391   1.086025   3.709092
    44  H    6.782408   2.778466   2.118299   1.087494   2.432349
                   41         42         43         44
    41  H    0.000000
    42  H    2.587706   0.000000
    43  H    4.094095   2.422453   0.000000
    44  H    3.474486   3.069642   1.849418   0.000000
 Stoichiometry    C14H26O3Si
 Framework group  C1[X(C14H26O3Si)]
 Deg. of freedom   126
 Full point group                 C1      NOp   1
 Largest Abelian subgroup         C1      NOp   1
 Largest concise Abelian subgroup C1      NOp   1
                         Standard orientation:                         
 ---------------------------------------------------------------------
 Center     Atomic      Atomic             Coordinates (Angstroms)
 Number     Number       Type             X           Y           Z
 ---------------------------------------------------------------------
      1          6           0        2.536429    0.143332   -0.044119
      2          6           0        1.226891    0.349166    0.732484
      3          6           0        0.021600    0.026633   -0.198490
      4          6           0        0.154601   -1.446205   -0.624031
      5          6           0        1.538015   -1.875365   -1.086515
      6          1           0        2.576402    0.855249   -0.876824
      7          1           0        1.166515    1.414913    0.976289
      8          1           0       -0.084112   -2.088475    0.230461
      9          1           0       -0.545958   -1.708848   -1.421238
     10          8           0        2.616328   -1.185411   -0.655183
     11          8           0        1.712381   -2.864703   -1.766909
     12          6           0        3.830045    0.296182    0.756391
     13          6           0        4.045087    1.713124    1.298104
     14          6           0        1.183618   -0.435131    2.054819
     15          8           0       -1.160536    0.250101    0.559397
     16         14           0       -2.763214   -0.255568    0.487124
     17          6           0       -3.496161   -0.147012   -1.249441
     18          6           0       -2.941606   -2.025101    1.120968
     19          6           0       -3.653295    0.931804    1.641989
     20          1           0       -4.003368   -2.280205    1.219506
     21          1           0       -2.490874   -2.758734    0.444825
     22          1           0       -2.479509   -2.145306    2.106624
     23          1           0       -3.549931    1.966045    1.298358
     24          1           0       -4.722522    0.698523    1.695378
     25          1           0       -3.247248    0.873794    2.657302
     26          1           0       -4.554560   -0.431842   -1.215406
     27          1           0       -3.439955    0.870647   -1.648107
     28          1           0       -3.003422   -0.818985   -1.960221
     29          1           0        0.185498   -0.377209    2.490776
     30          1           0        1.442296   -1.490376    1.922462
     31          1           0        1.889531   -0.015431    2.776146
     32          1           0        4.654631    0.030237    0.086037
     33          1           0        3.846096   -0.433458    1.572475
     34          1           0        5.017872    1.786958    1.792440
     35          1           0        4.026372    2.455202    0.492104
     36          1           0        3.281921    1.995565    2.030162
     37          6           0       -0.019455    0.921518   -1.471943
     38          6           0       -0.095226    2.404399   -1.231412
     39          6           0       -1.060818    3.199403   -1.694787
     40          1           0       -0.882500    0.606559   -2.066674
     41          1           0        0.862886    0.698297   -2.087006
     42          1           0        0.718258    2.854057   -0.662925
     43          1           0       -1.054009    4.270052   -1.512811
     44          1           0       -1.889054    2.810335   -2.282405
 ---------------------------------------------------------------------
 Rotational constants (GHZ):      0.5046307      0.2596342      0.2330896
 Standard basis: 6-311G(d) (5D, 7F)
 There are   428 symmetry adapted cartesian basis functions of A   symmetry.
 There are   410 symmetry adapted basis functions of A   symmetry.
   410 basis functions,   720 primitive gaussians,   428 cartesian basis functions
    74 alpha electrons       74 beta electrons
       nuclear repulsion energy      1625.9036101749 Hartrees.
 NAtoms=   44 NActive=   44 NUniq=   44 SFac= 1.00D+00 NAtFMM=   60 NAOKFM=F Big=F
 Integral buffers will be    131072 words long.
 Raffenetti 2 integral format.
 Two-electron integral symmetry is turned on.
 ------------------------------------------------------------------------------
 Polarizable Continuum Model (PCM)
 =================================
 Model                : PCM (using non-symmetric T matrix).
 Atomic radii         : UFF (Universal Force Field).
 Polarization charges : Total charges.
 Charge compensation  : None.
 Solution method      : On-the-fly selection.
 Cavity type          : Scaled VdW (van der Waals Surface) (Alpha=1.100).
 Cavity algorithm     : GePol (No added spheres)
                        Default sphere list used, NSphG=   44.
                        Lebedev-Laikov grids with approx.  5.0 points / Ang**2.
                        Smoothing algorithm: Karplus/York (Gamma=1.0000).
                        Polarization charges: spherical gaussians, with
                                              point-specific exponents (IZeta= 3).
                        Self-potential: point-specific (ISelfS= 7).
                        Self-field    : sphere-specific E.n sum rule (ISelfD= 2).
 Solvent              : Chloroform, Eps=   4.711300 Eps(inf)=   2.090627
 ------------------------------------------------------------------------------
 One-electron integrals computed using PRISM.
 NBasis=   410 RedAO= T EigKep=  1.09D-03  NBF=   410
 NBsUse=   410 1.00D-06 EigRej= -1.00D+00 NBFU=   410
 ExpMin= 6.54D-02 ExpMax= 6.94D+04 ExpMxC= 2.33D+03 IAcc=2 IRadAn=         4 AccDes= 0.00D+00
 Harris functional with IExCor=  908 and IRadAn=       4 diagonalized for initial guess.
 HarFok:  IExCor=  908 AccDes= 0.00D+00 IRadAn=         4 IDoV= 1 UseB2=F ITyADJ=14
 ICtDFT=  3500011 ScaDFX=  1.000000  1.000000  1.000000  1.000000
 FoFCou: FMM=F IPFlag=           0 FMFlag=      100000 FMFlg1=           0
         NFxFlg=           0 DoJE=T BraDBF=F KetDBF=T FulRan=T
         wScrn=  0.000000 ICntrl=     500 IOpCl=  0 I1Cent=   200000004 NGrid=           0
         NMat0=    1 NMatS0=      1 NMatT0=    0 NMatD0=    1 NMtDS0=    0 NMtDT0=    0
 Petite list used in FoFCou.
 Requested convergence on RMS density matrix=1.00D-08 within 128 cycles.
 Requested convergence on MAX density matrix=1.00D-06.
 Requested convergence on             energy=1.00D-06.
 No special actions if energy rises.
 Inv3:  Mode=1 IEnd=    24779628.
 Iteration    1 A*A^-1 deviation from unit magnitude is 5.33D-15 for   1405.
 Iteration    1 A*A^-1 deviation from orthogonality  is 2.86D-15 for   2872   1698.
 Iteration    1 A^-1*A deviation from unit magnitude is 4.66D-15 for   2872.
 Iteration    1 A^-1*A deviation from orthogonality  is 3.97D-12 for   2116   2027.
 Error on total polarization charges =  0.01114
 SCF Done:  E(RmPW1PW91) =  -1064.38203665     A.U. after   12 cycles
            NFock= 12  Conv=0.90D-08     -V/T= 2.0036
 DoSCS=F DFT=T ScalE2(SS,OS)=  1.000000  1.000000
 Range of M.O.s used for correlation:     1   410
 NBasis=   410 NAE=    74 NBE=    74 NFC=     0 NFV=     0
 NROrb=    410 NOA=    74 NOB=    74 NVA=   336 NVB=   336
 NEqPCM:  Using equilibrium solvation (IEInf=0, Eps=   4.7113, EpsInf=   2.0906)
          Differentiating once with respect to magnetic field using GIAOs.
          Electric field/nuclear overlap derivatives assumed to be zero.
 FoFJK:  IHMeth= 1 ICntrl=    6127 DoSepK=F KAlg= 0 I1Cent=   0 FoldK=F
 IRaf=         1 NMat=   1 IRICut=       1 DoRegI=T DoRafI=F ISym2E= 0.
          There are     3 degrees of freedom in the 1st order CPHF.  IDoFFX=0 NUNeed=     3.
      3 vectors produced by pass  0 Test12= 8.29D-13 3.33D-08 XBig12= 3.81D+01 9.75D-01.
 AX will form     3 AO Fock derivatives at one time.
      3 vectors produced by pass  1 Test12= 8.29D-13 3.33D-08 XBig12= 7.69D-02 9.52D-02.
      3 vectors produced by pass  2 Test12= 8.29D-13 3.33D-08 XBig12= 8.16D-04 1.04D-02.
      3 vectors produced by pass  3 Test12= 8.29D-13 3.33D-08 XBig12= 5.11D-06 6.43D-04.
      3 vectors produced by pass  4 Test12= 8.29D-13 3.33D-08 XBig12= 3.20D-08 4.81D-05.
      3 vectors produced by pass  5 Test12= 8.29D-13 3.33D-08 XBig12= 7.77D-11 1.51D-06.
      2 vectors produced by pass  6 Test12= 8.29D-13 3.33D-08 XBig12= 2.28D-13 9.34D-08.
 InvSVY:  IOpt=1 It=  1 EMax= 3.33D-16
 Solved reduced A of dimension    20 with     3 vectors.
 Calculating GIAO nuclear magnetic shielding tensors.
 SCF GIAO Magnetic shielding tensor (ppm):
      1  C    Isotropic =   103.8295   Anisotropy =    60.4330
   XX=    94.5677   YX=     9.7713   ZX=     6.5651
   XY=    -0.2219   YY=   131.7430   ZY=    25.1461
   XZ=     4.2961   YZ=    26.5401   ZZ=    85.1779
   Eigenvalues:    73.2360    94.1345   144.1182
      2  C    Isotropic =   149.4770   Anisotropy =    17.8653
   XX=   160.9717   YX=     3.9695   ZX=    -4.1972
   XY=     2.0288   YY=   138.0554   ZY=    -3.2532
   XZ=     4.7026   YZ=    -9.3079   ZZ=   149.4037
   Eigenvalues:   134.9540   152.0897   161.3872
      3  C    Isotropic =   107.1003   Anisotropy =    51.0068
   XX=   131.8236   YX=    -3.6235   ZX=   -19.4918
   XY=     0.8082   YY=    84.2448   ZY=    -0.3791
   XZ=   -16.9250   YZ=     0.6865   ZZ=   105.2323
   Eigenvalues:    84.1927    96.0032   141.1048
      4  C    Isotropic =   143.4986   Anisotropy =    37.0680
   XX=   151.2786   YX=   -14.2628   ZX=    -4.3434
   XY=   -12.0423   YY=   149.7542   ZY=     4.9221
   XZ=   -11.9370   YZ=    16.3150   ZZ=   129.4630
   Eigenvalues:   124.6370   137.6482   168.2106
      5  C    Isotropic =    13.1575   Anisotropy =    87.8997
   XX=   -67.6027   YX=   -28.2280   ZX=    -8.0860
   XY=   -38.2938   YY=    44.2954   ZY=   -15.5337
   XZ=   -17.0713   YZ=   -15.2179   ZZ=    62.7797
   Eigenvalues:   -78.6128    46.3279    71.7572
      6  H    Isotropic =    27.6728   Anisotropy =     3.0885
   XX=    28.8748   YX=     1.1614   ZX=     0.3385
   XY=     1.5190   YY=    27.2460   ZY=    -1.9704
   XZ=     0.2784   YZ=    -1.0548   ZZ=    26.8976
   Eigenvalues:    25.1894    28.0972    29.7318
      7  H    Isotropic =    29.8967   Anisotropy =     4.7661
   XX=    29.4393   YX=     0.9248   ZX=     2.2036
   XY=    -0.1404   YY=    33.0317   ZY=    -0.0953
   XZ=     2.6040   YZ=    -0.4503   ZZ=    27.2191
   Eigenvalues:    25.6551    30.9610    33.0741
      8  H    Isotropic =    29.3739   Anisotropy =     4.0905
   XX=    29.9262   YX=     1.0469   ZX=    -1.0732
   XY=     1.4610   YY=    30.9592   ZY=    -1.1327
   XZ=    -1.1878   YZ=    -0.2396   ZZ=    27.2362
   Eigenvalues:    26.8112    29.2095    32.1009
      9  H    Isotropic =    29.7867   Anisotropy =     3.9873
   XX=    31.2054   YX=     0.0095   ZX=     1.8059
   XY=    -1.0407   YY=    29.7855   ZY=     3.1796
   XZ=     0.9637   YZ=     2.9452   ZZ=    28.3693
   Eigenvalues:    25.5813    31.3340    32.4449
     10  O    Isotropic =   103.5003   Anisotropy =   179.0367
   XX=   190.5445   YX=    60.5994   ZX=    48.4230
   XY=    71.8290   YY=    -8.4646   ZY=  -120.7659
   XZ=    58.8890   YZ=  -144.3374   ZZ=   128.4210
   Eigenvalues:  -112.7527   200.3956   222.8581
     11  O    Isotropic =  -106.6486   Anisotropy =   570.6114
   XX=  -237.1164   YX=   -86.5681   ZX=   -18.6316
   XY=   -75.8708   YY=  -148.7051   ZY=  -275.7420
   XZ=    -6.5101   YZ=  -311.3922   ZZ=    65.8759
   Eigenvalues:  -390.0268  -203.6780   273.7591
     12  C    Isotropic =   159.5942   Anisotropy =    24.6891
   XX=   167.1129   YX=     3.4778   ZX=    12.4177
   XY=     0.1424   YY=   161.3175   ZY=     7.6788
   XZ=    10.9893   YZ=    12.0099   ZZ=   150.3521
   Eigenvalues:   141.0478   161.6812   176.0536
     13  C    Isotropic =   178.0728   Anisotropy =    17.5357
   XX=   173.7877   YX=     3.0788   ZX=     2.5196
   XY=     5.4255   YY=   186.7973   ZY=     4.8944
   XZ=     3.1787   YZ=     4.2950   ZZ=   173.6335
   Eigenvalues:   170.8487   173.6065   189.7633
     14  C    Isotropic =   181.2476   Anisotropy =    11.9184
   XX=   178.5291   YX=     2.5141   ZX=     1.6539
   XY=     1.7142   YY=   180.8538   ZY=    -6.8572
   XZ=     1.7759   YZ=    -5.8388   ZZ=   184.3598
   Eigenvalues:   174.2791   180.2705   189.1931
     15  O    Isotropic =   244.8287   Anisotropy =    28.1935
   XX=   230.9047   YX=    -8.3379   ZX=     6.3873
   XY=    -6.8695   YY=   254.8880   ZY=    10.3156
   XZ=     9.8760   YZ=    12.4349   ZZ=   248.6935
   Eigenvalues:   223.4568   247.4050   263.6244
     16  Si   Isotropic =   333.5193   Anisotropy =    42.6574
   XX=   361.1003   YX=    11.6262   ZX=     4.8146
   XY=    -0.5870   YY=   323.3538   ZY=     6.7309
   XZ=    -9.6734   YZ=     2.6840   ZZ=   316.1039
   Eigenvalues:   313.3295   325.2709   361.9576
     17  C    Isotropic =   184.9201   Anisotropy =     8.9152
   XX=   187.0032   YX=     1.1106   ZX=     3.6392
   XY=     3.7718   YY=   179.1333   ZY=    -3.2829
   XZ=     1.8955   YZ=    -3.4464   ZZ=   188.6238
   Eigenvalues:   177.0273   186.8694   190.8636
     18  C    Isotropic =   185.2166   Anisotropy =    12.0446
   XX=   186.3230   YX=     2.2508   ZX=    -0.4565
   XY=     0.2145   YY=   190.6996   ZY=    -5.9218
   XZ=     0.1016   YZ=    -5.6789   ZZ=   178.6272
   Eigenvalues:   176.2832   186.1202   193.2463
     19  C    Isotropic =   187.1515   Anisotropy =    12.1913
   XX=   189.8548   YX=    -0.6392   ZX=    -3.6579
   XY=    -0.6048   YY=   187.3920   ZY=     7.6072
   XZ=    -3.6979   YZ=     7.9248   ZZ=   184.2077
   Eigenvalues:   177.3696   188.8060   195.2790
     20  H    Isotropic =    32.2569   Anisotropy =    10.4613
   XX=    37.0756   YX=     3.8531   ZX=    -1.6722
   XY=     3.5934   YY=    31.1570   ZY=    -1.0961
   XZ=    -1.5846   YZ=    -1.1642   ZZ=    28.5382
   Eigenvalues:    28.1056    29.4341    39.2311
     21  H    Isotropic =    31.9484   Anisotropy =     6.6059
   XX=    31.0598   YX=    -0.4870   ZX=    -2.4233
   XY=    -1.2699   YY=    34.6568   ZY=     2.8501
   XZ=    -2.3609   YZ=     2.0020   ZZ=    30.1285
   Eigenvalues:    27.8618    31.6310    36.3523
     22  H    Isotropic =    31.9265   Anisotropy =     7.6767
   XX=    30.6145   YX=     0.5424   ZX=     1.9906
   XY=     0.0000   YY=    29.9626   ZY=    -3.3237
   XZ=     2.1872   YZ=    -2.5881   ZZ=    35.2025
   Eigenvalues:    28.0693    30.6659    37.0443
     23  H    Isotropic =    31.9800   Anisotropy =     8.1199
   XX=    29.5123   YX=    -0.9390   ZX=    -1.6169
   XY=    -0.6378   YY=    37.2384   ZY=    -1.2620
   XZ=    -1.5630   YZ=    -0.6040   ZZ=    29.1892
   Eigenvalues:    27.5980    30.9487    37.3932
     24  H    Isotropic =    32.4228   Anisotropy =    10.3772
   XX=    38.8197   YX=     0.1813   ZX=    -2.3220
   XY=     0.4479   YY=    29.0676   ZY=     0.5734
   XZ=    -2.2199   YZ=     0.5569   ZZ=    29.3810
   Eigenvalues:    28.3347    29.5927    39.3409
     25  H    Isotropic =    31.9887   Anisotropy =     8.3831
   XX=    30.2203   YX=    -0.9273   ZX=     0.7774
   XY=    -0.6005   YY=    28.4664   ZY=     1.6224
   XZ=     1.2090   YZ=     1.0176   ZZ=    37.2794
   Eigenvalues:    27.9099    30.4787    37.5775
     26  H    Isotropic =    32.1493   Anisotropy =    10.5078
   XX=    38.3198   YX=     2.1825   ZX=     2.1150
   XY=     2.3408   YY=    28.5773   ZY=     0.1661
   XZ=     1.5210   YZ=     0.0056   ZZ=    29.5509
   Eigenvalues:    28.0019    29.2915    39.1546
     27  H    Isotropic =    31.7929   Anisotropy =     8.0019
   XX=    30.2903   YX=     0.1431   ZX=     1.4473
   XY=     0.3090   YY=    34.5950   ZY=    -3.5363
   XZ=     0.5869   YZ=    -4.6227   ZZ=    30.4935
   Eigenvalues:    27.6144    30.6368    37.1275
     28  H    Isotropic =    31.8239   Anisotropy =     6.3806
   XX=    31.5434   YX=    -1.2185   ZX=    -0.2240
   XY=    -1.3401   YY=    30.4508   ZY=     3.2828
   XZ=    -1.2162   YZ=     3.5469   ZZ=    33.4773
   Eigenvalues:    28.0862    31.3078    36.0776
     29  H    Isotropic =    30.7446   Anisotropy =     8.2660
   XX=    35.1548   YX=    -0.1469   ZX=    -1.8113
   XY=     0.2784   YY=    24.2812   ZY=    -1.2591
   XZ=    -1.9831   YZ=    -1.5021   ZZ=    32.7977
   Eigenvalues:    24.0580    31.9205    36.2552
     30  H    Isotropic =    31.4640   Anisotropy =     7.5051
   XX=    28.9655   YX=    -1.1266   ZX=     0.8515
   XY=    -1.2735   YY=    35.1572   ZY=    -2.6961
   XZ=     0.9163   YZ=    -2.2419   ZZ=    30.2693
   Eigenvalues:    28.5186    29.4061    36.4674
     31  H    Isotropic =    31.1693   Anisotropy =     9.9472
   XX=    31.4675   YX=     2.9132   ZX=     3.2110
   XY=     2.7575   YY=    26.7542   ZY=     0.7521
   XZ=     3.8124   YZ=     0.8145   ZZ=    35.2861
   Eigenvalues:    25.3501    30.3570    37.8007
     32  H    Isotropic =    30.1451   Anisotropy =     9.0071
   XX=    34.7082   YX=    -0.7470   ZX=    -2.9374
   XY=    -1.1419   YY=    27.8519   ZY=     3.5823
   XZ=    -2.4605   YZ=     2.8292   ZZ=    27.8753
   Eigenvalues:    24.4919    29.7936    36.1498
     33  H    Isotropic =    30.2957   Anisotropy =     5.0822
   XX=    31.2911   YX=    -0.3574   ZX=     2.2484
   XY=    -0.1052   YY=    30.4664   ZY=    -3.3008
   XZ=     1.6782   YZ=    -2.4529   ZZ=    29.1298
   Eigenvalues:    26.4190    30.7843    33.6839
     34  H    Isotropic =    30.9293   Anisotropy =    11.9275
   XX=    35.1310   YX=     2.5689   ZX=     4.4749
   XY=     3.3639   YY=    29.0252   ZY=     2.2870
   XZ=     4.8361   YZ=     1.9343   ZZ=    28.6317
   Eigenvalues:    26.0671    27.8398    38.8810
     35  H    Isotropic =    31.2457   Anisotropy =     8.8882
   XX=    28.9839   YX=     2.4734   ZX=     0.3542
   XY=     2.7111   YY=    34.9396   ZY=    -3.7572
   XZ=     0.2056   YZ=    -2.8595   ZZ=    29.8136
   Eigenvalues:    26.9355    29.6304    37.1712
     36  H    Isotropic =    31.2007   Anisotropy =     6.2068
   XX=    31.8188   YX=     1.0407   ZX=    -1.9552
   XY=     0.5322   YY=    30.7027   ZY=     4.5231
   XZ=    -1.9779   YZ=     3.8632   ZZ=    31.0805
   Eigenvalues:    26.0416    32.2219    35.3385
     37  C    Isotropic =   141.8812   Anisotropy =    34.3226
   XX=   122.4054   YX=     1.2435   ZX=     1.5318
   XY=     2.4700   YY=   161.4468   ZY=    -8.0708
   XZ=     2.6993   YZ=    -9.3152   ZZ=   141.7914
   Eigenvalues:   121.9624   138.9183   164.7629
     38  C    Isotropic =    47.6832   Anisotropy =   176.5328
   XX=    49.6239   YX=   -38.2523   ZX=   -77.1425
   XY=   -40.7433   YY=   -14.9228   ZY=   -57.9311
   XZ=   -77.0661   YZ=   -56.1520   ZZ=   108.3483
   Eigenvalues:   -75.7576    53.4354   165.3717
     39  C    Isotropic =    64.4744   Anisotropy =   141.9227
   XX=    76.0910   YX=   -39.3139   ZX=   -58.5577
   XY=   -41.7060   YY=     3.7345   ZY=   -54.0372
   XZ=   -56.2995   YZ=   -57.8921   ZZ=   113.5978
   Eigenvalues:   -49.7347    84.0684   159.0896
     40  H    Isotropic =    29.7471   Anisotropy =     4.0213
   XX=    30.5978   YX=     0.0973   ZX=     1.5284
   XY=     1.6565   YY=    28.8938   ZY=    -0.8413
   XZ=     2.8994   YZ=    -1.2329   ZZ=    29.7497
   Eigenvalues:    26.9639    29.8494    32.4280
     41  H    Isotropic =    29.5673   Anisotropy =     4.8919
   XX=    29.9975   YX=    -1.5410   ZX=    -1.8980
   XY=    -1.2969   YY=    27.3900   ZY=    -1.6443
   XZ=    -2.1415   YZ=    -1.5565   ZZ=    31.3145
   Eigenvalues:    25.7765    30.0969    32.8286
     42  H    Isotropic =    25.8776   Anisotropy =     7.3625
   XX=    25.5534   YX=    -0.7835   ZX=     1.0194
   XY=    -2.3503   YY=    28.8172   ZY=    -3.2295
   XZ=     0.8766   YZ=    -2.8434   ZZ=    23.2621
   Eigenvalues:    21.9073    24.9394    30.7859
     43  H    Isotropic =    26.6823   Anisotropy =     6.4868
   XX=    26.2773   YX=    -3.2700   ZX=     0.0193
   XY=    -1.5952   YY=    28.6466   ZY=    -1.7253
   XZ=     0.3673   YZ=    -3.1814   ZZ=    25.1230
   Eigenvalues:    23.4362    25.6038    31.0068
     44  H    Isotropic =    26.6997   Anisotropy =     6.4608
   XX=    27.0376   YX=    -0.9248   ZX=     0.7746
   XY=    -3.2511   YY=    26.9958   ZY=    -4.0843
   XZ=     0.3147   YZ=    -2.8726   ZZ=    26.0656
   Eigenvalues:    22.7730    26.3191    31.0069
 End of Minotr F.D. properties file   721 does not exist.
 End of Minotr F.D. properties file   722 does not exist.
 End of Minotr F.D. properties file   788 does not exist.

 **********************************************************************

            Population analysis using the SCF density.

 **********************************************************************

 Orbital symmetries:
       Occupied  (A) (A) (A) (A) (A) (A) (A) (A) (A) (A) (A) (A)
                 (A) (A) (A) (A) (A) (A) (A) (A) (A) (A) (A) (A)
                 (A) (A) (A) (A) (A) (A) (A) (A) (A) (A) (A) (A)
                 (A) (A) (A) (A) (A) (A) (A) (A) (A) (A) (A) (A)
                 (A) (A) (A) (A) (A) (A) (A) (A) (A) (A) (A) (A)
                 (A) (A) (A) (A) (A) (A) (A) (A) (A) (A) (A) (A)
                 (A) (A)
       Virtual   (A) (A) (A) (A) (A) (A) (A) (A) (A) (A) (A) (A)
                 (A) (A) (A) (A) (A) (A) (A) (A) (A) (A) (A) (A)
                 (A) (A) (A) (A) (A) (A) (A) (A) (A) (A) (A) (A)
                 (A) (A) (A) (A) (A) (A) (A) (A) (A) (A) (A) (A)
                 (A) (A) (A) (A) (A) (A) (A) (A) (A) (A) (A) (A)
                 (A) (A) (A) (A) (A) (A) (A) (A) (A) (A) (A) (A)
                 (A) (A) (A) (A) (A) (A) (A) (A) (A) (A) (A) (A)
                 (A) (A) (A) (A) (A) (A) (A) (A) (A) (A) (A) (A)
                 (A) (A) (A) (A) (A) (A) (A) (A) (A) (A) (A) (A)
                 (A) (A) (A) (A) (A) (A) (A) (A) (A) (A) (A) (A)
                 (A) (A) (A) (A) (A) (A) (A) (A) (A) (A) (A) (A)
                 (A) (A) (A) (A) (A) (A) (A) (A) (A) (A) (A) (A)
                 (A) (A) (A) (A) (A) (A) (A) (A) (A) (A) (A) (A)
                 (A) (A) (A) (A) (A) (A) (A) (A) (A) (A) (A) (A)
                 (A) (A) (A) (A) (A) (A) (A) (A) (A) (A) (A) (A)
                 (A) (A) (A) (A) (A) (A) (A) (A) (A) (A) (A) (A)
                 (A) (A) (A) (A) (A) (A) (A) (A) (A) (A) (A) (A)
                 (A) (A) (A) (A) (A) (A) (A) (A) (A) (A) (A) (A)
                 (A) (A) (A) (A) (A) (A) (A) (A) (A) (A) (A) (A)
                 (A) (A) (A) (A) (A) (A) (A) (A) (A) (A) (A) (A)
                 (A) (A) (A) (A) (A) (A) (A) (A) (A) (A) (A) (A)
                 (A) (A) (A) (A) (A) (A) (A) (A) (A) (A) (A) (A)
                 (A) (A) (A) (A) (A) (A) (A) (A) (A) (A) (A) (A)
                 (A) (A) (A) (A) (A) (A) (A) (A) (A) (A) (A) (A)
                 (A) (A) (A) (A) (A) (A) (A) (A) (A) (A) (A) (A)
                 (A) (A) (A) (A) (A) (A) (A) (A) (A) (A) (A) (A)
                 (A) (A) (A) (A) (A) (A) (A) (A) (A) (A) (A) (A)
                 (A) (A) (A) (A) (A) (A) (A) (A) (A) (A) (A) (A)
 The electronic state is 1-A.
 Alpha  occ. eigenvalues --  -66.27355 -19.25985 -19.20596 -19.19718 -10.37125
 Alpha  occ. eigenvalues --  -10.31828 -10.30575 -10.25303 -10.25248 -10.24423
 Alpha  occ. eigenvalues --  -10.24394 -10.23823 -10.22994 -10.22798 -10.22422
 Alpha  occ. eigenvalues --  -10.21008 -10.20768 -10.20570  -5.33089  -3.66977
 Alpha  occ. eigenvalues --   -3.66683  -3.66669  -1.13221  -1.04906  -1.04032
 Alpha  occ. eigenvalues --   -0.86022  -0.83151  -0.80961  -0.77421  -0.74045
 Alpha  occ. eigenvalues --   -0.73403  -0.71746  -0.70300  -0.70096  -0.67033
 Alpha  occ. eigenvalues --   -0.63456  -0.62124  -0.58612  -0.54715  -0.53404
 Alpha  occ. eigenvalues --   -0.53197  -0.51572  -0.50652  -0.48157  -0.47264
 Alpha  occ. eigenvalues --   -0.46640  -0.45572  -0.44824  -0.44255  -0.43435
 Alpha  occ. eigenvalues --   -0.42539  -0.42465  -0.42192  -0.42016  -0.40757
 Alpha  occ. eigenvalues --   -0.40704  -0.40322  -0.39788  -0.39656  -0.39205
 Alpha  occ. eigenvalues --   -0.38651  -0.37862  -0.37183  -0.36970  -0.36238
 Alpha  occ. eigenvalues --   -0.35612  -0.34206  -0.33409  -0.32160  -0.31149
 Alpha  occ. eigenvalues --   -0.30378  -0.29467  -0.28184  -0.27342
 Alpha virt. eigenvalues --    0.00009   0.01248   0.03804   0.04799   0.06449
 Alpha virt. eigenvalues --    0.06827   0.07250   0.07513   0.08296   0.08737
 Alpha virt. eigenvalues --    0.08931   0.09881   0.10762   0.10988   0.11880
 Alpha virt. eigenvalues --    0.12342   0.12556   0.13261   0.13381   0.13851
 Alpha virt. eigenvalues --    0.14061   0.14351   0.14734   0.15532   0.15905
 Alpha virt. eigenvalues --    0.16542   0.16893   0.16968   0.17729   0.18753
 Alpha virt. eigenvalues --    0.19041   0.19720   0.20132   0.20456   0.20948
 Alpha virt. eigenvalues --    0.21877   0.22415   0.23233   0.24324   0.24856
 Alpha virt. eigenvalues --    0.25660   0.25961   0.26799   0.27432   0.27825
 Alpha virt. eigenvalues --    0.29576   0.29801   0.31511   0.32073   0.32512
 Alpha virt. eigenvalues --    0.32696   0.33575   0.34654   0.35376   0.36219
 Alpha virt. eigenvalues --    0.36583   0.37672   0.38956   0.39840   0.40886
 Alpha virt. eigenvalues --    0.41318   0.42565   0.42855   0.43306   0.44707
 Alpha virt. eigenvalues --    0.44952   0.45634   0.46412   0.47453   0.48018
 Alpha virt. eigenvalues --    0.48608   0.50300   0.51000   0.51808   0.52500
 Alpha virt. eigenvalues --    0.52670   0.52870   0.54193   0.55245   0.55941
 Alpha virt. eigenvalues --    0.56150   0.57105   0.58118   0.58601   0.58867
 Alpha virt. eigenvalues --    0.59241   0.60112   0.60346   0.61004   0.61151
 Alpha virt. eigenvalues --    0.61461   0.61784   0.62241   0.63056   0.63291
 Alpha virt. eigenvalues --    0.63668   0.63931   0.64557   0.65116   0.65420
 Alpha virt. eigenvalues --    0.66406   0.67111   0.67839   0.68122   0.68520
 Alpha virt. eigenvalues --    0.68646   0.69057   0.69426   0.70934   0.71141
 Alpha virt. eigenvalues --    0.72191   0.72816   0.73253   0.74375   0.75024
 Alpha virt. eigenvalues --    0.75652   0.76527   0.77983   0.79006   0.80823
 Alpha virt. eigenvalues --    0.82113   0.84359   0.85253   0.87089   0.87784
 Alpha virt. eigenvalues --    0.88455   0.90920   0.91842   0.92932   0.94338
 Alpha virt. eigenvalues --    0.95233   0.95757   0.98295   0.98626   1.00348
 Alpha virt. eigenvalues --    1.01440   1.04437   1.05673   1.06120   1.07926
 Alpha virt. eigenvalues --    1.12404   1.16364   1.17309   1.19393   1.19443
 Alpha virt. eigenvalues --    1.20673   1.23495   1.24158   1.26098   1.27310
 Alpha virt. eigenvalues --    1.29207   1.29855   1.31123   1.31822   1.32650
 Alpha virt. eigenvalues --    1.33262   1.35472   1.37595   1.38566   1.41116
 Alpha virt. eigenvalues --    1.43097   1.43646   1.44842   1.47096   1.49308
 Alpha virt. eigenvalues --    1.50909   1.51827   1.52515   1.52860   1.53885
 Alpha virt. eigenvalues --    1.55074   1.55458   1.56257   1.56884   1.58018
 Alpha virt. eigenvalues --    1.58114   1.59438   1.59878   1.60122   1.60659
 Alpha virt. eigenvalues --    1.60889   1.61794   1.61983   1.63338   1.63852
 Alpha virt. eigenvalues --    1.64440   1.64930   1.66642   1.67530   1.68357
 Alpha virt. eigenvalues --    1.70963   1.71568   1.72439   1.72865   1.73546
 Alpha virt. eigenvalues --    1.75266   1.75493   1.77813   1.79512   1.80627
 Alpha virt. eigenvalues --    1.81472   1.82946   1.84746   1.85084   1.87719
 Alpha virt. eigenvalues --    1.89339   1.91776   1.93852   1.95439   1.97293
 Alpha virt. eigenvalues --    2.01258   2.03295   2.05947   2.09263   2.12212
 Alpha virt. eigenvalues --    2.14135   2.16610   2.21026   2.23435   2.24423
 Alpha virt. eigenvalues --    2.28402   2.29187   2.33878   2.35170   2.40359
 Alpha virt. eigenvalues --    2.41814   2.42119   2.42422   2.43074   2.44040
 Alpha virt. eigenvalues --    2.44466   2.45237   2.45766   2.47063   2.47684
 Alpha virt. eigenvalues --    2.48223   2.48864   2.50134   2.50895   2.52796
 Alpha virt. eigenvalues --    2.53477   2.53632   2.55541   2.58415   2.59319
 Alpha virt. eigenvalues --    2.61891   2.62801   2.66377   2.72061   2.80644
 Alpha virt. eigenvalues --    2.81073   2.86690   2.88241   2.89667   2.90933
 Alpha virt. eigenvalues --    2.91896   2.92838   2.93702   2.95929   2.96454
 Alpha virt. eigenvalues --    2.99343   3.01149   3.01989   3.03588   3.08073
 Alpha virt. eigenvalues --    3.09453   3.11081   3.12137   3.13646   3.15124
 Alpha virt. eigenvalues --    3.15836   3.17077   3.18046   3.19358   3.20592
 Alpha virt. eigenvalues --    3.21701   3.22403   3.23327   3.23647   3.24970
 Alpha virt. eigenvalues --    3.26136   3.27112   3.28444   3.29566   3.34243
 Alpha virt. eigenvalues --    3.34955   3.35736   3.36636   3.40671   3.41681
 Alpha virt. eigenvalues --    3.44254   3.50861   3.57022   3.60023   3.60311
 Alpha virt. eigenvalues --    3.77825   3.87879   3.90085   3.99516   4.02239
 Alpha virt. eigenvalues --    4.08112   4.14810   4.19616   4.22375   4.24490
 Alpha virt. eigenvalues --    4.94222   4.99799   5.01501   5.12444   5.14487
 Alpha virt. eigenvalues --    5.23077   5.52556   5.56133   5.76213   5.84997
 Alpha virt. eigenvalues --   11.52350  11.53598  11.56403  23.41091  23.48688
 Alpha virt. eigenvalues --   23.54301  23.54880  23.56994  23.60590  23.71147
 Alpha virt. eigenvalues --   23.75410  23.77547  23.79117  23.81200  23.86999
 Alpha virt. eigenvalues --   23.87884  24.29279  49.98752  50.06710  50.13254
 Alpha virt. eigenvalues --  141.27049
          Condensed to atoms (all electrons):
               1          2          3          4          5          6
     1  C    5.240275   0.224234  -0.061299  -0.002548  -0.051631   0.398201
     2  C    0.224234   5.649050   0.297407  -0.084673  -0.014774  -0.053264
     3  C   -0.061299   0.297407   5.150540   0.227879  -0.015643  -0.014675
     4  C   -0.002548  -0.084673   0.227879   5.905788   0.232336   0.002809
     5  C   -0.051631  -0.014774  -0.015643   0.232336   4.390225  -0.002404
     6  H    0.398201  -0.053264  -0.014675   0.002809  -0.002404   0.480047
     7  H   -0.028919   0.387982  -0.042892   0.008795   0.000281  -0.001840
     8  H    0.002027  -0.008295  -0.030648   0.370772  -0.022606  -0.000297
     9  H   -0.000656   0.006824  -0.026800   0.357581  -0.023555   0.000205
    10  O    0.215208  -0.039833   0.006144  -0.107126   0.349998  -0.032502
    11  O    0.002317  -0.000460   0.004289  -0.097434   0.670041   0.000020
    12  C    0.343520  -0.054485   0.008964  -0.001623   0.003274  -0.048827
    13  C   -0.076591   0.003376  -0.000517   0.000105  -0.000130   0.002007
    14  C   -0.075061   0.287055  -0.073598  -0.010482   0.001140   0.007358
    15  O    0.003538  -0.060059   0.223779  -0.024427   0.001962  -0.000057
    16  Si   0.000260   0.001322  -0.047455  -0.009449   0.001189  -0.000109
    17  C    0.000008  -0.000277   0.000589  -0.000447   0.000036   0.000001
    18  C    0.000002  -0.000054  -0.000160   0.001168   0.000040   0.000001
    19  C   -0.000002   0.000016   0.002471  -0.000136   0.000001   0.000000
    20  H    0.000000   0.000001  -0.000042   0.000149  -0.000001   0.000000
    21  H    0.000002   0.000007   0.000095   0.001269  -0.000004   0.000001
    22  H   -0.000001   0.000073   0.000430  -0.000004  -0.000031   0.000000
    23  H   -0.000001  -0.000009  -0.000119  -0.000015   0.000000   0.000000
    24  H    0.000000   0.000002  -0.000066  -0.000002   0.000000   0.000000
    25  H   -0.000001   0.000074  -0.000150  -0.000045   0.000000   0.000000
    26  H    0.000000   0.000006  -0.000060   0.000031   0.000000   0.000000
    27  H    0.000003  -0.000082  -0.000365   0.000191   0.000003   0.000000
    28  H    0.000005  -0.000075   0.000531   0.000853  -0.000018  -0.000002
    29  H    0.006317  -0.037480  -0.005800  -0.000349  -0.000119  -0.000146
    30  H   -0.005297  -0.042395  -0.010185   0.005686  -0.000770   0.000660
    31  H   -0.006009  -0.031979   0.006897  -0.000407  -0.000075  -0.000322
    32  H   -0.050056   0.009657  -0.000200   0.000324  -0.000110  -0.007183
    33  H   -0.039693  -0.014037  -0.000509   0.000172  -0.000047   0.007432
    34  H    0.007585  -0.000178   0.000012  -0.000002   0.000004  -0.000277
    35  H   -0.001868  -0.002327  -0.000119  -0.000001  -0.000007   0.005393
    36  H   -0.009234   0.004799   0.000151  -0.000012   0.000003  -0.000492
    37  C    0.002523  -0.098169   0.315413  -0.108323   0.001870   0.005385
    38  C   -0.002561  -0.004433  -0.067825   0.008456  -0.000166  -0.001291
    39  C    0.000025   0.000198  -0.000638  -0.000155   0.000007   0.000118
    40  H   -0.000369   0.008256  -0.033089  -0.007480  -0.000116   0.000484
    41  H    0.000821  -0.004798  -0.040577  -0.003132   0.002807  -0.002470
    42  H   -0.001045   0.004847  -0.005257  -0.000361  -0.000017   0.001487
    43  H    0.000004   0.000006  -0.000261   0.000015   0.000000  -0.000004
    44  H   -0.000011   0.000037   0.000208  -0.000095   0.000000   0.000002
               7          8          9         10         11         12
     1  C   -0.028919   0.002027  -0.000656   0.215208   0.002317   0.343520
     2  C    0.387982  -0.008295   0.006824  -0.039833  -0.000460  -0.054485
     3  C   -0.042892  -0.030648  -0.026800   0.006144   0.004289   0.008964
     4  C    0.008795   0.370772   0.357581  -0.107126  -0.097434  -0.001623
     5  C    0.000281  -0.022606  -0.023555   0.349998   0.670041   0.003274
     6  H   -0.001840  -0.000297   0.000205  -0.032502   0.000020  -0.048827
     7  H    0.450738  -0.000171  -0.000062   0.003045   0.000020  -0.007538
     8  H   -0.000171   0.398056  -0.015303   0.000281   0.001866   0.000075
     9  H   -0.000062  -0.015303   0.417634   0.004569   0.011182   0.000026
    10  O    0.003045   0.000281   0.004569   8.037889  -0.076973  -0.051868
    11  O    0.000020   0.001866   0.011182  -0.076973   7.866859  -0.000178
    12  C   -0.007538   0.000075   0.000026  -0.051868  -0.000178   5.312606
    13  C    0.001527  -0.000016  -0.000001   0.004071   0.000001   0.283739
    14  C   -0.033565   0.000336   0.000045  -0.000541  -0.000019  -0.009425
    15  O    0.004255  -0.002121  -0.001397  -0.000018  -0.000018  -0.000055
    16  Si   0.000049  -0.004893  -0.000956  -0.000319  -0.000768   0.000027
    17  C    0.000006   0.000141   0.001897   0.000000   0.000003   0.000000
    18  C    0.000036  -0.001622  -0.000065   0.000000   0.000005   0.000000
    19  C   -0.000047  -0.000090  -0.000010   0.000000   0.000000   0.000000
    20  H    0.000000   0.000295   0.000003   0.000000   0.000000   0.000000
    21  H    0.000006   0.000255   0.000431   0.000002   0.000005   0.000000
    22  H    0.000006  -0.000064   0.000028   0.000000   0.000002   0.000000
    23  H    0.000002  -0.000008  -0.000005   0.000000   0.000000   0.000000
    24  H    0.000000   0.000002  -0.000002   0.000000   0.000000   0.000000
    25  H   -0.000017  -0.000018  -0.000006   0.000000   0.000000   0.000000
    26  H    0.000000   0.000004   0.000006   0.000000   0.000000   0.000000
    27  H    0.000004   0.000007  -0.000129   0.000000   0.000000   0.000000
    28  H    0.000000  -0.000080   0.002295   0.000000  -0.000021   0.000000
    29  H   -0.001717   0.000498  -0.000149  -0.000134   0.000005   0.000251
    30  H    0.006576  -0.001156   0.000409   0.007522  -0.000373  -0.004369
    31  H   -0.007385   0.000248   0.000016  -0.000035   0.000000   0.001327
    32  H   -0.000318   0.000011  -0.000012   0.004642  -0.000030   0.403287
    33  H    0.000130  -0.000094   0.000004   0.003146  -0.000039   0.390048
    34  H    0.000202   0.000000   0.000000  -0.000124   0.000000  -0.033076
    35  H   -0.000275   0.000000   0.000000  -0.000047   0.000000  -0.042168
    36  H   -0.000322   0.000000   0.000000  -0.000056   0.000000  -0.033046
    37  C   -0.009876   0.005992  -0.006287  -0.004031  -0.000017  -0.000334
    38  C    0.006091  -0.000172   0.000104   0.000308  -0.000002   0.000007
    39  C    0.000760   0.000004   0.000009   0.000001   0.000000   0.000002
    40  H   -0.000287  -0.000112   0.003056  -0.000190  -0.000030  -0.000003
    41  H    0.000878   0.000139  -0.000140   0.001415  -0.000090   0.000948
    42  H    0.000868   0.000012  -0.000010   0.000003   0.000000  -0.000122
    43  H    0.000036  -0.000001   0.000002   0.000000   0.000000   0.000000
    44  H   -0.000028   0.000004  -0.000017   0.000000   0.000000   0.000000
              13         14         15         16         17         18
     1  C   -0.076591  -0.075061   0.003538   0.000260   0.000008   0.000002
     2  C    0.003376   0.287055  -0.060059   0.001322  -0.000277  -0.000054
     3  C   -0.000517  -0.073598   0.223779  -0.047455   0.000589  -0.000160
     4  C    0.000105  -0.010482  -0.024427  -0.009449  -0.000447   0.001168
     5  C   -0.000130   0.001140   0.001962   0.001189   0.000036   0.000040
     6  H    0.002007   0.007358  -0.000057  -0.000109   0.000001   0.000001
     7  H    0.001527  -0.033565   0.004255   0.000049   0.000006   0.000036
     8  H   -0.000016   0.000336  -0.002121  -0.004893   0.000141  -0.001622
     9  H   -0.000001   0.000045  -0.001397  -0.000956   0.001897  -0.000065
    10  O    0.004071  -0.000541  -0.000018  -0.000319   0.000000   0.000000
    11  O    0.000001  -0.000019  -0.000018  -0.000768   0.000003   0.000005
    12  C    0.283739  -0.009425  -0.000055   0.000027   0.000000   0.000000
    13  C    5.375348  -0.002361  -0.000001  -0.000006   0.000000   0.000000
    14  C   -0.002361   5.427986  -0.006408  -0.000202  -0.000001   0.000008
    15  O   -0.000001  -0.006408   8.276103   0.355082  -0.022838  -0.024658
    16  Si  -0.000006  -0.000202   0.355082  11.511284   0.310800   0.311033
    17  C    0.000000  -0.000001  -0.022838   0.310800   5.797107  -0.055622
    18  C    0.000000   0.000008  -0.024658   0.311033  -0.055622   5.777637
    19  C    0.000000  -0.000050  -0.030588   0.337133  -0.043155  -0.047238
    20  H    0.000000   0.000001   0.000887  -0.011034   0.000625   0.362030
    21  H    0.000000   0.000004  -0.001576  -0.027812  -0.000901   0.371732
    22  H    0.000000   0.000255  -0.002443  -0.026927   0.002075   0.371423
    23  H    0.000000   0.000000  -0.001765  -0.023281  -0.000891   0.002123
    24  H    0.000000  -0.000002   0.001206  -0.015266   0.000137   0.000875
    25  H    0.000000   0.000024  -0.001659  -0.024160   0.002112  -0.000577
    26  H    0.000000   0.000000   0.000827  -0.010438   0.363033   0.000344
    27  H    0.000000   0.000002  -0.001981  -0.025357   0.366537   0.002079
    28  H    0.000000   0.000002  -0.001297  -0.026185   0.368401  -0.000800
    29  H   -0.000094   0.385249   0.007974   0.001907   0.000052   0.000399
    30  H    0.000688   0.389004   0.000229  -0.000637   0.000003   0.000119
    31  H   -0.000178   0.388501   0.000172   0.000164   0.000000  -0.000004
    32  H   -0.036060  -0.000498   0.000004   0.000002   0.000000   0.000000
    33  H   -0.035204   0.006412  -0.000003  -0.000003   0.000000   0.000000
    34  H    0.389595  -0.000043   0.000000   0.000000   0.000000   0.000000
    35  H    0.384168   0.000468   0.000000   0.000000   0.000000   0.000000
    36  H    0.382873  -0.000010  -0.000015  -0.000007   0.000000   0.000000
    37  C    0.000018   0.008423  -0.062241  -0.014356  -0.000554  -0.000388
    38  C   -0.000023  -0.000266   0.004327   0.001461   0.000031   0.000029
    39  C    0.000002  -0.000008  -0.000089   0.000551  -0.001208  -0.000003
    40  H    0.000000  -0.000126  -0.003174  -0.003589  -0.002888  -0.000209
    41  H   -0.000061  -0.000442   0.004262   0.002195  -0.000071   0.000023
    42  H    0.000384   0.000338   0.000125  -0.000228  -0.000013   0.000000
    43  H    0.000000  -0.000002   0.000032   0.000183   0.000034   0.000000
    44  H    0.000000   0.000002   0.000076  -0.000959   0.000702   0.000007
              19         20         21         22         23         24
     1  C   -0.000002   0.000000   0.000002  -0.000001  -0.000001   0.000000
     2  C    0.000016   0.000001   0.000007   0.000073  -0.000009   0.000002
     3  C    0.002471  -0.000042   0.000095   0.000430  -0.000119  -0.000066
     4  C   -0.000136   0.000149   0.001269  -0.000004  -0.000015  -0.000002
     5  C    0.000001  -0.000001  -0.000004  -0.000031   0.000000   0.000000
     6  H    0.000000   0.000000   0.000001   0.000000   0.000000   0.000000
     7  H   -0.000047   0.000000   0.000006   0.000006   0.000002   0.000000
     8  H   -0.000090   0.000295   0.000255  -0.000064  -0.000008   0.000002
     9  H   -0.000010   0.000003   0.000431   0.000028  -0.000005  -0.000002
    10  O    0.000000   0.000000   0.000002   0.000000   0.000000   0.000000
    11  O    0.000000   0.000000   0.000005   0.000002   0.000000   0.000000
    12  C    0.000000   0.000000   0.000000   0.000000   0.000000   0.000000
    13  C    0.000000   0.000000   0.000000   0.000000   0.000000   0.000000
    14  C   -0.000050   0.000001   0.000004   0.000255   0.000000  -0.000002
    15  O   -0.030588   0.000887  -0.001576  -0.002443  -0.001765   0.001206
    16  Si   0.337133  -0.011034  -0.027812  -0.026927  -0.023281  -0.015266
    17  C   -0.043155   0.000625  -0.000901   0.002075  -0.000891   0.000137
    18  C   -0.047238   0.362030   0.371732   0.371423   0.002123   0.000875
    19  C    5.720811  -0.000618   0.002216  -0.000452   0.368923   0.360877
    20  H   -0.000618   0.451505  -0.022791  -0.021208  -0.000034   0.000697
    21  H    0.002216  -0.022791   0.452678  -0.019752  -0.000091  -0.000058
    22  H   -0.000452  -0.021208  -0.019752   0.451143  -0.000070  -0.000003
    23  H    0.368923  -0.000034  -0.000091  -0.000070   0.450837  -0.021482
    24  H    0.360877   0.000697  -0.000058  -0.000003  -0.021482   0.462877
    25  H    0.370144  -0.000094  -0.000070   0.001117  -0.019469  -0.021901
    26  H   -0.000485   0.000447   0.000054  -0.000046  -0.000022   0.000592
    27  H   -0.000577  -0.000050  -0.000043  -0.000086   0.001193  -0.000080
    28  H    0.002374  -0.000009   0.001060  -0.000062  -0.000065  -0.000055
    29  H    0.000068   0.000009  -0.000022   0.000809  -0.000034  -0.000007
    30  H    0.000003  -0.000004   0.000010   0.000054  -0.000001   0.000000
    31  H   -0.000001   0.000000  -0.000003  -0.000009   0.000001   0.000000
    32  H    0.000000   0.000000   0.000000   0.000000   0.000000   0.000000
    33  H    0.000000   0.000000   0.000000   0.000000   0.000000   0.000000
    34  H    0.000000   0.000000   0.000000   0.000000   0.000000   0.000000
    35  H    0.000000   0.000000   0.000000   0.000000   0.000000   0.000000
    36  H    0.000000   0.000000   0.000000   0.000000   0.000000   0.000000
    37  C   -0.000113   0.000005  -0.000062  -0.000058   0.000059   0.000002
    38  C   -0.000237   0.000000   0.000002   0.000003   0.000477  -0.000002
    39  C   -0.000156   0.000000   0.000000   0.000000   0.000883  -0.000011
    40  H   -0.000005   0.000002  -0.000055  -0.000004  -0.000006   0.000003
    41  H   -0.000002   0.000000   0.000010   0.000005   0.000003   0.000000
    42  H    0.000004   0.000000   0.000000   0.000000  -0.000007   0.000000
    43  H    0.000000   0.000000   0.000000   0.000000   0.000019   0.000000
    44  H    0.000025   0.000000   0.000000  -0.000001  -0.000009   0.000000
              25         26         27         28         29         30
     1  C   -0.000001   0.000000   0.000003   0.000005   0.006317  -0.005297
     2  C    0.000074   0.000006  -0.000082  -0.000075  -0.037480  -0.042395
     3  C   -0.000150  -0.000060  -0.000365   0.000531  -0.005800  -0.010185
     4  C   -0.000045   0.000031   0.000191   0.000853  -0.000349   0.005686
     5  C    0.000000   0.000000   0.000003  -0.000018  -0.000119  -0.000770
     6  H    0.000000   0.000000   0.000000  -0.000002  -0.000146   0.000660
     7  H   -0.000017   0.000000   0.000004   0.000000  -0.001717   0.006576
     8  H   -0.000018   0.000004   0.000007  -0.000080   0.000498  -0.001156
     9  H   -0.000006   0.000006  -0.000129   0.002295  -0.000149   0.000409
    10  O    0.000000   0.000000   0.000000   0.000000  -0.000134   0.007522
    11  O    0.000000   0.000000   0.000000  -0.000021   0.000005  -0.000373
    12  C    0.000000   0.000000   0.000000   0.000000   0.000251  -0.004369
    13  C    0.000000   0.000000   0.000000   0.000000  -0.000094   0.000688
    14  C    0.000024   0.000000   0.000002   0.000002   0.385249   0.389004
    15  O   -0.001659   0.000827  -0.001981  -0.001297   0.007974   0.000229
    16  Si  -0.024160  -0.010438  -0.025357  -0.026185   0.001907  -0.000637
    17  C    0.002112   0.363033   0.366537   0.368401   0.000052   0.000003
    18  C   -0.000577   0.000344   0.002079  -0.000800   0.000399   0.000119
    19  C    0.370144  -0.000485  -0.000577   0.002374   0.000068   0.000003
    20  H   -0.000094   0.000447  -0.000050  -0.000009   0.000009  -0.000004
    21  H   -0.000070   0.000054  -0.000043   0.001060  -0.000022   0.000010
    22  H    0.001117  -0.000046  -0.000086  -0.000062   0.000809   0.000054
    23  H   -0.019469  -0.000022   0.001193  -0.000065  -0.000034  -0.000001
    24  H   -0.021901   0.000592  -0.000080  -0.000055  -0.000007   0.000000
    25  H    0.454527  -0.000088  -0.000054  -0.000083   0.000291  -0.000006
    26  H   -0.000088   0.445157  -0.020848  -0.021323   0.000000   0.000000
    27  H   -0.000054  -0.020848   0.442995  -0.019818   0.000001   0.000000
    28  H   -0.000083  -0.021323  -0.019818   0.449671   0.000005  -0.000002
    29  H    0.000291   0.000000   0.000001   0.000005   0.422352  -0.023472
    30  H   -0.000006   0.000000   0.000000  -0.000002  -0.023472   0.472473
    31  H    0.000000   0.000000   0.000000   0.000000  -0.023595  -0.027601
    32  H    0.000000   0.000000   0.000000   0.000000   0.000021  -0.000298
    33  H    0.000000   0.000000   0.000000   0.000000   0.000215   0.001493
    34  H    0.000000   0.000000   0.000000   0.000000  -0.000004   0.000005
    35  H    0.000000   0.000000   0.000000   0.000000   0.000009  -0.000001
    36  H    0.000000   0.000000   0.000000   0.000000  -0.000046  -0.000126
    37  C   -0.000022   0.000217   0.000335  -0.000387   0.000362  -0.000033
    38  C   -0.000018  -0.000021   0.000269   0.000192   0.000036  -0.000041
    39  C   -0.000009   0.000019   0.002104  -0.000022  -0.000010   0.000000
    40  H   -0.000002   0.000448  -0.001100   0.000832  -0.000032   0.000011
    41  H    0.000001  -0.000004   0.000008  -0.000097  -0.000035  -0.000037
    42  H    0.000000   0.000001   0.000008   0.000001   0.000011  -0.000006
    43  H    0.000000  -0.000001  -0.000016  -0.000003   0.000000   0.000000
    44  H   -0.000004   0.000019   0.003964  -0.000036   0.000000   0.000000
              31         32         33         34         35         36
     1  C   -0.006009  -0.050056  -0.039693   0.007585  -0.001868  -0.009234
     2  C   -0.031979   0.009657  -0.014037  -0.000178  -0.002327   0.004799
     3  C    0.006897  -0.000200  -0.000509   0.000012  -0.000119   0.000151
     4  C   -0.000407   0.000324   0.000172  -0.000002  -0.000001  -0.000012
     5  C   -0.000075  -0.000110  -0.000047   0.000004  -0.000007   0.000003
     6  H   -0.000322  -0.007183   0.007432  -0.000277   0.005393  -0.000492
     7  H   -0.007385  -0.000318   0.000130   0.000202  -0.000275  -0.000322
     8  H    0.000248   0.000011  -0.000094   0.000000   0.000000   0.000000
     9  H    0.000016  -0.000012   0.000004   0.000000   0.000000   0.000000
    10  O   -0.000035   0.004642   0.003146  -0.000124  -0.000047  -0.000056
    11  O    0.000000  -0.000030  -0.000039   0.000000   0.000000   0.000000
    12  C    0.001327   0.403287   0.390048  -0.033076  -0.042168  -0.033046
    13  C   -0.000178  -0.036060  -0.035204   0.389595   0.384168   0.382873
    14  C    0.388501  -0.000498   0.006412  -0.000043   0.000468  -0.000010
    15  O    0.000172   0.000004  -0.000003   0.000000   0.000000  -0.000015
    16  Si   0.000164   0.000002  -0.000003   0.000000   0.000000  -0.000007
    17  C    0.000000   0.000000   0.000000   0.000000   0.000000   0.000000
    18  C   -0.000004   0.000000   0.000000   0.000000   0.000000   0.000000
    19  C   -0.000001   0.000000   0.000000   0.000000   0.000000   0.000000
    20  H    0.000000   0.000000   0.000000   0.000000   0.000000   0.000000
    21  H   -0.000003   0.000000   0.000000   0.000000   0.000000   0.000000
    22  H   -0.000009   0.000000   0.000000   0.000000   0.000000   0.000000
    23  H    0.000001   0.000000   0.000000   0.000000   0.000000   0.000000
    24  H    0.000000   0.000000   0.000000   0.000000   0.000000   0.000000
    25  H    0.000000   0.000000   0.000000   0.000000   0.000000   0.000000
    26  H    0.000000   0.000000   0.000000   0.000000   0.000000   0.000000
    27  H    0.000000   0.000000   0.000000   0.000000   0.000000   0.000000
    28  H    0.000000   0.000000   0.000000   0.000000   0.000000   0.000000
    29  H   -0.023595   0.000021   0.000215  -0.000004   0.000009  -0.000046
    30  H   -0.027601  -0.000298   0.001493   0.000005  -0.000001  -0.000126
    31  H    0.455304   0.000245  -0.001908   0.000001  -0.000084   0.003225
    32  H    0.000245   0.468053  -0.030481  -0.005582  -0.004513   0.005937
    33  H   -0.001908  -0.030481   0.473535  -0.004056   0.006666  -0.005314
    34  H    0.000001  -0.005582  -0.004056   0.458640  -0.025612  -0.026189
    35  H   -0.000084  -0.004513   0.006666  -0.025612   0.477263  -0.027641
    36  H    0.003225   0.005937  -0.005314  -0.026189  -0.027641   0.472117
    37  C   -0.000146   0.000010  -0.000004   0.000000  -0.000048   0.000007
    38  C   -0.000007  -0.000001  -0.000010   0.000000   0.000052  -0.000014
    39  C    0.000000   0.000000   0.000000   0.000000   0.000002   0.000000
    40  H    0.000014  -0.000003   0.000003   0.000000   0.000003   0.000001
    41  H   -0.000014  -0.000011  -0.000040   0.000003  -0.000068   0.000002
    42  H    0.000014  -0.000007   0.000011  -0.000010   0.000520   0.000044
    43  H    0.000000   0.000000   0.000000   0.000000  -0.000001   0.000000
    44  H    0.000000   0.000000   0.000000   0.000000   0.000000   0.000000
              37         38         39         40         41         42
     1  C    0.002523  -0.002561   0.000025  -0.000369   0.000821  -0.001045
     2  C   -0.098169  -0.004433   0.000198   0.008256  -0.004798   0.004847
     3  C    0.315413  -0.067825  -0.000638  -0.033089  -0.040577  -0.005257
     4  C   -0.108323   0.008456  -0.000155  -0.007480  -0.003132  -0.000361
     5  C    0.001870  -0.000166   0.000007  -0.000116   0.002807  -0.000017
     6  H    0.005385  -0.001291   0.000118   0.000484  -0.002470   0.001487
     7  H   -0.009876   0.006091   0.000760  -0.000287   0.000878   0.000868
     8  H    0.005992  -0.000172   0.000004  -0.000112   0.000139   0.000012
     9  H   -0.006287   0.000104   0.000009   0.003056  -0.000140  -0.000010
    10  O   -0.004031   0.000308   0.000001  -0.000190   0.001415   0.000003
    11  O   -0.000017  -0.000002   0.000000  -0.000030  -0.000090   0.000000
    12  C   -0.000334   0.000007   0.000002  -0.000003   0.000948  -0.000122
    13  C    0.000018  -0.000023   0.000002   0.000000  -0.000061   0.000384
    14  C    0.008423  -0.000266  -0.000008  -0.000126  -0.000442   0.000338
    15  O   -0.062241   0.004327  -0.000089  -0.003174   0.004262   0.000125
    16  Si  -0.014356   0.001461   0.000551  -0.003589   0.002195  -0.000228
    17  C   -0.000554   0.000031  -0.001208  -0.002888  -0.000071  -0.000013
    18  C   -0.000388   0.000029  -0.000003  -0.000209   0.000023   0.000000
    19  C   -0.000113  -0.000237  -0.000156  -0.000005  -0.000002   0.000004
    20  H    0.000005   0.000000   0.000000   0.000002   0.000000   0.000000
    21  H   -0.000062   0.000002   0.000000  -0.000055   0.000010   0.000000
    22  H   -0.000058   0.000003   0.000000  -0.000004   0.000005   0.000000
    23  H    0.000059   0.000477   0.000883  -0.000006   0.000003  -0.000007
    24  H    0.000002  -0.000002  -0.000011   0.000003   0.000000   0.000000
    25  H   -0.000022  -0.000018  -0.000009  -0.000002   0.000001   0.000000
    26  H    0.000217  -0.000021   0.000019   0.000448  -0.000004   0.000001
    27  H    0.000335   0.000269   0.002104  -0.001100   0.000008   0.000008
    28  H   -0.000387   0.000192  -0.000022   0.000832  -0.000097   0.000001
    29  H    0.000362   0.000036  -0.000010  -0.000032  -0.000035   0.000011
    30  H   -0.000033  -0.000041   0.000000   0.000011  -0.000037  -0.000006
    31  H   -0.000146  -0.000007   0.000000   0.000014  -0.000014   0.000014
    32  H    0.000010  -0.000001   0.000000  -0.000003  -0.000011  -0.000007
    33  H   -0.000004  -0.000010   0.000000   0.000003  -0.000040   0.000011
    34  H    0.000000   0.000000   0.000000   0.000000   0.000003  -0.000010
    35  H   -0.000048   0.000052   0.000002   0.000003  -0.000068   0.000520
    36  H    0.000007  -0.000014   0.000000   0.000001   0.000002   0.000044
    37  C    5.497395   0.319358  -0.048919   0.396579   0.381227  -0.049560
    38  C    0.319358   5.010855   0.642401  -0.046441  -0.035128   0.391614
    39  C   -0.048919   0.642401   5.129907   0.000517  -0.002201  -0.036554
    40  H    0.396579  -0.046441   0.000517   0.444437  -0.025962   0.004908
    41  H    0.381227  -0.035128  -0.002201  -0.025962   0.465367  -0.001298
    42  H   -0.049560   0.391614  -0.036554   0.004908  -0.001298   0.474595
    43  H    0.006434  -0.036987   0.392613   0.000088  -0.000296  -0.008547
    44  H   -0.009744  -0.041901   0.385570   0.004642   0.000078   0.006283
              43         44
     1  C    0.000004  -0.000011
     2  C    0.000006   0.000037
     3  C   -0.000261   0.000208
     4  C    0.000015  -0.000095
     5  C    0.000000   0.000000
     6  H   -0.000004   0.000002
     7  H    0.000036  -0.000028
     8  H   -0.000001   0.000004
     9  H    0.000002  -0.000017
    10  O    0.000000   0.000000
    11  O    0.000000   0.000000
    12  C    0.000000   0.000000
    13  C    0.000000   0.000000
    14  C   -0.000002   0.000002
    15  O    0.000032   0.000076
    16  Si   0.000183  -0.000959
    17  C    0.000034   0.000702
    18  C    0.000000   0.000007
    19  C    0.000000   0.000025
    20  H    0.000000   0.000000
    21  H    0.000000   0.000000
    22  H    0.000000  -0.000001
    23  H    0.000019  -0.000009
    24  H    0.000000   0.000000
    25  H    0.000000  -0.000004
    26  H   -0.000001   0.000019
    27  H   -0.000016   0.003964
    28  H   -0.000003  -0.000036
    29  H    0.000000   0.000000
    30  H    0.000000   0.000000
    31  H    0.000000   0.000000
    32  H    0.000000   0.000000
    33  H    0.000000   0.000000
    34  H    0.000000   0.000000
    35  H   -0.000001   0.000000
    36  H    0.000000   0.000000
    37  C    0.006434  -0.009744
    38  C   -0.036987  -0.041901
    39  C    0.392613   0.385570
    40  H    0.000088   0.004642
    41  H   -0.000296   0.000078
    42  H   -0.008547   0.006283
    43  H    0.454274  -0.034163
    44  H   -0.034163   0.459383
 Mulliken charges:
               1
     1  C   -0.034022
     2  C   -0.333097
     3  C    0.233151
     4  C   -0.665654
     5  C    0.477007
     6  H    0.254551
     7  H    0.262965
     8  H    0.306741
     9  H    0.269235
    10  O   -0.324447
    11  O   -0.380162
    12  C   -0.460985
    13  C   -0.676660
    14  C   -0.689500
    15  O   -0.635953
    16  Si   1.439752
    17  C   -1.085466
    18  C   -1.069714
    19  C   -1.041101
    20  H    0.239227
    21  H    0.243400
    22  H    0.243798
    23  H    0.242863
    24  H    0.231666
    25  H    0.240161
    26  H    0.242132
    27  H    0.250882
    28  H    0.244215
    29  H    0.266403
    30  H    0.231862
    31  H    0.243634
    32  H    0.243171
    33  H    0.242174
    34  H    0.239107
    35  H    0.230236
    36  H    0.233366
    37  C   -0.527942
    38  C   -0.148527
    39  C   -0.465712
    40  H    0.260988
    41  H    0.256779
    42  H    0.216966
    43  H    0.226546
    44  H    0.225964
 Sum of Mulliken charges =   0.00000
 Mulliken charges with hydrogens summed into heavy atoms:
               1
     1  C    0.220529
     2  C   -0.070132
     3  C    0.233151
     4  C   -0.089678
     5  C    0.477007
    10  O   -0.324447
    11  O   -0.380162
    12  C    0.024360
    13  C    0.026049
    14  C    0.052398
    15  O   -0.635953
    16  Si   1.439752
    17  C   -0.348237
    18  C   -0.343289
    19  C   -0.326411
    37  C   -0.010175
    38  C    0.068439
    39  C   -0.013202
 Electronic spatial extent (au):  <R**2>=           5522.0763
 Charge=              0.0000 electrons
 Dipole moment (field-independent basis, Debye):
    X=             -1.8155    Y=              3.7026    Z=              2.1987  Tot=              4.6733
 Quadrupole moment (field-independent basis, Debye-Ang):
   XX=           -114.6852   YY=           -129.8094   ZZ=           -122.8706
   XY=             13.3892   XZ=              9.1214   YZ=             -9.0279
 Traceless Quadrupole moment (field-independent basis, Debye-Ang):
   XX=              7.7699   YY=             -7.3543   ZZ=             -0.4155
   XY=             13.3892   XZ=              9.1214   YZ=             -9.0279
 Octapole moment (field-independent basis, Debye-Ang**2):
  XXX=             -1.9990  YYY=             39.9717  ZZZ=             11.2174  XYY=            -21.9445
  XXY=             21.1875  XXZ=             15.9928  XZZ=             -1.9692  YZZ=              7.2282
  YYZ=             24.1493  XYZ=            -12.6500
 Hexadecapole moment (field-independent basis, Debye-Ang**3):
 XXXX=          -4260.4802 YYYY=          -1862.0848 ZZZZ=          -1274.6137 XXXY=             83.3578
 XXXZ=             36.2960 YYYX=             27.6094 YYYZ=            -67.9111 ZZZX=              9.2961
 ZZZY=              8.3666 XXYY=          -1098.5432 XXZZ=           -964.2583 YYZZ=           -577.9806
 XXYZ=            -40.9532 YYXZ=             70.0723 ZZXY=             21.9670
 N-N= 1.625903610175D+03 E-N=-5.746894015365D+03  KE= 1.060527650822D+03
 1\1\GINC-CPU-E-611\SP\RmPW1PW91\6-311G(d)\C14H26O3Si1\KE291\06-Feb-201
 9\0\\# mPW1PW91/6-311g(d) geom=checkpoint nmr=giao scrf=(solvent=chlor
 oform)\\P_ng_3ginp008\\0,1\C,0,-0.1463011916,0.5698816957,-0.340602917
 3\C,0,-1.4511699377,0.1069420213,0.3252605196\C,0,-1.6682259268,0.9084
 424139,1.6420564159\C,0,-1.7717893493,2.3954366929,1.2597617483\C,0,-0
 .7138651598,2.9014668753,0.2919639428\H,0,0.6971155527,0.3349783381,0.
 3191610488\H,0,-1.3086213579,-0.9410799415,0.6085143508\H,0,-2.7332723
 182,2.5717150048,0.7656683586\H,0,-1.7433604279,3.0483704325,2.1362174
 366\O,0,-0.1059869056,2.021320171,-0.533063639\O,0,-0.4532474914,4.081
 2150432,0.1806033265\C,0,0.1620691624,-0.0265606067,-1.714205604\C,0,0
 .3860864235,-1.5418783354,-1.6818300547\C,0,-2.6635264432,0.1743407402
 ,-0.6187801777\O,0,-2.8735381529,0.4305862491,2.2257091611\Si,0,-4.003
 9984325,1.013106074,3.3267236659\C,0,-3.2156250808,1.7856939743,4.8584
 6368\C,0,-5.144576854,2.2805381891,2.5158451776\C,0,-4.9846070519,-0.5
 184782207,3.8047083886\H,0,-5.9697066657,2.5270477645,3.1944621847\H,0
 ,-4.6276875971,3.2156069015,2.2770570622\H,0,-5.582209228,1.8905351688
 ,1.590709591\H,0,-4.3373382015,-1.2718749655,4.2649863739\H,0,-5.77563
 68719,-0.2693349317,4.5207512422\H,0,-5.4579712354,-0.9735253428,2.928
 3762516\H,0,-4.0032484488,2.0885880871,5.5587491078\H,0,-2.5651203934,
 1.0759316821,5.3788519949\H,0,-2.6275499676,2.6802068328,4.6270305525\
 H,0,-3.5814818022,-0.0178351053,-0.0619286463\H,0,-2.7551783991,1.1476
 184681,-1.1110252715\H,0,-2.5836097446,-0.5811348322,-1.4046841972\H,0
 ,1.0657725673,0.4704559697,-2.0834453221\H,0,-0.6400958986,0.228141222
 2,-2.4144082107\H,0,0.679816881,-1.9034078807,-2.6713493709\H,0,1.1836
 042531,-1.8121045063,-0.9806826972\H,0,-0.5165269998,-2.0865298286,-1.
 3873012425\C,0,-0.5070011901,0.726213596,2.6631042984\C,0,-0.234309692
 4,-0.685905779,3.1036604243\C,0,-0.2585873786,-1.1031419403,4.37032576
 44\H,0,-0.7404911351,1.3400009977,3.5386029288\H,0,0.4086163027,1.1558
 092663,2.2344459361\H,0,0.0306285986,-1.4024741109,2.3268316926\H,0,-0
 .0285917729,-2.130615614,4.6365025714\H,0,-0.4994750369,-0.4298339305,
 5.1896381532\\Version=ES64L-G09RevD.01\State=1-A\HF=-1064.3820366\RMSD
 =8.953e-09\Dipole=-0.5774905,-1.6427879,0.5901339\Quadrupole=2.8123638
 ,-8.2936219,5.4812582,-9.3105794,0.251928,9.038538\PG=C01 [X(C14H26O3S
 i1)]\\@


 THE ENLIGHTENED ONE, BECAUSE HE SAW MANKIND DROWNING  
 IN THE GREAT SEA OF BIRTH, DEATH, AND SORROW, LONGED TO SAVE 
 THEM, FOR THIS HE WAS MOVED TO PITY.                         
 BECAUSE HE SAW MEN OF THE WORLD STRAYING IN FALSE PATHS, AND 
 NONE TO GUIDE THEM, FOR THIS HE WAS MOVED TO PITY.           
                     ..................                       
 BECAUSE HE SAW THE MEN OF THE WORLD PLOUGHING THEIR FIELDS,  
 SOWING THE SEED, TRAFFICKING, HUCKSTERING, BUYING, SELLING,  
 AND AT THE END WINNOWING NOTHING BUT BITTERNESS,             
 FOR THIS HE WAS MOVED TO PITY......                   
                   BUDAH'S PITY - UPSAKA SILA SUTRA           
 Job cpu time:       0 days  0 hours 19 minutes 56.2 seconds.
 File lengths (MBytes):  RWF=    236 Int=      0 D2E=      0 Chk=     19 Scr=      1
 Normal termination of Gaussian 09 at Wed Feb  6 11:27:59 2019.
