 Entering Gaussian System, Link 0=/usr/local/Cluster-Apps/gaussian/g09/g09
 Initial command:
 /usr/local/Cluster-Apps/gaussian/g09/l1.exe "/home/ke291/rds/hpc-work/06Feb0927IP1/Gau-375954.inp" -scrdir="/home/ke291/rds/hpc-work/06Feb0927IP1/"
 Entering Link 1 = /usr/local/Cluster-Apps/gaussian/g09/l1.exe PID=    375959.
  
 Copyright (c) 1988,1990,1992,1993,1995,1998,2003,2009,2013,
            Gaussian, Inc.  All Rights Reserved.
  
 This is part of the Gaussian(R) 09 program.  It is based on
 the Gaussian(R) 03 system (copyright 2003, Gaussian, Inc.),
 the Gaussian(R) 98 system (copyright 1998, Gaussian, Inc.),
 the Gaussian(R) 94 system (copyright 1995, Gaussian, Inc.),
 the Gaussian 92(TM) system (copyright 1992, Gaussian, Inc.),
 the Gaussian 90(TM) system (copyright 1990, Gaussian, Inc.),
 the Gaussian 88(TM) system (copyright 1988, Gaussian, Inc.),
 the Gaussian 86(TM) system (copyright 1986, Carnegie Mellon
 University), and the Gaussian 82(TM) system (copyright 1983,
 Carnegie Mellon University). Gaussian is a federally registered
 trademark of Gaussian, Inc.
  
 This software contains proprietary and confidential information,
 including trade secrets, belonging to Gaussian, Inc.
  
 This software is provided under written license and may be
 used, copied, transmitted, or stored only in accord with that
 written license.
  
 The following legend is applicable only to US Government
 contracts under FAR:
  
                    RESTRICTED RIGHTS LEGEND
  
 Use, reproduction and disclosure by the US Government is
 subject to restrictions as set forth in subparagraphs (a)
 and (c) of the Commercial Computer Software - Restricted
 Rights clause in FAR 52.227-19.
  
 Gaussian, Inc.
 340 Quinnipiac St., Bldg. 40, Wallingford CT 06492
  
  
 ---------------------------------------------------------------
 Warning -- This program may not be used in any manner that
 competes with the business of Gaussian, Inc. or will provide
 assistance to any competitor of Gaussian, Inc.  The licensee
 of this program is prohibited from giving any competitor of
 Gaussian, Inc. access to this program.  By using this program,
 the user acknowledges that Gaussian, Inc. is engaged in the
 business of creating and licensing software in the field of
 computational chemistry and represents and warrants to the
 licensee that it is not a competitor of Gaussian, Inc. and that
 it will not use this program in any manner prohibited above.
 ---------------------------------------------------------------
  

 Cite this work as:
 Gaussian 09, Revision D.01,
 M. J. Frisch, G. W. Trucks, H. B. Schlegel, G. E. Scuseria, 
 M. A. Robb, J. R. Cheeseman, G. Scalmani, V. Barone, B. Mennucci, 
 G. A. Petersson, H. Nakatsuji, M. Caricato, X. Li, H. P. Hratchian, 
 A. F. Izmaylov, J. Bloino, G. Zheng, J. L. Sonnenberg, M. Hada, 
 M. Ehara, K. Toyota, R. Fukuda, J. Hasegawa, M. Ishida, T. Nakajima, 
 Y. Honda, O. Kitao, H. Nakai, T. Vreven, J. A. Montgomery, Jr., 
 J. E. Peralta, F. Ogliaro, M. Bearpark, J. J. Heyd, E. Brothers, 
 K. N. Kudin, V. N. Staroverov, T. Keith, R. Kobayashi, J. Normand, 
 K. Raghavachari, A. Rendell, J. C. Burant, S. S. Iyengar, J. Tomasi, 
 M. Cossi, N. Rega, J. M. Millam, M. Klene, J. E. Knox, J. B. Cross, 
 V. Bakken, C. Adamo, J. Jaramillo, R. Gomperts, R. E. Stratmann, 
 O. Yazyev, A. J. Austin, R. Cammi, C. Pomelli, J. W. Ochterski, 
 R. L. Martin, K. Morokuma, V. G. Zakrzewski, G. A. Voth, 
 P. Salvador, J. J. Dannenberg, S. Dapprich, A. D. Daniels, 
 O. Farkas, J. B. Foresman, J. V. Ortiz, J. Cioslowski, 
 and D. J. Fox, Gaussian, Inc., Wallingford CT, 2013.
 
 ******************************************
 Gaussian 09:  ES64L-G09RevD.01 24-Apr-2013
                 6-Feb-2019 
 ******************************************
 %nprocshared=2
 Will use up to    2 processors via shared memory.
 %mem=6000MB
 %chk=/home/ke291/rds/hpc-work/06Feb0927IP1/P_ng_correct1ginp005.chk
 ----------------------------------------------------------------------
 # mPW1PW91/6-311g(d) geom=checkpoint nmr=giao scrf=(solvent=chloroform
 )
 ----------------------------------------------------------------------
 1/29=2,38=1/1;
 2/12=2,40=1/2;
 3/5=4,6=6,7=1,11=2,14=-4,16=1,25=1,30=1,70=2201,72=7,74=-7/1,2,8,3;
 4//1;
 5/5=2,38=5,53=7/2;
 8/6=1,10=90,11=11/1;
 10/13=100,45=16/2;
 6/7=2,8=2,9=2,10=2,28=1/1;
 99/9=1/99;
 --------------------
 P_ng_correct1ginp005
 --------------------
 Structure from the checkpoint file:  "/home/ke291/rds/hpc-work/06Feb0927IP1/P_ng_correct1ginp005.chk"
 Charge =  0 Multiplicity = 1
 Redundant internal coordinates found in file.
 C,0,0.876329744,-0.2653485023,0.3883339768
 C,0,-0.5787013072,-0.5823655453,0.7786347387
 C,0,-1.0939710896,0.4525331374,1.8365793588
 C,0,-0.3043679013,1.7848454099,1.6795989077
 C,0,0.2049281316,2.0537692534,0.285133849
 H,0,1.5114273883,-0.1810274909,1.2819690924
 H,0,-1.1606493879,-0.383771713,-0.1285023347
 H,0,-0.8979663649,2.6315377942,2.0187341603
 H,0,0.5801666945,1.7406581184,2.3271932483
 O,0,0.8788670287,1.0321097919,-0.2886458459
 O,0,0.0790946485,3.1011424151,-0.31686634
 C,0,1.525842328,-1.2424277012,-0.5876802787
 C,0,2.9426623772,-0.8350071889,-1.0048515492
 C,0,-0.8237819618,-2.0464504839,1.1637888056
 O,0,-2.4968578558,0.6367205281,1.6589896163
 Si,0,-3.5125324801,1.4978034465,0.6242859145
 C,0,-5.2258882343,0.8854216709,1.1005278343
 C,0,-3.379215374,3.3582438834,0.9044992033
 C,0,-3.1824460812,1.1271240944,-1.1976238477
 H,0,-3.4998319987,3.6199349162,1.9612483335
 H,0,-2.4200954853,3.7546647629,0.5569928042
 H,0,-4.1710762253,3.8700664902,0.3446225974
 H,0,-2.2035359017,1.4868399862,-1.5301550616
 H,0,-3.2483918036,0.05635498,-1.4178445016
 H,0,-3.9377336432,1.6357969001,-1.8088568368
 H,0,-5.4391070451,1.0818452965,2.1563642689
 H,0,-5.9956899677,1.3878671598,0.5042578929
 H,0,-5.3222571931,-0.1923239438,0.9330483394
 H,0,-0.6580554562,-2.7047400025,0.3076438643
 H,0,-0.1714805876,-2.3827383049,1.9758469468
 H,0,-1.8606821604,-2.1809361169,1.4834105904
 H,0,0.8827305766,-1.3367376375,-1.4715179405
 H,0,1.5564858324,-2.2270057753,-0.1097891862
 H,0,3.370037783,-1.5768213038,-1.6859266752
 H,0,2.942765207,0.1330421684,-1.5115809435
 H,0,3.6044055616,-0.760464155,-0.1344979868
 C,0,-0.9225551765,-0.0536029447,3.293116524
 C,0,-1.3022955656,0.9558190719,4.3408869875
 C,0,-0.5001011047,1.3773228206,5.3198183636
 H,0,0.1141517386,-0.3757510954,3.4479750172
 H,0,-1.5604987092,-0.9370341772,3.4059016272
 H,0,-2.3180388376,1.3424715691,4.2764914104
 H,0,-0.8342547502,2.0975818022,6.0609425349
 H,0,0.51928061,1.011124615,5.4222065197
 Recover connectivity data from disk.
                          Input orientation:                          
 ---------------------------------------------------------------------
 Center     Atomic      Atomic             Coordinates (Angstroms)
 Number     Number       Type             X           Y           Z
 ---------------------------------------------------------------------
      1          6           0        0.876330   -0.265349    0.388334
      2          6           0       -0.578701   -0.582366    0.778635
      3          6           0       -1.093971    0.452533    1.836579
      4          6           0       -0.304368    1.784845    1.679599
      5          6           0        0.204928    2.053769    0.285134
      6          1           0        1.511427   -0.181027    1.281969
      7          1           0       -1.160649   -0.383772   -0.128502
      8          1           0       -0.897966    2.631538    2.018734
      9          1           0        0.580167    1.740658    2.327193
     10          8           0        0.878867    1.032110   -0.288646
     11          8           0        0.079095    3.101142   -0.316866
     12          6           0        1.525842   -1.242428   -0.587680
     13          6           0        2.942662   -0.835007   -1.004852
     14          6           0       -0.823782   -2.046450    1.163789
     15          8           0       -2.496858    0.636721    1.658990
     16         14           0       -3.512532    1.497803    0.624286
     17          6           0       -5.225888    0.885422    1.100528
     18          6           0       -3.379215    3.358244    0.904499
     19          6           0       -3.182446    1.127124   -1.197624
     20          1           0       -3.499832    3.619935    1.961248
     21          1           0       -2.420095    3.754665    0.556993
     22          1           0       -4.171076    3.870066    0.344623
     23          1           0       -2.203536    1.486840   -1.530155
     24          1           0       -3.248392    0.056355   -1.417845
     25          1           0       -3.937734    1.635797   -1.808857
     26          1           0       -5.439107    1.081845    2.156364
     27          1           0       -5.995690    1.387867    0.504258
     28          1           0       -5.322257   -0.192324    0.933048
     29          1           0       -0.658055   -2.704740    0.307644
     30          1           0       -0.171481   -2.382738    1.975847
     31          1           0       -1.860682   -2.180936    1.483411
     32          1           0        0.882731   -1.336738   -1.471518
     33          1           0        1.556486   -2.227006   -0.109789
     34          1           0        3.370038   -1.576821   -1.685927
     35          1           0        2.942765    0.133042   -1.511581
     36          1           0        3.604406   -0.760464   -0.134498
     37          6           0       -0.922555   -0.053603    3.293117
     38          6           0       -1.302296    0.955819    4.340887
     39          6           0       -0.500101    1.377323    5.319818
     40          1           0        0.114152   -0.375751    3.447975
     41          1           0       -1.560499   -0.937034    3.405902
     42          1           0       -2.318039    1.342472    4.276491
     43          1           0       -0.834255    2.097582    6.060943
     44          1           0        0.519281    1.011125    5.422207
 ---------------------------------------------------------------------
                    Distance matrix (angstroms):
                    1          2          3          4          5
     1  C    0.000000
     2  C    1.539464   0.000000
     3  C    2.548500   1.567088   0.000000
     4  C    2.695312   2.547682   1.556654   0.000000
     5  C    2.416555   2.794070   2.580325   1.508720   0.000000
     6  H    1.099565   2.187020   2.738082   2.705527   2.773975
     7  H    2.104858   1.095902   2.136679   2.950483   2.824447
     8  H    3.768061   3.459617   2.195372   1.088237   2.134376
     9  H    2.805521   3.022821   2.168572   1.097147   2.099726
    10  O    1.463457   2.422834   2.957124   2.416742   1.351741
    11  O    3.530744   3.898852   3.609507   2.421891   1.214590
    12  C    1.526157   2.594533   3.951373   4.201739   3.656711
    13  C    2.556405   3.955332   5.101559   4.961160   4.183812
    14  C    2.581479   1.533608   2.602032   3.900600   4.317648
    15  O    3.715735   2.437318   1.426027   2.475001   3.345916
    16  Si   4.735661   3.599763   2.900290   3.389454   3.774074
    17  C    6.250484   4.884093   4.219230   5.036432   5.614594
    18  C    5.613066   4.836024   3.812384   3.539922   3.864111
    19  C    4.574703   3.688826   3.744755   4.122419   3.812026
    20  H    6.059726   5.252705   3.979465   3.695656   4.357463
    21  H    5.201478   4.716958   3.781537   3.101086   3.139698
    22  H    6.525326   5.737393   4.834671   4.591486   4.738342
    23  H    4.029434   3.500316   3.692672   3.741412   3.068775
    24  H    4.514322   3.515641   3.922979   4.609676   4.337651
    25  H    5.622918   4.785233   4.772453   5.039135   4.660595
    26  H    6.695193   5.318955   4.402102   5.204523   6.025054
    27  H    7.069032   5.770690   5.164957   5.824961   6.240121
    28  H    6.222903   4.762069   4.371569   5.444791   6.001209
    29  H    2.882964   2.175455   3.534974   4.707837   4.836182
    30  H    2.846303   2.200111   2.984820   4.180212   4.762646
    31  H    3.515665   2.166936   2.765454   4.264742   4.861619
    32  H    2.146384   2.787122   4.248805   4.591625   3.878244
    33  H    2.135144   2.837809   4.241839   4.770706   4.506407
    34  H    3.498728   4.759784   6.037690   6.010726   5.204247
    35  H    2.835233   4.261176   5.254283   4.843135   3.796463
    36  H    2.821505   4.285314   5.237485   5.004804   4.433108
    37  C    3.423242   2.592382   1.551470   2.522992   3.841900
    38  C    4.675504   3.947055   2.562860   2.960675   4.463894
    39  C    5.377032   4.946605   3.652516   3.668185   5.128615
    40  H    3.155076   2.765522   2.177662   2.823206   3.989282
    41  H    3.936370   2.827056   2.147398   3.459279   4.669136
    42  H    5.282693   4.354916   2.871150   3.315783   4.775169
    43  H    6.378717   5.928760   4.540802   4.424337   5.868713
    44  H    5.205453   5.030659   3.971313   3.909495   5.251232
                    6          7          8          9         10
     6  H    0.000000
     7  H    3.028288   0.000000
     8  H    3.776046   3.711027   0.000000
     9  H    2.377523   3.684302   1.753194   0.000000
    10  O    2.082946   2.487970   3.322546   2.726514   0.000000
    11  O    3.921797   3.703657   2.574919   3.015467   2.218407
    12  C    2.149969   2.857512   5.260784   4.276633   2.383594
    13  C    2.775909   4.220044   5.992448   4.828867   2.873731
    14  C    2.991149   2.132603   4.756050   4.203186   3.806063
    15  O    4.108188   2.453973   2.581698   3.336653   3.917287
    16  Si   5.337714   3.104572   3.172664   4.439489   4.509402
    17  C    6.823610   4.432554   4.756357   5.995533   6.262536
    18  C    6.048745   4.471220   2.815354   4.507477   4.996575
    19  C    5.467366   2.741074   4.222211   5.192111   4.162876
    20  H    6.326251   5.086109   2.783871   4.506882   5.561643
    21  H    5.610003   4.379813   2.390602   4.023855   4.360111
    22  H    7.041366   5.232748   3.879414   5.571290   5.827260
    23  H    4.948816   2.559576   3.950881   4.763671   3.354002
    24  H    5.477337   2.492947   4.895522   5.614272   4.388787
    25  H    6.522838   3.822884   4.988200   6.126119   5.086759
    26  H    7.118240   5.066937   4.800255   6.057629   6.774758
    27  H    7.708636   5.188131   5.461423   6.832968   6.929271
    28  H    6.842596   4.299130   5.359782   6.365428   6.437835
    29  H    3.467721   2.414481   5.609033   5.037195   4.084328
    30  H    2.856777   3.066367   5.066812   4.206045   4.229934
    31  H    3.925727   2.513585   4.936932   4.695595   4.579190
    32  H    3.051658   2.624355   5.576733   4.898175   2.647761
    33  H    2.474884   3.283395   5.844689   4.757567   3.333615
    34  H    3.769758   4.937212   7.046322   5.907130   3.868442
    35  H    3.154566   4.360965   5.784187   4.785654   2.561946
    36  H    2.592814   4.779925   6.034355   4.632662   3.265830
    37  C    3.159940   3.445748   2.972312   2.531907   4.153663
    38  C    4.308879   4.667977   2.892042   2.866112   5.118190
    39  C    4.772728   5.763851   3.553661   3.202311   5.785810
    40  H    2.584933   3.796890   3.480072   2.439777   4.065612
    41  H    3.810429   3.599721   3.885600   3.593897   4.845381
    42  H    5.094411   4.870671   2.962392   3.515382   5.581846
    43  H    5.790757   6.676292   4.077820   4.008599   6.662379
    44  H    4.421216   5.964752   4.027152   3.180414   5.722200
                   11         12         13         14         15
    11  O    0.000000
    12  C    4.586177   0.000000
    13  C    4.915955   1.532123   0.000000
    14  C    5.431872   3.038886   4.511840   0.000000
    15  O    4.075894   4.976027   6.233010   3.200596   0.000000
    16  Si   4.044286   5.861992   7.054476   4.481314   1.686319
    17  C    5.921256   7.277613   8.609165   5.289463   2.796666
    18  C    3.676648   6.888568   7.822731   5.983995   2.958800
    19  C    3.912816   5.306108   6.434600   4.605556   2.978383
    20  H    4.274069   7.442917   8.375559   6.317049   3.161785
    21  H    2.727026   6.469284   7.229358   6.047260   3.307849
    22  H    4.369527   7.711139   8.635049   6.846940   3.871059
    23  H    3.047695   4.716505   5.670121   4.652440   3.313515
    24  H    4.642742   5.016903   6.268512   4.118902   3.220021
    25  H    4.528596   6.294927   7.354668   5.665003   3.885902
    26  H    6.375342   7.838530   9.160877   5.663273   3.017010
    27  H    6.364948   8.042651   9.333420   6.243248   3.760246
    28  H    6.448551   7.093081   8.513366   4.871068   3.032686
    29  H    5.885718   2.776576   4.264237   1.092609   4.046318
    30  H    5.949140   3.279159   4.580166   1.094543   3.824253
    31  H    5.907968   4.079064   5.574504   1.093346   2.893914
    32  H    4.655516   1.097113   2.170905   3.218807   5.011610
    33  H    5.533058   1.094857   2.158769   2.705601   5.268691
    34  H    5.881154   2.172331   1.093984   5.092107   7.106947
    35  H    4.293899   2.180179   1.092655   5.108294   6.316305
    36  H    5.231929   2.181304   1.095891   4.790423   6.511078
    37  C    4.897724   4.740099   5.832926   2.918087   2.371781
    38  C    5.310868   6.092736   7.057170   4.397334   2.953198
    39  C    5.922773   6.772450   7.533158   5.394402   4.235233
    40  H    5.124846   4.362398   5.295192   2.981352   3.323092
    41  H    5.731853   5.056428   6.304254   2.607801   2.530845
    42  H    5.471573   6.716941   7.765885   4.838028   2.716869
    43  H    6.520566   7.805761   8.531742   6.415234   4.927023
    44  H    6.123634   6.496953   7.112528   5.411719   4.837259
                   16         17         18         19         20
    16  Si   0.000000
    17  C    1.880799   0.000000
    18  C    1.886142   3.092487   0.000000
    19  C    1.888310   3.084733   3.071732   0.000000
    20  H    2.508201   3.346292   1.095331   4.036498   0.000000
    21  H    2.508260   4.049748   1.094450   3.250204   1.776490
    22  H    2.477806   3.254555   1.096571   3.298431   1.768223
    23  H    2.520954   4.051766   3.288148   1.094640   4.291896
    24  H    2.513532   3.307574   4.038919   1.095168   4.917377
    25  H    2.473868   3.269086   3.262065   1.096728   4.282786
    26  H    2.496392   1.094913   3.315465   4.042747   3.200118
    27  H    2.488486   1.095712   3.299775   3.298292   3.651610
    28  H    2.495389   1.094930   4.047562   3.295375   4.348764
    29  H    5.090154   5.863704   6.672385   4.829240   7.128227
    30  H    5.296031   6.082277   6.663049   5.608562   6.863689
    31  H    4.123085   4.568781   5.772659   4.458505   6.046920
    32  H    5.634302   6.990611   6.771447   4.761438   7.453814
    33  H    6.333089   7.559938   7.522296   5.906864   8.002641
    34  H    7.884172   9.365731   8.753148   7.105266   9.354318
    35  H    6.935082   8.609070   7.497120   6.213291   8.107159
    36  H    7.505087   9.066880   8.173997   7.124225   8.605245
    37  C    4.029578   4.920151   4.835429   5.164104   4.680930
    38  C    4.357983   5.089151   4.679103   5.851445   4.193967
    39  C    5.580079   6.354325   5.631020   7.052278   5.030675
    40  H    4.963493   5.968006   5.711007   5.891331   5.588984
    41  H    4.180461   4.697997   5.292840   5.299425   5.158876
    42  H    3.845718   4.330269   4.069369   5.546126   3.455984
    43  H    6.090168   6.735094   5.886850   7.690421   5.121558
    44  H    6.285890   7.190248   6.412248   7.585406   5.910786
                   21         22         23         24         25
    21  H    0.000000
    22  H    1.767584   0.000000
    23  H    3.089679   3.614661   0.000000
    24  H    4.273588   4.301399   1.775000   0.000000
    25  H    3.519953   3.111894   1.762755   1.767122   0.000000
    26  H    4.337786   3.558720   4.921724   4.315766   4.275975
    27  H    4.288285   3.084803   4.304540   3.607638   3.105987
    28  H    4.913520   4.263154   4.314323   3.144751   3.574490
    29  H    6.700065   7.454580   4.830668   4.160625   5.837476
    30  H    6.688582   7.599686   5.603118   5.189769   6.682610
    31  H    6.033453   6.576427   4.759381   3.917715   5.451662
    32  H    6.398898   7.479983   4.183428   4.360018   5.673327
    33  H    7.213749   8.377693   5.472463   5.478284   6.927808
    34  H    8.184197   9.521561   6.361997   6.822224   7.983705
    35  H    6.793778   8.247277   5.321422   6.192341   7.048965
    36  H    7.560368   9.062532   6.382039   7.019616   8.088845
    37  C    4.922591   5.885719   5.222818   5.254975   6.162427
    38  C    4.837444   5.717768   5.963502   6.144861   6.725121
    39  C    5.658855   6.666514   7.059449   7.395550   7.918468
    40  H    5.642741   6.783874   5.798508   5.930397   6.935300
    41  H    5.555828   6.268553   5.536544   5.206182   6.282071
    42  H    4.434384   5.028128   5.809569   5.911439   6.304040
    43  H    5.962741   6.852182   7.737745   8.119539   8.472223
    44  H    6.311676   7.480298   7.481669   7.867226   8.517245
                   26         27         28         29         30
    26  H    0.000000
    27  H    1.769997   0.000000
    28  H    1.770216   1.770417   0.000000
    29  H    6.372947   6.728925   5.334617   0.000000
    30  H    6.307441   7.092563   5.693491   1.767298   0.000000
    31  H    4.889144   5.549179   4.029886   1.761564   1.771050
    32  H    7.679629   7.657665   6.752296   2.722291   3.753639
    33  H    8.063639   8.395220   7.248762   2.303622   2.712932
    34  H    9.971597  10.064946   9.183238   4.633795   5.157562
    35  H    9.198360   9.248469   8.625119   4.932393   5.309410
    36  H    9.509326   9.858254   9.008204   4.705770   4.619810
    37  C    4.793818   5.965925   4.994651   4.001442   2.779242
    38  C    4.679875   6.077363   5.393671   5.484687   4.244776
    39  C    5.872693   7.306930   6.705276   6.466071   5.042638
    40  H    5.884856   7.007566   5.992749   3.985244   2.505343
    41  H    4.547617   5.787540   4.562940   3.679455   2.462618
    42  H    3.782054   5.268484   4.749688   5.906540   4.876255
    43  H    6.122264   7.617142   7.188959   7.496251   6.099225
    44  H    6.795080   8.171474   7.464877   6.430593   4.885985
                   31         32         33         34         35
    31  H    0.000000
    32  H    4.119537   0.000000
    33  H    3.770603   1.760917   0.000000
    34  H    6.145737   2.508049   2.489160   0.000000
    35  H    6.115356   2.530929   3.075161   1.771042   0.000000
    36  H    5.873887   3.086621   2.518994   1.768700   1.769881
    37  C    2.946297   5.254259   4.738047   6.748142   6.169332
    38  C    4.279743   6.619230   6.173453   8.035387   7.276598
    39  C    5.406516   7.443158   6.833840   8.531436   7.750457
    40  H    3.319364   5.071057   4.262060   6.196798   5.732113
    41  H    2.309410   5.469767   4.872340   7.116617   6.753228
    42  H    4.519389   7.103710   6.855113   8.742249   7.914579
    43  H    6.349257   8.454617   7.905418   9.549413   8.687255
    44  H    5.600677   7.291638   6.493401   8.083925   7.397413
                   36         37         38         39         40
    36  H    0.000000
    37  C    5.722025   0.000000
    38  C    6.859330   1.503648   0.000000
    39  C    7.153088   2.516652   1.333975   0.000000
    40  H    5.016372   1.096596   2.139321   2.637114   0.000000
    41  H    6.264331   1.095510   2.126913   3.184928   1.766710
    42  H    7.678184   2.205317   1.088752   2.096340   3.091000
    43  H    8.139632   3.506601   2.116902   1.086138   3.720813
    44  H    6.597991   2.783085   2.119068   1.087991   2.446455
                   41         42         43         44
    41  H    0.000000
    42  H    2.554983   0.000000
    43  H    4.097019   2.440507   0.000000
    44  H    3.490887   3.077797   1.849441   0.000000
 Stoichiometry    C14H26O3Si
 Framework group  C1[X(C14H26O3Si)]
 Deg. of freedom   126
 Full point group                 C1      NOp   1
 Largest Abelian subgroup         C1      NOp   1
 Largest concise Abelian subgroup C1      NOp   1
                         Standard orientation:                         
 ---------------------------------------------------------------------
 Center     Atomic      Atomic             Coordinates (Angstroms)
 Number     Number       Type             X           Y           Z
 ---------------------------------------------------------------------
      1          6           0       -2.311951   -0.038101   -0.186586
      2          6           0       -1.029159    0.034611   -1.034588
      3          6           0        0.095183    0.796286   -0.252621
      4          6           0       -0.158452    0.658320    1.277022
      5          6           0       -0.887212   -0.598778    1.683039
      6          1           0       -2.605899    0.961617    0.164414
      7          1           0       -0.681831   -1.002417   -1.104863
      8          1           0        0.773059    0.733931    1.834544
      9          1           0       -0.787857    1.496950    1.599949
     10          8           0       -2.017771   -0.858471    0.989066
     11          8           0       -0.550852   -1.344734    2.580613
     12          6           0       -3.512420   -0.696658   -0.860626
     13          6           0       -4.735100   -0.816073    0.054905
     14          6           0       -1.247351    0.538330   -2.466583
     15          8           0        1.363762    0.269225   -0.635332
     16         14           0        2.307019   -1.079669   -0.268696
     17          6           0        3.733886   -0.946845   -1.486815
     18          6           0        2.949580   -1.020913    1.503645
     19          6           0        1.387071   -2.707327   -0.533536
     20          1           0        3.437345   -0.066154    1.727857
     21          1           0        2.148860   -1.180158    2.232555
     22          1           0        3.692494   -1.814129    1.649780
     23          1           0        0.559231   -2.842683    0.169741
     24          1           0        0.991812   -2.795343   -1.551090
     25          1           0        2.082478   -3.540921   -0.377514
     26          1           0        4.279747   -0.006374   -1.358815
     27          1           0        4.443934   -1.768657   -1.341755
     28          1           0        3.377299   -0.990374   -2.521138
     29          1           0       -1.867572   -0.160897   -3.032447
     30          1           0       -1.733597    1.518423   -2.498335
     31          1           0       -0.288339    0.618163   -2.985553
     32          1           0       -3.212391   -1.687538   -1.223664
     33          1           0       -3.774270   -0.100913   -1.741100
     34          1           0       -5.571907   -1.273921   -0.480754
     35          1           0       -4.514452   -1.430151    0.931328
     36          1           0       -5.062619    0.168812    0.406628
     37          6           0        0.147418    2.305201   -0.609699
     38          6           0        1.139029    3.092482    0.201383
     39          6           0        0.843617    4.169908    0.930336
     40          1           0       -0.852278    2.741691   -0.497426
     41          1           0        0.419712    2.377982   -1.668331
     42          1           0        2.168160    2.739640    0.159256
     43          1           0        1.605657    4.710447    1.484240
     44          1           0       -0.171001    4.557523    0.993801
 ---------------------------------------------------------------------
 Rotational constants (GHZ):      0.4424057      0.2936182      0.2494787
 Standard basis: 6-311G(d) (5D, 7F)
 There are   428 symmetry adapted cartesian basis functions of A   symmetry.
 There are   410 symmetry adapted basis functions of A   symmetry.
   410 basis functions,   720 primitive gaussians,   428 cartesian basis functions
    74 alpha electrons       74 beta electrons
       nuclear repulsion energy      1637.4083391328 Hartrees.
 NAtoms=   44 NActive=   44 NUniq=   44 SFac= 1.00D+00 NAtFMM=   60 NAOKFM=F Big=F
 Integral buffers will be    131072 words long.
 Raffenetti 2 integral format.
 Two-electron integral symmetry is turned on.
 ------------------------------------------------------------------------------
 Polarizable Continuum Model (PCM)
 =================================
 Model                : PCM (using non-symmetric T matrix).
 Atomic radii         : UFF (Universal Force Field).
 Polarization charges : Total charges.
 Charge compensation  : None.
 Solution method      : On-the-fly selection.
 Cavity type          : Scaled VdW (van der Waals Surface) (Alpha=1.100).
 Cavity algorithm     : GePol (No added spheres)
                        Default sphere list used, NSphG=   44.
                        Lebedev-Laikov grids with approx.  5.0 points / Ang**2.
                        Smoothing algorithm: Karplus/York (Gamma=1.0000).
                        Polarization charges: spherical gaussians, with
                                              point-specific exponents (IZeta= 3).
                        Self-potential: point-specific (ISelfS= 7).
                        Self-field    : sphere-specific E.n sum rule (ISelfD= 2).
 Solvent              : Chloroform, Eps=   4.711300 Eps(inf)=   2.090627
 ------------------------------------------------------------------------------
 One-electron integrals computed using PRISM.
 NBasis=   410 RedAO= T EigKep=  5.62D-04  NBF=   410
 NBsUse=   410 1.00D-06 EigRej= -1.00D+00 NBFU=   410
 ExpMin= 6.54D-02 ExpMax= 6.94D+04 ExpMxC= 2.33D+03 IAcc=2 IRadAn=         4 AccDes= 0.00D+00
 Harris functional with IExCor=  908 and IRadAn=       4 diagonalized for initial guess.
 HarFok:  IExCor=  908 AccDes= 0.00D+00 IRadAn=         4 IDoV= 1 UseB2=F ITyADJ=14
 ICtDFT=  3500011 ScaDFX=  1.000000  1.000000  1.000000  1.000000
 FoFCou: FMM=F IPFlag=           0 FMFlag=      100000 FMFlg1=           0
         NFxFlg=           0 DoJE=T BraDBF=F KetDBF=T FulRan=T
         wScrn=  0.000000 ICntrl=     500 IOpCl=  0 I1Cent=   200000004 NGrid=           0
         NMat0=    1 NMatS0=      1 NMatT0=    0 NMatD0=    1 NMtDS0=    0 NMtDT0=    0
 Petite list used in FoFCou.
 Requested convergence on RMS density matrix=1.00D-08 within 128 cycles.
 Requested convergence on MAX density matrix=1.00D-06.
 Requested convergence on             energy=1.00D-06.
 No special actions if energy rises.
 Inv3:  Mode=1 IEnd=    24917772.
 Iteration    1 A*A^-1 deviation from unit magnitude is 4.77D-15 for   2882.
 Iteration    1 A*A^-1 deviation from orthogonality  is 3.04D-15 for   2867   1704.
 Iteration    1 A^-1*A deviation from unit magnitude is 4.88D-15 for   2882.
 Iteration    1 A^-1*A deviation from orthogonality  is 2.86D-10 for   2748   2650.
 Iteration    2 A*A^-1 deviation from unit magnitude is 2.44D-15 for    607.
 Iteration    2 A*A^-1 deviation from orthogonality  is 2.12D-15 for   2436   1086.
 Iteration    2 A^-1*A deviation from unit magnitude is 1.11D-15 for    213.
 Iteration    2 A^-1*A deviation from orthogonality  is 3.12D-16 for   2200    273.
 Error on total polarization charges =  0.01156
 SCF Done:  E(RmPW1PW91) =  -1064.38481292     A.U. after   12 cycles
            NFock= 12  Conv=0.93D-08     -V/T= 2.0036
 DoSCS=F DFT=T ScalE2(SS,OS)=  1.000000  1.000000
 Range of M.O.s used for correlation:     1   410
 NBasis=   410 NAE=    74 NBE=    74 NFC=     0 NFV=     0
 NROrb=    410 NOA=    74 NOB=    74 NVA=   336 NVB=   336
 NEqPCM:  Using equilibrium solvation (IEInf=0, Eps=   4.7113, EpsInf=   2.0906)
          Differentiating once with respect to magnetic field using GIAOs.
          Electric field/nuclear overlap derivatives assumed to be zero.
 FoFJK:  IHMeth= 1 ICntrl=    6127 DoSepK=F KAlg= 0 I1Cent=   0 FoldK=F
 IRaf=         1 NMat=   1 IRICut=       1 DoRegI=T DoRafI=F ISym2E= 0.
          There are     3 degrees of freedom in the 1st order CPHF.  IDoFFX=0 NUNeed=     3.
      3 vectors produced by pass  0 Test12= 8.29D-13 3.33D-08 XBig12= 3.38D+01 1.05D+00.
 AX will form     3 AO Fock derivatives at one time.
      3 vectors produced by pass  1 Test12= 8.29D-13 3.33D-08 XBig12= 6.32D-02 8.70D-02.
      3 vectors produced by pass  2 Test12= 8.29D-13 3.33D-08 XBig12= 4.57D-04 6.58D-03.
      3 vectors produced by pass  3 Test12= 8.29D-13 3.33D-08 XBig12= 1.96D-06 2.77D-04.
      3 vectors produced by pass  4 Test12= 8.29D-13 3.33D-08 XBig12= 5.52D-09 2.75D-05.
      3 vectors produced by pass  5 Test12= 8.29D-13 3.33D-08 XBig12= 2.74D-11 8.90D-07.
      2 vectors produced by pass  6 Test12= 8.29D-13 3.33D-08 XBig12= 9.49D-14 5.08D-08.
 InvSVY:  IOpt=1 It=  1 EMax= 1.78D-15
 Solved reduced A of dimension    20 with     3 vectors.
 Calculating GIAO nuclear magnetic shielding tensors.
 SCF GIAO Magnetic shielding tensor (ppm):
      1  C    Isotropic =   103.9415   Anisotropy =    46.6850
   XX=   102.3746   YX=     6.3370   ZX=     4.3754
   XY=    -3.9913   YY=    90.2345   ZY=   -23.8032
   XZ=    14.9619   YZ=   -25.1313   ZZ=   119.2153
   Eigenvalues:    75.0074   101.7522   135.0648
      2  C    Isotropic =   135.8325   Anisotropy =    25.8217
   XX=   152.9751   YX=     0.4607   ZX=    -2.7851
   XY=    -2.7569   YY=   134.4446   ZY=    -1.7067
   XZ=     2.7188   YZ=     6.6940   ZZ=   120.0779
   Eigenvalues:   119.6566   134.7939   153.0470
      3  C    Isotropic =   105.5165   Anisotropy =    54.6640
   XX=   132.7602   YX=   -20.1619   ZX=    -8.5113
   XY=   -16.5152   YY=    95.9622   ZY=     6.3176
   XZ=    -6.1139   YZ=     7.2357   ZZ=    87.8269
   Eigenvalues:    83.7087    90.8816   141.9591
      4  C    Isotropic =   142.6727   Anisotropy =    21.2550
   XX=   143.3499   YX=     8.4912   ZX=    -4.5275
   XY=     8.6617   YY=   138.2706   ZY=    -8.8468
   XZ=    -6.1095   YZ=    -5.3241   ZZ=   146.3978
   Eigenvalues:   131.3086   139.8669   156.8427
      5  C    Isotropic =     8.0364   Anisotropy =   101.0699
   XX=   -38.8471   YX=   -61.8747   ZX=   -39.8867
   XY=   -53.1186   YY=    20.2635   ZY=     3.7049
   XZ=   -47.1806   YZ=    -6.3757   ZZ=    42.6927
   Eigenvalues:   -85.4206    34.1134    75.4163
      6  H    Isotropic =    28.2973   Anisotropy =     3.5016
   XX=    30.6237   YX=    -0.0130   ZX=     0.4073
   XY=    -0.1949   YY=    28.6819   ZY=     1.0087
   XZ=    -0.1437   YZ=    -0.1727   ZZ=    25.5863
   Eigenvalues:    25.5267    28.7335    30.6317
      7  H    Isotropic =    30.2346   Anisotropy =     7.1583
   XX=    31.8865   YX=    -3.1526   ZX=     1.1233
   XY=    -3.0777   YY=    31.7657   ZY=     0.2265
   XZ=     1.1690   YZ=     0.0742   ZZ=    27.0516
   Eigenvalues:    26.5986    29.0983    35.0068
      8  H    Isotropic =    29.6691   Anisotropy =     4.3514
   XX=    30.2710   YX=    -1.2099   ZX=     2.4788
   XY=    -0.1552   YY=    28.6855   ZY=     0.0170
   XZ=     1.7682   YZ=    -1.6224   ZZ=    30.0509
   Eigenvalues:    28.0049    28.4324    32.5701
      9  H    Isotropic =    29.6959   Anisotropy =     5.2959
   XX=    28.2703   YX=    -0.6485   ZX=    -2.3851
   XY=    -0.5113   YY=    31.1916   ZY=     1.7242
   XZ=    -2.0711   YZ=     2.2766   ZZ=    29.6258
   Eigenvalues:    26.4848    29.3764    33.2265
     10  O    Isotropic =    77.7815   Anisotropy =   179.6179
   XX=   165.9793   YX=    26.8242   ZX=   -53.2495
   XY=    -6.9526   YY=    55.9432   ZY=   147.8812
   XZ=   -27.9545   YZ=   149.9586   ZZ=    11.4218
   Eigenvalues:  -121.7331   157.5508   197.5267
     11  O    Isotropic =  -105.1921   Anisotropy =   576.6639
   XX=  -160.7552   YX=   -90.7685   ZX=  -278.4404
   XY=  -121.8630   YY=   -67.8590   ZY=   189.4817
   XZ=  -249.3531   YZ=   200.0433   ZZ=   -86.9619
   Eigenvalues:  -399.5730  -195.2537   279.2505
     12  C    Isotropic =   159.0635   Anisotropy =    17.6078
   XX=   165.8528   YX=     5.8389   ZX=     6.2063
   XY=     8.3941   YY=   154.7244   ZY=     4.7900
   XZ=     0.5783   YZ=     2.1086   ZZ=   156.6133
   Eigenvalues:   150.7107   155.6778   170.8020
     13  C    Isotropic =   176.0344   Anisotropy =    21.4783
   XX=   184.7807   YX=     2.2533   ZX=    -8.3176
   XY=     2.7347   YY=   171.5988   ZY=     5.1362
   XZ=   -12.0568   YZ=     3.3145   ZZ=   171.7235
   Eigenvalues:   163.2662   174.4837   190.3532
     14  C    Isotropic =   177.2698   Anisotropy =     9.7599
   XX=   175.0217   YX=     1.3447   ZX=     2.7873
   XY=     3.1312   YY=   175.3769   ZY=    -4.4047
   XZ=     1.6913   YZ=    -4.2323   ZZ=   181.4109
   Eigenvalues:   170.8840   177.1491   183.7765
     15  O    Isotropic =   239.1284   Anisotropy =    24.2245
   XX=   234.1331   YX=    13.1584   ZX=    -7.9646
   XY=    -0.2558   YY=   238.0676   ZY=    12.4970
   XZ=   -12.9563   YZ=    11.2032   ZZ=   245.1845
   Eigenvalues:   219.7737   242.3334   255.2780
     16  Si   Isotropic =   332.6599   Anisotropy =    41.4571
   XX=   336.1398   YX=   -29.4444   ZX=     3.7996
   XY=   -15.2148   YY=   339.2293   ZY=    -9.6644
   XZ=    -6.3534   YZ=    -0.7337   ZZ=   322.6106
   Eigenvalues:   313.1400   324.5418   360.2980
     17  C    Isotropic =   186.6179   Anisotropy =    13.2057
   XX=   189.5359   YX=    -2.8144   ZX=    -7.2663
   XY=    -3.2438   YY=   183.9532   ZY=    -4.6955
   XZ=    -7.2733   YZ=    -4.5443   ZZ=   186.3645
   Eigenvalues:   176.4646   187.9674   195.4217
     18  C    Isotropic =   185.8449   Anisotropy =    10.8476
   XX=   183.0135   YX=    -3.4581   ZX=     5.5158
   XY=    -4.4430   YY=   183.9513   ZY=     1.2734
   XZ=     4.3917   YZ=     4.0534   ZZ=   190.5699
   Eigenvalues:   177.2310   187.2271   193.0766
     19  C    Isotropic =   186.0490   Anisotropy =     8.3469
   XX=   187.5683   YX=     0.4007   ZX=     3.0166
   XY=     2.3718   YY=   189.9252   ZY=     2.6286
   XZ=     4.2349   YZ=     1.0039   ZZ=   180.6536
   Eigenvalues:   178.9813   187.5521   191.6136
     20  H    Isotropic =    31.9576   Anisotropy =     8.2743
   XX=    31.8437   YX=     3.1086   ZX=     2.6550
   XY=     2.6672   YY=    33.7813   ZY=     1.8269
   XZ=     2.7075   YZ=     2.6761   ZZ=    30.2477
   Eigenvalues:    28.2462    30.1527    37.4737
     21  H    Isotropic =    31.4334   Anisotropy =     7.5790
   XX=    33.7199   YX=    -0.0294   ZX=    -1.9937
   XY=    -0.6516   YY=    27.0459   ZY=    -1.4717
   XZ=    -3.5923   YZ=    -1.4390   ZZ=    33.5343
   Eigenvalues:    26.5974    31.2167    36.4860
     22  H    Isotropic =    32.2911   Anisotropy =    10.4104
   XX=    33.9791   YX=    -4.6776   ZX=     2.7662
   XY=    -5.0527   YY=    32.4306   ZY=    -1.9496
   XZ=     2.3311   YZ=    -1.6420   ZZ=    30.4635
   Eigenvalues:    28.2134    29.4285    39.2313
     23  H    Isotropic =    31.8820   Anisotropy =     7.2197
   XX=    34.0817   YX=    -0.3251   ZX=    -4.3946
   XY=     0.5224   YY=    31.3217   ZY=    -0.4584
   XZ=    -3.7861   YZ=    -0.2762   ZZ=    30.2426
   Eigenvalues:    27.6259    31.3250    36.6951
     24  H    Isotropic =    32.0799   Anisotropy =     7.3775
   XX=    30.8044   YX=    -0.3649   ZX=     2.9754
   XY=     0.1408   YY=    30.7965   ZY=     3.0079
   XZ=     2.7232   YZ=     2.1946   ZZ=    34.6389
   Eigenvalues:    28.3298    30.9117    36.9983
     25  H    Isotropic =    32.2743   Anisotropy =    10.5632
   XX=    31.8228   YX=    -4.4444   ZX=     0.5205
   XY=    -4.0738   YY=    36.8479   ZY=    -0.3227
   XZ=     0.5582   YZ=    -0.5220   ZZ=    28.1522
   Eigenvalues:    28.0657    29.4408    39.3164
     26  H    Isotropic =    31.9140   Anisotropy =     8.6809
   XX=    33.4811   YX=     4.2875   ZX=    -1.2363
   XY=     3.7674   YY=    33.6812   ZY=     0.4349
   XZ=    -1.5482   YZ=    -0.2494   ZZ=    28.5796
   Eigenvalues:    27.8384    30.2023    37.7012
     27  H    Isotropic =    32.3791   Anisotropy =    10.2318
   XX=    35.2582   YX=    -4.8158   ZX=    -1.0350
   XY=    -5.1328   YY=    32.7968   ZY=    -0.0105
   XZ=    -0.9231   YZ=    -0.2223   ZZ=    29.0823
   Eigenvalues:    28.2719    29.6650    39.2003
     28  H    Isotropic =    31.9825   Anisotropy =     8.3174
   XX=    30.6819   YX=    -0.1982   ZX=    -0.3572
   XY=    -0.5488   YY=    27.7483   ZY=     0.2447
   XZ=     0.3886   YZ=     0.3851   ZZ=    37.5173
   Eigenvalues:    27.6914    30.7286    37.5274
     29  H    Isotropic =    31.1368   Anisotropy =     9.0814
   XX=    30.4274   YX=     3.4552   ZX=     2.6222
   XY=     3.1900   YY=    28.7348   ZY=     2.0608
   XZ=     2.8721   YZ=     2.3022   ZZ=    34.2482
   Eigenvalues:    26.1522    30.0671    37.1911
     30  H    Isotropic =    31.4118   Anisotropy =     8.4384
   XX=    29.9707   YX=    -2.5923   ZX=     2.8092
   XY=    -2.3822   YY=    33.8281   ZY=    -2.6162
   XZ=     2.3393   YZ=    -2.8427   ZZ=    30.4366
   Eigenvalues:    27.6188    29.5791    37.0373
     31  H    Isotropic =    30.8284   Anisotropy =     7.6757
   XX=    32.4744   YX=     0.4752   ZX=    -2.2950
   XY=     0.7057   YY=    26.0142   ZY=    -0.7266
   XZ=    -2.6978   YZ=    -0.8819   ZZ=    33.9964
   Eigenvalues:    25.9140    30.6256    35.9455
     32  H    Isotropic =    30.5691   Anisotropy =     5.3686
   XX=    31.5512   YX=     1.1822   ZX=    -1.4179
   XY=     0.9501   YY=    31.9206   ZY=     3.3922
   XZ=    -1.2628   YZ=     3.8222   ZZ=    28.2355
   Eigenvalues:    25.5460    32.0131    34.1481
     33  H    Isotropic =    30.4989   Anisotropy =     5.9936
   XX=    33.1541   YX=     1.1365   ZX=     0.7661
   XY=     0.6493   YY=    25.6891   ZY=    -3.7993
   XZ=     1.0483   YZ=    -3.7577   ZZ=    32.6535
   Eigenvalues:    23.8819    33.1202    34.4946
     34  H    Isotropic =    30.9914   Anisotropy =    11.5000
   XX=    36.6951   YX=     4.0273   ZX=     1.9603
   XY=     4.0687   YY=    27.9698   ZY=     1.6273
   XZ=     1.1277   YZ=     1.2521   ZZ=    28.3093
   Eigenvalues:    26.0683    28.2479    38.6581
     35  H    Isotropic =    30.6252   Anisotropy =     7.8161
   XX=    31.5791   YX=     1.3402   ZX=    -1.5211
   XY=     1.1945   YY=    28.4152   ZY=    -4.5908
   XZ=    -0.8974   YZ=    -4.7757   ZZ=    31.8813
   Eigenvalues:    25.1348    30.9049    35.8360
     36  H    Isotropic =    31.2854   Anisotropy =     9.3344
   XX=    33.2448   YX=    -3.2954   ZX=    -2.9359
   XY=    -2.9375   YY=    32.3296   ZY=     2.0803
   XZ=    -2.8137   YZ=     2.9127   ZZ=    28.2818
   Eigenvalues:    26.7105    29.6374    37.5083
     37  C    Isotropic =   140.3772   Anisotropy =    14.1208
   XX=   135.9492   YX=     4.9568   ZX=     0.6065
   XY=    -3.6545   YY=   149.5806   ZY=    -6.2675
   XZ=     4.9649   YZ=     2.8745   ZZ=   135.6017
   Eigenvalues:   132.8148   138.5258   149.7910
     38  C    Isotropic =    45.1498   Anisotropy =   180.4363
   XX=   -69.3888   YX=    11.6640   ZX=   -39.7110
   XY=     7.0182   YY=    90.9439   ZY=   -55.7409
   XZ=   -43.2256   YZ=   -55.4691   ZZ=   113.8943
   Eigenvalues:   -78.3784    48.3870   165.4407
     39  C    Isotropic =    65.9553   Anisotropy =   138.8206
   XX=   -35.5686   YX=    -2.3071   ZX=   -43.4507
   XY=    -0.4544   YY=   113.4983   ZY=   -33.6305
   XZ=   -45.5644   YZ=   -38.4449   ZZ=   119.9363
   Eigenvalues:   -48.1306    87.4941   158.5024
     40  H    Isotropic =    30.1783   Anisotropy =     6.2918
   XX=    30.4040   YX=    -1.9867   ZX=     1.2820
   XY=    -1.0101   YY=    33.7683   ZY=     1.2302
   XZ=     1.8551   YZ=     1.0251   ZZ=    26.3626
   Eigenvalues:    25.5255    30.6367    34.3728
     41  H    Isotropic =    29.4955   Anisotropy =     3.7293
   XX=    26.7349   YX=     2.2621   ZX=     0.3692
   XY=     2.4856   YY=    30.0812   ZY=    -1.7300
   XZ=     0.7202   YZ=     0.3194   ZZ=    31.6703
   Eigenvalues:    25.3993    31.1055    31.9817
     42  H    Isotropic =    25.6710   Anisotropy =     7.3848
   XX=    23.8109   YX=     2.6374   ZX=     0.5886
   XY=     1.2951   YY=    29.5153   ZY=     1.9414
   XZ=    -0.3991   YZ=     1.7534   ZZ=    23.6867
   Eigenvalues:    22.7653    23.6534    30.5942
     43  H    Isotropic =    26.7334   Anisotropy =     6.8611
   XX=    23.6888   YX=    -0.2644   ZX=    -0.7071
   XY=     1.7690   YY=    30.0430   ZY=     2.7145
   XZ=     0.5319   YZ=     2.1019   ZZ=    26.4683
   Eigenvalues:    23.5361    25.3565    31.3074
     44  H    Isotropic =    26.8131   Anisotropy =     7.3021
   XX=    23.4625   YX=    -0.0181   ZX=    -0.1711
   XY=    -1.7600   YY=    30.7287   ZY=     1.7854
   XZ=    -1.7886   YZ=     2.2700   ZZ=    26.2481
   Eigenvalues:    23.1434    25.6148    31.6812
 End of Minotr F.D. properties file   721 does not exist.
 End of Minotr F.D. properties file   722 does not exist.
 End of Minotr F.D. properties file   788 does not exist.

 **********************************************************************

            Population analysis using the SCF density.

 **********************************************************************

 Orbital symmetries:
       Occupied  (A) (A) (A) (A) (A) (A) (A) (A) (A) (A) (A) (A)
                 (A) (A) (A) (A) (A) (A) (A) (A) (A) (A) (A) (A)
                 (A) (A) (A) (A) (A) (A) (A) (A) (A) (A) (A) (A)
                 (A) (A) (A) (A) (A) (A) (A) (A) (A) (A) (A) (A)
                 (A) (A) (A) (A) (A) (A) (A) (A) (A) (A) (A) (A)
                 (A) (A) (A) (A) (A) (A) (A) (A) (A) (A) (A) (A)
                 (A) (A)
       Virtual   (A) (A) (A) (A) (A) (A) (A) (A) (A) (A) (A) (A)
                 (A) (A) (A) (A) (A) (A) (A) (A) (A) (A) (A) (A)
                 (A) (A) (A) (A) (A) (A) (A) (A) (A) (A) (A) (A)
                 (A) (A) (A) (A) (A) (A) (A) (A) (A) (A) (A) (A)
                 (A) (A) (A) (A) (A) (A) (A) (A) (A) (A) (A) (A)
                 (A) (A) (A) (A) (A) (A) (A) (A) (A) (A) (A) (A)
                 (A) (A) (A) (A) (A) (A) (A) (A) (A) (A) (A) (A)
                 (A) (A) (A) (A) (A) (A) (A) (A) (A) (A) (A) (A)
                 (A) (A) (A) (A) (A) (A) (A) (A) (A) (A) (A) (A)
                 (A) (A) (A) (A) (A) (A) (A) (A) (A) (A) (A) (A)
                 (A) (A) (A) (A) (A) (A) (A) (A) (A) (A) (A) (A)
                 (A) (A) (A) (A) (A) (A) (A) (A) (A) (A) (A) (A)
                 (A) (A) (A) (A) (A) (A) (A) (A) (A) (A) (A) (A)
                 (A) (A) (A) (A) (A) (A) (A) (A) (A) (A) (A) (A)
                 (A) (A) (A) (A) (A) (A) (A) (A) (A) (A) (A) (A)
                 (A) (A) (A) (A) (A) (A) (A) (A) (A) (A) (A) (A)
                 (A) (A) (A) (A) (A) (A) (A) (A) (A) (A) (A) (A)
                 (A) (A) (A) (A) (A) (A) (A) (A) (A) (A) (A) (A)
                 (A) (A) (A) (A) (A) (A) (A) (A) (A) (A) (A) (A)
                 (A) (A) (A) (A) (A) (A) (A) (A) (A) (A) (A) (A)
                 (A) (A) (A) (A) (A) (A) (A) (A) (A) (A) (A) (A)
                 (A) (A) (A) (A) (A) (A) (A) (A) (A) (A) (A) (A)
                 (A) (A) (A) (A) (A) (A) (A) (A) (A) (A) (A) (A)
                 (A) (A) (A) (A) (A) (A) (A) (A) (A) (A) (A) (A)
                 (A) (A) (A) (A) (A) (A) (A) (A) (A) (A) (A) (A)
                 (A) (A) (A) (A) (A) (A) (A) (A) (A) (A) (A) (A)
                 (A) (A) (A) (A) (A) (A) (A) (A) (A) (A) (A) (A)
                 (A) (A) (A) (A) (A) (A) (A) (A) (A) (A) (A) (A)
 The electronic state is 1-A.
 Alpha  occ. eigenvalues --  -66.27215 -19.26082 -19.20574 -19.20064 -10.36904
 Alpha  occ. eigenvalues --  -10.32092 -10.30665 -10.25400 -10.25158 -10.24121
 Alpha  occ. eigenvalues --  -10.24067 -10.24013 -10.23010 -10.22844 -10.22235
 Alpha  occ. eigenvalues --  -10.20680 -10.20528 -10.20389  -5.32947  -3.66840
 Alpha  occ. eigenvalues --   -3.66538  -3.66522  -1.13501  -1.05133  -1.03868
 Alpha  occ. eigenvalues --   -0.85831  -0.83272  -0.80494  -0.77874  -0.73994
 Alpha  occ. eigenvalues --   -0.72506  -0.72012  -0.70072  -0.69901  -0.66799
 Alpha  occ. eigenvalues --   -0.63120  -0.61911  -0.58616  -0.56838  -0.54662
 Alpha  occ. eigenvalues --   -0.51460  -0.51032  -0.49091  -0.48847  -0.46928
 Alpha  occ. eigenvalues --   -0.45909  -0.44963  -0.44647  -0.43820  -0.43513
 Alpha  occ. eigenvalues --   -0.43043  -0.42465  -0.42254  -0.41996  -0.40960
 Alpha  occ. eigenvalues --   -0.40611  -0.40390  -0.39645  -0.39408  -0.39306
 Alpha  occ. eigenvalues --   -0.38703  -0.38127  -0.36953  -0.36419  -0.36004
 Alpha  occ. eigenvalues --   -0.35656  -0.35321  -0.33388  -0.32388  -0.31198
 Alpha  occ. eigenvalues --   -0.30197  -0.28816  -0.28364  -0.27208
 Alpha virt. eigenvalues --    0.00185   0.01209   0.04131   0.05129   0.05940
 Alpha virt. eigenvalues --    0.06762   0.07648   0.08069   0.08490   0.08940
 Alpha virt. eigenvalues --    0.10029   0.10414   0.10550   0.10972   0.11418
 Alpha virt. eigenvalues --    0.11761   0.12192   0.12840   0.13110   0.13690
 Alpha virt. eigenvalues --    0.13955   0.14395   0.14792   0.15323   0.15777
 Alpha virt. eigenvalues --    0.15938   0.16249   0.16608   0.17372   0.17657
 Alpha virt. eigenvalues --    0.18597   0.18967   0.19256   0.19925   0.20346
 Alpha virt. eigenvalues --    0.21409   0.21690   0.23364   0.24782   0.25259
 Alpha virt. eigenvalues --    0.25862   0.26387   0.26602   0.27147   0.27969
 Alpha virt. eigenvalues --    0.29621   0.30172   0.30998   0.32069   0.32643
 Alpha virt. eigenvalues --    0.32926   0.33370   0.34213   0.35428   0.36353
 Alpha virt. eigenvalues --    0.36638   0.37294   0.38875   0.40127   0.40406
 Alpha virt. eigenvalues --    0.41766   0.42959   0.43881   0.44686   0.44910
 Alpha virt. eigenvalues --    0.45297   0.45679   0.46239   0.47518   0.48396
 Alpha virt. eigenvalues --    0.49635   0.49995   0.51467   0.52415   0.52994
 Alpha virt. eigenvalues --    0.53864   0.54026   0.54464   0.55267   0.56138
 Alpha virt. eigenvalues --    0.57023   0.57370   0.58170   0.58720   0.58865
 Alpha virt. eigenvalues --    0.59437   0.59804   0.59933   0.60588   0.61193
 Alpha virt. eigenvalues --    0.61361   0.61949   0.62211   0.62367   0.62830
 Alpha virt. eigenvalues --    0.63446   0.63547   0.64277   0.65035   0.65713
 Alpha virt. eigenvalues --    0.66532   0.67047   0.67552   0.67696   0.68306
 Alpha virt. eigenvalues --    0.68755   0.69320   0.70054   0.70602   0.70682
 Alpha virt. eigenvalues --    0.71200   0.71588   0.72126   0.73185   0.74240
 Alpha virt. eigenvalues --    0.75842   0.77138   0.78920   0.80707   0.81826
 Alpha virt. eigenvalues --    0.82306   0.83468   0.85266   0.87837   0.88246
 Alpha virt. eigenvalues --    0.88860   0.90587   0.92780   0.93789   0.95209
 Alpha virt. eigenvalues --    0.95580   0.96868   0.97358   0.98020   0.99700
 Alpha virt. eigenvalues --    1.03034   1.04080   1.05453   1.07271   1.10638
 Alpha virt. eigenvalues --    1.12856   1.15489   1.16222   1.19814   1.20918
 Alpha virt. eigenvalues --    1.22251   1.23197   1.26824   1.27641   1.28357
 Alpha virt. eigenvalues --    1.29372   1.30607   1.32269   1.34252   1.35152
 Alpha virt. eigenvalues --    1.36604   1.37082   1.38565   1.40873   1.41606
 Alpha virt. eigenvalues --    1.43426   1.44869   1.45556   1.47128   1.47444
 Alpha virt. eigenvalues --    1.50075   1.50894   1.51682   1.52364   1.53844
 Alpha virt. eigenvalues --    1.54302   1.55182   1.55518   1.56845   1.58177
 Alpha virt. eigenvalues --    1.58922   1.59282   1.60095   1.60353   1.60597
 Alpha virt. eigenvalues --    1.61154   1.61894   1.62687   1.63179   1.64416
 Alpha virt. eigenvalues --    1.65162   1.66509   1.67377   1.68219   1.68921
 Alpha virt. eigenvalues --    1.70283   1.71694   1.72406   1.73943   1.74762
 Alpha virt. eigenvalues --    1.74969   1.78621   1.79155   1.79967   1.80441
 Alpha virt. eigenvalues --    1.81600   1.82708   1.84234   1.85790   1.87030
 Alpha virt. eigenvalues --    1.88526   1.89595   1.93937   1.96099   1.96884
 Alpha virt. eigenvalues --    2.01154   2.01892   2.03348   2.08434   2.11104
 Alpha virt. eigenvalues --    2.15658   2.17761   2.19474   2.22546   2.25759
 Alpha virt. eigenvalues --    2.28398   2.31310   2.35031   2.36201   2.39895
 Alpha virt. eigenvalues --    2.41601   2.42111   2.42457   2.42834   2.43998
 Alpha virt. eigenvalues --    2.44504   2.44852   2.45407   2.46801   2.46959
 Alpha virt. eigenvalues --    2.48201   2.48769   2.50354   2.50675   2.52289
 Alpha virt. eigenvalues --    2.52651   2.53547   2.54553   2.56225   2.57136
 Alpha virt. eigenvalues --    2.61787   2.64859   2.67504   2.72766   2.80456
 Alpha virt. eigenvalues --    2.81574   2.87356   2.88743   2.90532   2.91247
 Alpha virt. eigenvalues --    2.92687   2.93000   2.94692   2.96212   2.96786
 Alpha virt. eigenvalues --    2.98825   3.00490   3.00972   3.04309   3.04883
 Alpha virt. eigenvalues --    3.07392   3.10839   3.12221   3.13323   3.15863
 Alpha virt. eigenvalues --    3.16913   3.16974   3.17501   3.19241   3.21344
 Alpha virt. eigenvalues --    3.22434   3.22756   3.23220   3.23725   3.24517
 Alpha virt. eigenvalues --    3.25621   3.27613   3.28569   3.29262   3.30356
 Alpha virt. eigenvalues --    3.33181   3.34710   3.35448   3.39733   3.42296
 Alpha virt. eigenvalues --    3.46102   3.51685   3.57231   3.59817   3.62029
 Alpha virt. eigenvalues --    3.75691   3.88284   3.91605   3.96723   4.05436
 Alpha virt. eigenvalues --    4.07018   4.12770   4.18908   4.24842   4.26115
 Alpha virt. eigenvalues --    4.96606   5.01434   5.04159   5.10946   5.16850
 Alpha virt. eigenvalues --    5.26196   5.52822   5.53687   5.75880   5.84506
 Alpha virt. eigenvalues --   11.52304  11.53507  11.57823  23.42075  23.49413
 Alpha virt. eigenvalues --   23.54200  23.55157  23.57331  23.62991  23.71170
 Alpha virt. eigenvalues --   23.73776  23.79010  23.80251  23.83351  23.87056
 Alpha virt. eigenvalues --   23.91078  24.29368  49.99478  50.06149  50.12656
 Alpha virt. eigenvalues --  141.26850
          Condensed to atoms (all electrons):
               1          2          3          4          5          6
     1  C    5.281906   0.296727  -0.065826  -0.031431  -0.066273   0.369790
     2  C    0.296727   5.438132   0.370347  -0.058425  -0.013531  -0.047061
     3  C   -0.065826   0.370347   5.084286   0.224550  -0.029454  -0.010973
     4  C   -0.031431  -0.058425   0.224550   5.931679   0.248956   0.004698
     5  C   -0.066273  -0.013531  -0.029454   0.248956   4.406253  -0.008201
     6  H    0.369790  -0.047061  -0.010973   0.004698  -0.008201   0.499599
     7  H   -0.060179   0.397047  -0.052508  -0.000741  -0.000258   0.010046
     8  H    0.000306   0.005032  -0.023838   0.377111  -0.025028  -0.000110
     9  H   -0.000973   0.001969  -0.035330   0.358280  -0.025320   0.000953
    10  O    0.189906  -0.024436  -0.001460  -0.103406   0.341710  -0.030109
    11  O    0.004154  -0.001753   0.004087  -0.094188   0.649062  -0.000260
    12  C    0.320037  -0.053575   0.005993  -0.000739   0.002734  -0.040812
    13  C   -0.069584   0.006318  -0.000155  -0.000136   0.000097  -0.006730
    14  C   -0.056777   0.274875  -0.051142   0.006773   0.000130   0.002197
    15  O    0.004857  -0.048530   0.222621  -0.044277   0.002059   0.000092
    16  Si   0.003555  -0.009821  -0.040742  -0.025533   0.001921  -0.000241
    17  C    0.000001  -0.000264   0.002466  -0.000266  -0.000007   0.000000
    18  C    0.000049  -0.000320  -0.000474   0.002269  -0.000469   0.000000
    19  C    0.000266  -0.001011   0.001743  -0.000270   0.000341  -0.000014
    20  H    0.000006  -0.000044   0.000396  -0.000100   0.000138  -0.000001
    21  H    0.000003  -0.000038   0.000715  -0.004642   0.000769  -0.000003
    22  H    0.000000   0.000004  -0.000056   0.000277  -0.000038   0.000000
    23  H   -0.000555  -0.000106   0.000109   0.001810   0.003556   0.000025
    24  H    0.000060  -0.000044   0.000417   0.000057   0.000005  -0.000013
    25  H   -0.000017   0.000261  -0.000094   0.000023   0.000004   0.000001
    26  H    0.000001  -0.000021  -0.000061  -0.000060   0.000004   0.000000
    27  H    0.000000   0.000003  -0.000055  -0.000002   0.000002   0.000000
    28  H   -0.000001   0.000024  -0.000007  -0.000036   0.000003   0.000000
    29  H   -0.008584  -0.029669   0.006431  -0.000242  -0.000022  -0.000554
    30  H   -0.004157  -0.038322  -0.008766  -0.000200   0.000016   0.002560
    31  H    0.007468  -0.041147  -0.003482   0.000691  -0.000073  -0.000454
    32  H   -0.052336  -0.002896  -0.000146   0.000162  -0.000472   0.008061
    33  H   -0.039580  -0.009813  -0.000275   0.000082  -0.000051  -0.000734
    34  H    0.008148  -0.000170   0.000009   0.000001   0.000011  -0.000283
    35  H   -0.011627   0.000167  -0.000066   0.000377   0.000510   0.000562
    36  H   -0.004253   0.000074   0.000011  -0.000013  -0.000117   0.004547
    37  C    0.000561  -0.078446   0.305103  -0.080822   0.004455   0.004317
    38  C   -0.000455   0.008479  -0.051883  -0.024187   0.000321  -0.000286
    39  C   -0.000022  -0.000058  -0.003232   0.001975   0.000022  -0.000050
    40  H    0.000508  -0.001118  -0.042583   0.000665  -0.000379   0.003651
    41  H    0.000675  -0.012298  -0.040647   0.008058  -0.000145  -0.000137
    42  H   -0.000016   0.000060  -0.001893  -0.000422  -0.000019  -0.000001
    43  H   -0.000001   0.000017  -0.000352   0.000084  -0.000001  -0.000003
    44  H   -0.000003  -0.000047   0.000167  -0.000109  -0.000003   0.000006
               7          8          9         10         11         12
     1  C   -0.060179   0.000306  -0.000973   0.189906   0.004154   0.320037
     2  C    0.397047   0.005032   0.001969  -0.024436  -0.001753  -0.053575
     3  C   -0.052508  -0.023838  -0.035330  -0.001460   0.004087   0.005993
     4  C   -0.000741   0.377111   0.358280  -0.103406  -0.094188  -0.000739
     5  C   -0.000258  -0.025028  -0.025320   0.341710   0.649062   0.002734
     6  H    0.010046  -0.000110   0.000953  -0.030109  -0.000260  -0.040812
     7  H    0.471968  -0.000311  -0.000236   0.005240  -0.001381  -0.006836
     8  H   -0.000311   0.390893  -0.016368   0.003606   0.002164   0.000085
     9  H   -0.000236  -0.016368   0.419671  -0.000154   0.001241   0.000244
    10  O    0.005240   0.003606  -0.000154   8.045761  -0.073511  -0.048315
    11  O   -0.001381   0.002164   0.001241  -0.073511   7.870120  -0.000159
    12  C   -0.006836   0.000085   0.000244  -0.048315  -0.000159   5.304251
    13  C   -0.000608  -0.000004  -0.000015  -0.004357  -0.000014   0.313774
    14  C   -0.035359  -0.000066  -0.000375   0.004719  -0.000010  -0.007118
    15  O   -0.004397  -0.003940   0.003433  -0.000060   0.000013  -0.000084
    16  Si  -0.003069  -0.005393   0.002970  -0.002823   0.008150  -0.000195
    17  C   -0.000322  -0.000189   0.000012   0.000000   0.000002   0.000000
    18  C   -0.000140  -0.002233  -0.000029  -0.000014  -0.005680   0.000000
    19  C   -0.004531   0.000288  -0.000032  -0.000080  -0.001734  -0.000032
    20  H   -0.000014   0.000213  -0.000064  -0.000002  -0.000059   0.000000
    21  H   -0.000085   0.001276   0.000165   0.000322   0.018067   0.000002
    22  H    0.000004   0.000436  -0.000007   0.000000  -0.000025   0.000000
    23  H   -0.001191  -0.000111   0.000023   0.000369   0.003069   0.000029
    24  H   -0.001399  -0.000005   0.000006  -0.000109   0.000063   0.000037
    25  H    0.000816   0.000009  -0.000001   0.000001  -0.000007   0.000000
    26  H   -0.000017  -0.000032   0.000002   0.000000   0.000001   0.000000
    27  H    0.000005   0.000005   0.000000   0.000000   0.000001   0.000000
    28  H   -0.000046  -0.000011   0.000002   0.000000   0.000000   0.000000
    29  H   -0.007588   0.000015   0.000024   0.000012   0.000001   0.003427
    30  H    0.007130  -0.000009  -0.000059   0.000002  -0.000001  -0.001591
    31  H   -0.005508  -0.000021  -0.000043  -0.000153   0.000001   0.000242
    32  H    0.005623   0.000003  -0.000012   0.001723  -0.000058   0.394804
    33  H    0.000643  -0.000005  -0.000002   0.003552   0.000006   0.389048
    34  H   -0.000008   0.000000   0.000000  -0.000079   0.000000  -0.037764
    35  H    0.000119  -0.000009  -0.000014   0.012944   0.000113  -0.039270
    36  H    0.000003   0.000001  -0.000004  -0.000349   0.000000  -0.040076
    37  C    0.006080  -0.005274  -0.006732  -0.000272  -0.000092  -0.000439
    38  C   -0.000222   0.002817   0.001406  -0.000019  -0.000018   0.000010
    39  C   -0.000005   0.001317   0.003576   0.000000   0.000001   0.000000
    40  H    0.000401   0.000318  -0.001894  -0.000065   0.000005   0.000022
    41  H   -0.000375  -0.000034   0.000913  -0.000018   0.000005  -0.000012
    42  H    0.000012   0.000160  -0.000042   0.000001   0.000000   0.000001
    43  H   -0.000001   0.000064   0.000038   0.000000   0.000000   0.000000
    44  H    0.000001  -0.000021   0.000282   0.000001   0.000000   0.000000
              13         14         15         16         17         18
     1  C   -0.069584  -0.056777   0.004857   0.003555   0.000001   0.000049
     2  C    0.006318   0.274875  -0.048530  -0.009821  -0.000264  -0.000320
     3  C   -0.000155  -0.051142   0.222621  -0.040742   0.002466  -0.000474
     4  C   -0.000136   0.006773  -0.044277  -0.025533  -0.000266   0.002269
     5  C    0.000097   0.000130   0.002059   0.001921  -0.000007  -0.000469
     6  H   -0.006730   0.002197   0.000092  -0.000241   0.000000   0.000000
     7  H   -0.000608  -0.035359  -0.004397  -0.003069  -0.000322  -0.000140
     8  H   -0.000004  -0.000066  -0.003940  -0.005393  -0.000189  -0.002233
     9  H   -0.000015  -0.000375   0.003433   0.002970   0.000012  -0.000029
    10  O   -0.004357   0.004719  -0.000060  -0.002823   0.000000  -0.000014
    11  O   -0.000014  -0.000010   0.000013   0.008150   0.000002  -0.005680
    12  C    0.313774  -0.007118  -0.000084  -0.000195   0.000000   0.000000
    13  C    5.337374  -0.000082   0.000001   0.000030   0.000000   0.000000
    14  C   -0.000082   5.427906  -0.000984  -0.000737  -0.000008   0.000006
    15  O    0.000001  -0.000984   8.280344   0.358997  -0.031437  -0.025596
    16  Si   0.000030  -0.000737   0.358997  11.530052   0.330261   0.313193
    17  C    0.000000  -0.000008  -0.031437   0.330261   5.725117  -0.046209
    18  C    0.000000   0.000006  -0.025596   0.313193  -0.046209   5.812277
    19  C    0.000000   0.000334  -0.024890   0.311909  -0.046052  -0.054659
    20  H    0.000000   0.000001  -0.002219  -0.026297  -0.000295   0.369122
    21  H    0.000000  -0.000001  -0.001505  -0.025640   0.002204   0.355037
    22  H    0.000000   0.000000   0.000848  -0.010763  -0.000642   0.361325
    23  H   -0.000009   0.000077  -0.001331  -0.025079   0.002465  -0.001346
    24  H   -0.000001   0.000091  -0.002153  -0.026411  -0.000363   0.002280
    25  H    0.000000  -0.000010   0.000816  -0.010307  -0.000566   0.000208
    26  H    0.000000  -0.000005  -0.001941  -0.024399   0.371102  -0.000822
    27  H    0.000000  -0.000002   0.001154  -0.014873   0.362554   0.000358
    28  H    0.000000   0.000000  -0.002005  -0.024358   0.370183   0.002100
    29  H    0.000213   0.391094  -0.000295  -0.000300   0.000001   0.000000
    30  H   -0.000143   0.386361   0.000025  -0.000078   0.000000   0.000000
    31  H    0.000020   0.387706   0.006238   0.001922   0.000012   0.000022
    32  H   -0.040315  -0.000418  -0.000009  -0.000141   0.000000   0.000000
    33  H   -0.035849   0.003125  -0.000004  -0.000028   0.000000   0.000000
    34  H    0.392618  -0.000013   0.000000   0.000000   0.000000   0.000000
    35  H    0.385239  -0.000043   0.000000  -0.000001   0.000000   0.000000
    36  H    0.384147  -0.000032   0.000000   0.000000   0.000000   0.000000
    37  C    0.000012  -0.019363  -0.078493   0.000199   0.000057   0.000031
    38  C    0.000000  -0.000095   0.008438   0.001154  -0.000075  -0.000211
    39  C    0.000000  -0.000032   0.000978   0.000504  -0.000002  -0.000024
    40  H   -0.000013  -0.001561   0.003880  -0.000036   0.000000   0.000009
    41  H    0.000001   0.003316   0.002050   0.000290  -0.000080   0.000020
    42  H    0.000000  -0.000081   0.004226   0.001127   0.000142   0.000274
    43  H    0.000000   0.000000   0.000012   0.000005   0.000000   0.000001
    44  H    0.000000  -0.000012   0.000000   0.000001   0.000000   0.000000
              19         20         21         22         23         24
     1  C    0.000266   0.000006   0.000003   0.000000  -0.000555   0.000060
     2  C   -0.001011  -0.000044  -0.000038   0.000004  -0.000106  -0.000044
     3  C    0.001743   0.000396   0.000715  -0.000056   0.000109   0.000417
     4  C   -0.000270  -0.000100  -0.004642   0.000277   0.001810   0.000057
     5  C    0.000341   0.000138   0.000769  -0.000038   0.003556   0.000005
     6  H   -0.000014  -0.000001  -0.000003   0.000000   0.000025  -0.000013
     7  H   -0.004531  -0.000014  -0.000085   0.000004  -0.001191  -0.001399
     8  H    0.000288   0.000213   0.001276   0.000436  -0.000111  -0.000005
     9  H   -0.000032  -0.000064   0.000165  -0.000007   0.000023   0.000006
    10  O   -0.000080  -0.000002   0.000322   0.000000   0.000369  -0.000109
    11  O   -0.001734  -0.000059   0.018067  -0.000025   0.003069   0.000063
    12  C   -0.000032   0.000000   0.000002   0.000000   0.000029   0.000037
    13  C    0.000000   0.000000   0.000000   0.000000  -0.000009  -0.000001
    14  C    0.000334   0.000001  -0.000001   0.000000   0.000077   0.000091
    15  O   -0.024890  -0.002219  -0.001505   0.000848  -0.001331  -0.002153
    16  Si   0.311909  -0.026297  -0.025640  -0.010763  -0.025079  -0.026411
    17  C   -0.046052  -0.000295   0.002204  -0.000642   0.002465  -0.000363
    18  C   -0.054659   0.369122   0.355037   0.361325  -0.001346   0.002280
    19  C    5.803198   0.002186  -0.001344   0.000523   0.364315   0.369348
    20  H    0.002186   0.454625  -0.019109  -0.021111  -0.000050  -0.000085
    21  H   -0.001344  -0.019109   0.440010  -0.020874   0.000611  -0.000010
    22  H    0.000523  -0.021111  -0.020874   0.450256   0.000052  -0.000053
    23  H    0.364315  -0.000050   0.000611   0.000052   0.437910  -0.019551
    24  H    0.369348  -0.000085  -0.000010  -0.000053  -0.019551   0.456567
    25  H    0.362781  -0.000054  -0.000030   0.000301  -0.020066  -0.021749
    26  H    0.002111   0.000980  -0.000025  -0.000057  -0.000079  -0.000066
    27  H    0.000134  -0.000029  -0.000029   0.000777  -0.000056  -0.000028
    28  H   -0.000959  -0.000078  -0.000078  -0.000044  -0.000046   0.001214
    29  H    0.000069   0.000000   0.000000   0.000000   0.000013   0.000138
    30  H   -0.000004   0.000000   0.000000   0.000000  -0.000003  -0.000010
    31  H   -0.000035   0.000002   0.000004   0.000000  -0.000008   0.000067
    32  H    0.000071   0.000000  -0.000001   0.000000   0.000148   0.000015
    33  H   -0.000003   0.000000   0.000000   0.000000   0.000003  -0.000002
    34  H    0.000000   0.000000   0.000000   0.000000   0.000000   0.000000
    35  H   -0.000002   0.000000   0.000000   0.000000   0.000012  -0.000001
    36  H    0.000000   0.000000   0.000000   0.000000   0.000000   0.000000
    37  C   -0.000284   0.000088  -0.000039   0.000000  -0.000055  -0.000065
    38  C    0.000027   0.000211  -0.000093   0.000000   0.000010   0.000006
    39  C    0.000001   0.000008  -0.000008   0.000000   0.000000   0.000000
    40  H    0.000010   0.000003   0.000001   0.000000   0.000001   0.000000
    41  H    0.000001   0.000004   0.000008   0.000000  -0.000004   0.000002
    42  H    0.000019   0.000505  -0.000002  -0.000002   0.000001   0.000001
    43  H    0.000000  -0.000001   0.000000   0.000000   0.000000   0.000000
    44  H    0.000000   0.000001   0.000000   0.000000   0.000000   0.000000
              25         26         27         28         29         30
     1  C   -0.000017   0.000001   0.000000  -0.000001  -0.008584  -0.004157
     2  C    0.000261  -0.000021   0.000003   0.000024  -0.029669  -0.038322
     3  C   -0.000094  -0.000061  -0.000055  -0.000007   0.006431  -0.008766
     4  C    0.000023  -0.000060  -0.000002  -0.000036  -0.000242  -0.000200
     5  C    0.000004   0.000004   0.000002   0.000003  -0.000022   0.000016
     6  H    0.000001   0.000000   0.000000   0.000000  -0.000554   0.002560
     7  H    0.000816  -0.000017   0.000005  -0.000046  -0.007588   0.007130
     8  H    0.000009  -0.000032   0.000005  -0.000011   0.000015  -0.000009
     9  H   -0.000001   0.000002   0.000000   0.000002   0.000024  -0.000059
    10  O    0.000001   0.000000   0.000000   0.000000   0.000012   0.000002
    11  O   -0.000007   0.000001   0.000001   0.000000   0.000001  -0.000001
    12  C    0.000000   0.000000   0.000000   0.000000   0.003427  -0.001591
    13  C    0.000000   0.000000   0.000000   0.000000   0.000213  -0.000143
    14  C   -0.000010  -0.000005  -0.000002   0.000000   0.391094   0.386361
    15  O    0.000816  -0.001941   0.001154  -0.002005  -0.000295   0.000025
    16  Si  -0.010307  -0.024399  -0.014873  -0.024358  -0.000300  -0.000078
    17  C   -0.000566   0.371102   0.362554   0.370183   0.000001   0.000000
    18  C    0.000208  -0.000822   0.000358   0.002100   0.000000   0.000000
    19  C    0.362781   0.002111   0.000134  -0.000959   0.000069  -0.000004
    20  H   -0.000054   0.000980  -0.000029  -0.000078   0.000000   0.000000
    21  H   -0.000030  -0.000025  -0.000029  -0.000078   0.000000   0.000000
    22  H    0.000301  -0.000057   0.000777  -0.000044   0.000000   0.000000
    23  H   -0.020066  -0.000079  -0.000056  -0.000046   0.000013  -0.000003
    24  H   -0.021749  -0.000066  -0.000028   0.001214   0.000138  -0.000010
    25  H    0.443320  -0.000082   0.000633  -0.000027  -0.000003   0.000000
    26  H   -0.000082   0.454600  -0.021859  -0.019672   0.000000   0.000000
    27  H    0.000633  -0.021859   0.461037  -0.021822   0.000000   0.000000
    28  H   -0.000027  -0.019672  -0.021822   0.455672   0.000000  -0.000002
    29  H   -0.000003   0.000000   0.000000   0.000000   0.450071  -0.026689
    30  H    0.000000   0.000000   0.000000  -0.000002  -0.026689   0.465884
    31  H   -0.000003   0.000001  -0.000002   0.000108  -0.023974  -0.024722
    32  H   -0.000003   0.000000   0.000000   0.000000   0.000718   0.000156
    33  H    0.000000   0.000000   0.000000   0.000000  -0.002272   0.000599
    34  H    0.000000   0.000000   0.000000   0.000000   0.000003   0.000005
    35  H    0.000000   0.000000   0.000000   0.000000  -0.000039   0.000000
    36  H    0.000000   0.000000   0.000000   0.000000   0.000016   0.000009
    37  C    0.000005   0.000082   0.000002   0.000007   0.000446   0.002823
    38  C    0.000000  -0.000011   0.000000   0.000006   0.000016   0.000282
    39  C    0.000000  -0.000003   0.000000   0.000000   0.000001  -0.000010
    40  H    0.000000  -0.000002   0.000000  -0.000002  -0.000154   0.001084
    41  H    0.000001  -0.000013   0.000002  -0.000018   0.000343  -0.002259
    42  H    0.000000   0.000252  -0.000007  -0.000017   0.000001  -0.000002
    43  H    0.000000  -0.000001   0.000000   0.000000   0.000000   0.000000
    44  H    0.000000   0.000000   0.000000   0.000000   0.000000  -0.000008
              31         32         33         34         35         36
     1  C    0.007468  -0.052336  -0.039580   0.008148  -0.011627  -0.004253
     2  C   -0.041147  -0.002896  -0.009813  -0.000170   0.000167   0.000074
     3  C   -0.003482  -0.000146  -0.000275   0.000009  -0.000066   0.000011
     4  C    0.000691   0.000162   0.000082   0.000001   0.000377  -0.000013
     5  C   -0.000073  -0.000472  -0.000051   0.000011   0.000510  -0.000117
     6  H   -0.000454   0.008061  -0.000734  -0.000283   0.000562   0.004547
     7  H   -0.005508   0.005623   0.000643  -0.000008   0.000119   0.000003
     8  H   -0.000021   0.000003  -0.000005   0.000000  -0.000009   0.000001
     9  H   -0.000043  -0.000012  -0.000002   0.000000  -0.000014  -0.000004
    10  O   -0.000153   0.001723   0.003552  -0.000079   0.012944  -0.000349
    11  O    0.000001  -0.000058   0.000006   0.000000   0.000113   0.000000
    12  C    0.000242   0.394804   0.389048  -0.037764  -0.039270  -0.040076
    13  C    0.000020  -0.040315  -0.035849   0.392618   0.385239   0.384147
    14  C    0.387706  -0.000418   0.003125  -0.000013  -0.000043  -0.000032
    15  O    0.006238  -0.000009  -0.000004   0.000000   0.000000   0.000000
    16  Si   0.001922  -0.000141  -0.000028   0.000000  -0.000001   0.000000
    17  C    0.000012   0.000000   0.000000   0.000000   0.000000   0.000000
    18  C    0.000022   0.000000   0.000000   0.000000   0.000000   0.000000
    19  C   -0.000035   0.000071  -0.000003   0.000000  -0.000002   0.000000
    20  H    0.000002   0.000000   0.000000   0.000000   0.000000   0.000000
    21  H    0.000004  -0.000001   0.000000   0.000000   0.000000   0.000000
    22  H    0.000000   0.000000   0.000000   0.000000   0.000000   0.000000
    23  H   -0.000008   0.000148   0.000003   0.000000   0.000012   0.000000
    24  H    0.000067   0.000015  -0.000002   0.000000  -0.000001   0.000000
    25  H   -0.000003  -0.000003   0.000000   0.000000   0.000000   0.000000
    26  H    0.000001   0.000000   0.000000   0.000000   0.000000   0.000000
    27  H   -0.000002   0.000000   0.000000   0.000000   0.000000   0.000000
    28  H    0.000108   0.000000   0.000000   0.000000   0.000000   0.000000
    29  H   -0.023974   0.000718  -0.002272   0.000003  -0.000039   0.000016
    30  H   -0.024722   0.000156   0.000599   0.000005   0.000000   0.000009
    31  H    0.442462  -0.000265   0.000423  -0.000001   0.000005  -0.000003
    32  H   -0.000265   0.478769  -0.026419  -0.004602  -0.004027   0.006786
    33  H    0.000423  -0.026419   0.474717  -0.004487   0.006930  -0.004804
    34  H   -0.000001  -0.004602  -0.004487   0.468583  -0.025401  -0.027410
    35  H    0.000005  -0.004027   0.006930  -0.025401   0.459850  -0.027586
    36  H   -0.000003   0.006786  -0.004804  -0.027410  -0.027586   0.487212
    37  C   -0.004645  -0.000002   0.000007   0.000000   0.000003  -0.000009
    38  C   -0.000326   0.000001  -0.000001   0.000000   0.000000   0.000000
    39  C   -0.000009   0.000000   0.000000   0.000000   0.000000   0.000000
    40  H    0.000215   0.000003   0.000018   0.000000   0.000000  -0.000015
    41  H    0.002209   0.000002  -0.000011   0.000000   0.000000   0.000000
    42  H    0.000018   0.000000   0.000000   0.000000   0.000000   0.000000
    43  H    0.000000   0.000000   0.000000   0.000000   0.000000   0.000000
    44  H    0.000001   0.000000   0.000000   0.000000   0.000000   0.000000
              37         38         39         40         41         42
     1  C    0.000561  -0.000455  -0.000022   0.000508   0.000675  -0.000016
     2  C   -0.078446   0.008479  -0.000058  -0.001118  -0.012298   0.000060
     3  C    0.305103  -0.051883  -0.003232  -0.042583  -0.040647  -0.001893
     4  C   -0.080822  -0.024187   0.001975   0.000665   0.008058  -0.000422
     5  C    0.004455   0.000321   0.000022  -0.000379  -0.000145  -0.000019
     6  H    0.004317  -0.000286  -0.000050   0.003651  -0.000137  -0.000001
     7  H    0.006080  -0.000222  -0.000005   0.000401  -0.000375   0.000012
     8  H   -0.005274   0.002817   0.001317   0.000318  -0.000034   0.000160
     9  H   -0.006732   0.001406   0.003576  -0.001894   0.000913  -0.000042
    10  O   -0.000272  -0.000019   0.000000  -0.000065  -0.000018   0.000001
    11  O   -0.000092  -0.000018   0.000001   0.000005   0.000005   0.000000
    12  C   -0.000439   0.000010   0.000000   0.000022  -0.000012   0.000001
    13  C    0.000012   0.000000   0.000000  -0.000013   0.000001   0.000000
    14  C   -0.019363  -0.000095  -0.000032  -0.001561   0.003316  -0.000081
    15  O   -0.078493   0.008438   0.000978   0.003880   0.002050   0.004226
    16  Si   0.000199   0.001154   0.000504  -0.000036   0.000290   0.001127
    17  C    0.000057  -0.000075  -0.000002   0.000000  -0.000080   0.000142
    18  C    0.000031  -0.000211  -0.000024   0.000009   0.000020   0.000274
    19  C   -0.000284   0.000027   0.000001   0.000010   0.000001   0.000019
    20  H    0.000088   0.000211   0.000008   0.000003   0.000004   0.000505
    21  H   -0.000039  -0.000093  -0.000008   0.000001   0.000008  -0.000002
    22  H    0.000000   0.000000   0.000000   0.000000   0.000000  -0.000002
    23  H   -0.000055   0.000010   0.000000   0.000001  -0.000004   0.000001
    24  H   -0.000065   0.000006   0.000000   0.000000   0.000002   0.000001
    25  H    0.000005   0.000000   0.000000   0.000000   0.000001   0.000000
    26  H    0.000082  -0.000011  -0.000003  -0.000002  -0.000013   0.000252
    27  H    0.000002   0.000000   0.000000   0.000000   0.000002  -0.000007
    28  H    0.000007   0.000006   0.000000  -0.000002  -0.000018  -0.000017
    29  H    0.000446   0.000016   0.000001  -0.000154   0.000343   0.000001
    30  H    0.002823   0.000282  -0.000010   0.001084  -0.002259  -0.000002
    31  H   -0.004645  -0.000326  -0.000009   0.000215   0.002209   0.000018
    32  H   -0.000002   0.000001   0.000000   0.000003   0.000002   0.000000
    33  H    0.000007  -0.000001   0.000000   0.000018  -0.000011   0.000000
    34  H    0.000000   0.000000   0.000000   0.000000   0.000000   0.000000
    35  H    0.000003   0.000000   0.000000   0.000000   0.000000   0.000000
    36  H   -0.000009   0.000000   0.000000  -0.000015   0.000000   0.000000
    37  C    5.451346   0.329079  -0.064557   0.388026   0.390331  -0.047912
    38  C    0.329079   5.066820   0.614336  -0.048632  -0.040078   0.398049
    39  C   -0.064557   0.614336   5.154038   0.002016   0.000676  -0.040774
    40  H    0.388026  -0.048632   0.002016   0.466401  -0.020917   0.005365
    41  H    0.390331  -0.040078   0.000676  -0.020917   0.448175  -0.001664
    42  H   -0.047912   0.398049  -0.040774   0.005365  -0.001664   0.459682
    43  H    0.006296  -0.038470   0.392538   0.000140  -0.000314  -0.007766
    44  H   -0.009066  -0.039511   0.386672   0.004858   0.000183   0.005950
              43         44
     1  C   -0.000001  -0.000003
     2  C    0.000017  -0.000047
     3  C   -0.000352   0.000167
     4  C    0.000084  -0.000109
     5  C   -0.000001  -0.000003
     6  H   -0.000003   0.000006
     7  H   -0.000001   0.000001
     8  H    0.000064  -0.000021
     9  H    0.000038   0.000282
    10  O    0.000000   0.000001
    11  O    0.000000   0.000000
    12  C    0.000000   0.000000
    13  C    0.000000   0.000000
    14  C    0.000000  -0.000012
    15  O    0.000012   0.000000
    16  Si   0.000005   0.000001
    17  C    0.000000   0.000000
    18  C    0.000001   0.000000
    19  C    0.000000   0.000000
    20  H   -0.000001   0.000001
    21  H    0.000000   0.000000
    22  H    0.000000   0.000000
    23  H    0.000000   0.000000
    24  H    0.000000   0.000000
    25  H    0.000000   0.000000
    26  H   -0.000001   0.000000
    27  H    0.000000   0.000000
    28  H    0.000000   0.000000
    29  H    0.000000   0.000000
    30  H    0.000000  -0.000008
    31  H    0.000000   0.000001
    32  H    0.000000   0.000000
    33  H    0.000000   0.000000
    34  H    0.000000   0.000000
    35  H    0.000000   0.000000
    36  H    0.000000   0.000000
    37  C    0.006296  -0.009066
    38  C   -0.038470  -0.039511
    39  C    0.392538   0.386672
    40  H    0.000140   0.004858
    41  H   -0.000314   0.000183
    42  H   -0.007766   0.005950
    43  H    0.454838  -0.034324
    44  H   -0.034324   0.466597
 Mulliken charges:
               1
     1  C   -0.016332
     2  C   -0.326574
     3  C    0.236052
     4  C   -0.698333
     5  C    0.506783
     6  H    0.235925
     7  H    0.282197
     8  H    0.296892
     9  H    0.292493
    10  O   -0.320078
    11  O   -0.381376
    12  C   -0.457724
    13  C   -0.661830
    14  C   -0.714385
    15  O   -0.626937
    16  Si   1.411028
    17  C   -1.039803
    18  C   -1.080356
    19  C   -1.083742
    20  H    0.241123
    21  H    0.254365
    22  H    0.238870
    23  H    0.255037
    24  H    0.241744
    25  H    0.243839
    26  H    0.240094
    27  H    0.232099
    28  H    0.239908
    29  H    0.247335
    30  H    0.240097
    31  H    0.255038
    32  H    0.235075
    33  H    0.245187
    34  H    0.230841
    35  H    0.241253
    36  H    0.221863
    37  C   -0.492790
    38  C   -0.186893
    39  C   -0.449874
    40  H    0.239770
    41  H    0.261759
    42  H    0.224776
    43  H    0.227198
    44  H    0.218383
 Sum of Mulliken charges =   0.00000
 Mulliken charges with hydrogens summed into heavy atoms:
               1
     1  C    0.219593
     2  C   -0.044376
     3  C    0.236052
     4  C   -0.108947
     5  C    0.506783
    10  O   -0.320078
    11  O   -0.381376
    12  C    0.022537
    13  C    0.032127
    14  C    0.028085
    15  O   -0.626937
    16  Si   1.411028
    17  C   -0.327701
    18  C   -0.345999
    19  C   -0.343121
    37  C    0.008740
    38  C    0.037883
    39  C   -0.004292
 Electronic spatial extent (au):  <R**2>=           5327.8077
 Charge=              0.0000 electrons
 Dipole moment (field-independent basis, Debye):
    X=             -1.0743    Y=              2.6054    Z=             -3.6697  Tot=              4.6270
 Quadrupole moment (field-independent basis, Debye-Ang):
   XX=           -111.9065   YY=           -120.2112   ZZ=           -128.1467
   XY=             -6.4938   XZ=              6.4162   YZ=              9.8138
 Traceless Quadrupole moment (field-independent basis, Debye-Ang):
   XX=              8.1816   YY=             -0.1230   ZZ=             -8.0586
   XY=             -6.4938   XZ=              6.4162   YZ=              9.8138
 Octapole moment (field-independent basis, Debye-Ang**2):
  XXX=            -15.7075  YYY=             -2.3950  ZZZ=            -28.1892  XYY=              2.1625
  XXY=             -1.9627  XXZ=             -2.7490  XZZ=             -4.3816  YZZ=             16.8523
  YYZ=              1.8402  XYZ=             -4.2500
 Hexadecapole moment (field-independent basis, Debye-Ang**3):
 XXXX=          -3740.3300 YYYY=          -2215.0140 ZZZZ=          -1353.9648 XXXY=             -0.2420
 XXXZ=             50.6339 YYYX=            -33.2596 YYYZ=             54.0757 ZZZX=             -1.5992
 ZZZY=             36.6790 XXYY=           -949.4085 XXZZ=           -865.3497 YYZZ=           -597.6004
 XXYZ=             17.9230 YYXZ=             21.7037 ZZXY=              0.4681
 N-N= 1.637408339133D+03 E-N=-5.770237706412D+03  KE= 1.060525868930D+03
 1\1\GINC-CPU-E-532\SP\RmPW1PW91\6-311G(d)\C14H26O3Si1\KE291\06-Feb-201
 9\0\\# mPW1PW91/6-311g(d) geom=checkpoint nmr=giao scrf=(solvent=chlor
 oform)\\P_ng_correct1ginp005\\0,1\C,0,0.876329744,-0.2653485023,0.3883
 339768\C,0,-0.5787013072,-0.5823655453,0.7786347387\C,0,-1.0939710896,
 0.4525331374,1.8365793588\C,0,-0.3043679013,1.7848454099,1.6795989077\
 C,0,0.2049281316,2.0537692534,0.285133849\H,0,1.5114273883,-0.18102749
 09,1.2819690924\H,0,-1.1606493879,-0.383771713,-0.1285023347\H,0,-0.89
 79663649,2.6315377942,2.0187341603\H,0,0.5801666945,1.7406581184,2.327
 1932483\O,0,0.8788670287,1.0321097919,-0.2886458459\O,0,0.0790946485,3
 .1011424151,-0.31686634\C,0,1.525842328,-1.2424277012,-0.5876802787\C,
 0,2.9426623772,-0.8350071889,-1.0048515492\C,0,-0.8237819618,-2.046450
 4839,1.1637888056\O,0,-2.4968578558,0.6367205281,1.6589896163\Si,0,-3.
 5125324801,1.4978034465,0.6242859145\C,0,-5.2258882343,0.8854216709,1.
 1005278343\C,0,-3.379215374,3.3582438834,0.9044992033\C,0,-3.182446081
 2,1.1271240944,-1.1976238477\H,0,-3.4998319987,3.6199349162,1.96124833
 35\H,0,-2.4200954853,3.7546647629,0.5569928042\H,0,-4.1710762253,3.870
 0664902,0.3446225974\H,0,-2.2035359017,1.4868399862,-1.5301550616\H,0,
 -3.2483918036,0.05635498,-1.4178445016\H,0,-3.9377336432,1.6357969001,
 -1.8088568368\H,0,-5.4391070451,1.0818452965,2.1563642689\H,0,-5.99568
 99677,1.3878671598,0.5042578929\H,0,-5.3222571931,-0.1923239438,0.9330
 483394\H,0,-0.6580554562,-2.7047400025,0.3076438643\H,0,-0.1714805876,
 -2.3827383049,1.9758469468\H,0,-1.8606821604,-2.1809361169,1.483410590
 4\H,0,0.8827305766,-1.3367376375,-1.4715179405\H,0,1.5564858324,-2.227
 0057753,-0.1097891862\H,0,3.370037783,-1.5768213038,-1.6859266752\H,0,
 2.942765207,0.1330421684,-1.5115809435\H,0,3.6044055616,-0.760464155,-
 0.1344979868\C,0,-0.9225551765,-0.0536029447,3.293116524\C,0,-1.302295
 5656,0.9558190719,4.3408869875\C,0,-0.5001011047,1.3773228206,5.319818
 3636\H,0,0.1141517386,-0.3757510954,3.4479750172\H,0,-1.5604987092,-0.
 9370341772,3.4059016272\H,0,-2.3180388376,1.3424715691,4.2764914104\H,
 0,-0.8342547502,2.0975818022,6.0609425349\H,0,0.51928061,1.011124615,5
 .4222065197\\Version=ES64L-G09RevD.01\State=1-A\HF=-1064.3848129\RMSD=
 9.297e-09\Dipole=0.0556666,-1.6182788,0.8318054\Quadrupole=3.9703002,-
 2.2996204,-1.6706798,-7.1274551,5.4539458,6.5792407\PG=C01 [X(C14H26O3
 Si1)]\\@


 THE RARE EARTHS PERPLEX US IN OUR RESEARCHES,
 BAFFLE US IN OUR SPECULATIONS, AND HAUNT US IN OUR
 VERY DREAMS.  THEY STRETCH LIKE AN UNKNOWN BEFORE US,
 MOCKING, MYSTIFYING, AND MURMURING STRANGE REVELATIONS
 AND POSSIBILITIES.  -- SIR WILLIAM CROOKE, 1832-1919
 Job cpu time:       0 days  0 hours 21 minutes 39.1 seconds.
 File lengths (MBytes):  RWF=    237 Int=      0 D2E=      0 Chk=     19 Scr=      1
 Normal termination of Gaussian 09 at Wed Feb  6 11:22:45 2019.
