 Entering Gaussian System, Link 0=/usr/local/Cluster-Apps/gaussian/g09/g09
 Initial command:
 /usr/local/Cluster-Apps/gaussian/g09/l1.exe "/home/ke291/rds/hpc-work/06Feb0927IP1/Gau-179764.inp" -scrdir="/home/ke291/rds/hpc-work/06Feb0927IP1/"
 Entering Link 1 = /usr/local/Cluster-Apps/gaussian/g09/l1.exe PID=    179769.
  
 Copyright (c) 1988,1990,1992,1993,1995,1998,2003,2009,2013,
            Gaussian, Inc.  All Rights Reserved.
  
 This is part of the Gaussian(R) 09 program.  It is based on
 the Gaussian(R) 03 system (copyright 2003, Gaussian, Inc.),
 the Gaussian(R) 98 system (copyright 1998, Gaussian, Inc.),
 the Gaussian(R) 94 system (copyright 1995, Gaussian, Inc.),
 the Gaussian 92(TM) system (copyright 1992, Gaussian, Inc.),
 the Gaussian 90(TM) system (copyright 1990, Gaussian, Inc.),
 the Gaussian 88(TM) system (copyright 1988, Gaussian, Inc.),
 the Gaussian 86(TM) system (copyright 1986, Carnegie Mellon
 University), and the Gaussian 82(TM) system (copyright 1983,
 Carnegie Mellon University). Gaussian is a federally registered
 trademark of Gaussian, Inc.
  
 This software contains proprietary and confidential information,
 including trade secrets, belonging to Gaussian, Inc.
  
 This software is provided under written license and may be
 used, copied, transmitted, or stored only in accord with that
 written license.
  
 The following legend is applicable only to US Government
 contracts under FAR:
  
                    RESTRICTED RIGHTS LEGEND
  
 Use, reproduction and disclosure by the US Government is
 subject to restrictions as set forth in subparagraphs (a)
 and (c) of the Commercial Computer Software - Restricted
 Rights clause in FAR 52.227-19.
  
 Gaussian, Inc.
 340 Quinnipiac St., Bldg. 40, Wallingford CT 06492
  
  
 ---------------------------------------------------------------
 Warning -- This program may not be used in any manner that
 competes with the business of Gaussian, Inc. or will provide
 assistance to any competitor of Gaussian, Inc.  The licensee
 of this program is prohibited from giving any competitor of
 Gaussian, Inc. access to this program.  By using this program,
 the user acknowledges that Gaussian, Inc. is engaged in the
 business of creating and licensing software in the field of
 computational chemistry and represents and warrants to the
 licensee that it is not a competitor of Gaussian, Inc. and that
 it will not use this program in any manner prohibited above.
 ---------------------------------------------------------------
  

 Cite this work as:
 Gaussian 09, Revision D.01,
 M. J. Frisch, G. W. Trucks, H. B. Schlegel, G. E. Scuseria, 
 M. A. Robb, J. R. Cheeseman, G. Scalmani, V. Barone, B. Mennucci, 
 G. A. Petersson, H. Nakatsuji, M. Caricato, X. Li, H. P. Hratchian, 
 A. F. Izmaylov, J. Bloino, G. Zheng, J. L. Sonnenberg, M. Hada, 
 M. Ehara, K. Toyota, R. Fukuda, J. Hasegawa, M. Ishida, T. Nakajima, 
 Y. Honda, O. Kitao, H. Nakai, T. Vreven, J. A. Montgomery, Jr., 
 J. E. Peralta, F. Ogliaro, M. Bearpark, J. J. Heyd, E. Brothers, 
 K. N. Kudin, V. N. Staroverov, T. Keith, R. Kobayashi, J. Normand, 
 K. Raghavachari, A. Rendell, J. C. Burant, S. S. Iyengar, J. Tomasi, 
 M. Cossi, N. Rega, J. M. Millam, M. Klene, J. E. Knox, J. B. Cross, 
 V. Bakken, C. Adamo, J. Jaramillo, R. Gomperts, R. E. Stratmann, 
 O. Yazyev, A. J. Austin, R. Cammi, C. Pomelli, J. W. Ochterski, 
 R. L. Martin, K. Morokuma, V. G. Zakrzewski, G. A. Voth, 
 P. Salvador, J. J. Dannenberg, S. Dapprich, A. D. Daniels, 
 O. Farkas, J. B. Foresman, J. V. Ortiz, J. Cioslowski, 
 and D. J. Fox, Gaussian, Inc., Wallingford CT, 2013.
 
 ******************************************
 Gaussian 09:  ES64L-G09RevD.01 24-Apr-2013
                 6-Feb-2019 
 ******************************************
 %nprocshared=2
 Will use up to    2 processors via shared memory.
 %mem=6000MB
 %chk=/home/ke291/rds/hpc-work/06Feb0927IP1/P_ng_2ginp009.chk
 ----------------------------------------------------------------------
 # mPW1PW91/6-311g(d) geom=checkpoint nmr=giao scrf=(solvent=chloroform
 )
 ----------------------------------------------------------------------
 1/29=2,38=1/1;
 2/12=2,40=1/2;
 3/5=4,6=6,7=1,11=2,14=-4,16=1,25=1,30=1,70=2201,72=7,74=-7/1,2,8,3;
 4//1;
 5/5=2,38=5,53=7/2;
 8/6=1,10=90,11=11/1;
 10/13=100,45=16/2;
 6/7=2,8=2,9=2,10=2,28=1/1;
 99/9=1/99;
 -------------
 P_ng_2ginp009
 -------------
 Structure from the checkpoint file:  "/home/ke291/rds/hpc-work/06Feb0927IP1/P_ng_2ginp009.chk"
 Charge =  0 Multiplicity = 1
 Redundant internal coordinates found in file.
 C,0,0.0860899696,0.1601432844,0.9548591176
 C,0,-0.8440766299,1.2515818939,0.3965942265
 C,0,-2.0565126847,1.5135251447,1.336596178
 C,0,-1.4692657461,1.9139005574,2.69874714
 C,0,-0.4742629746,0.9217966048,3.2665244199
 H,0,-0.364016287,-0.82227134,0.7620899914
 H,0,-0.2853562966,2.1974315831,0.3779624323
 H,0,-0.92370041,2.8592849352,2.588298667
 H,0,-2.2379510199,2.0751958403,3.455092451
 O,0,0.2701994361,0.1996058669,2.4066125044
 O,0,-0.2854698023,0.7896005628,4.4578660147
 C,0,1.4952052385,0.1892242399,0.357445249
 C,0,2.386661181,-0.9668479721,0.820431371
 C,0,-1.2565702639,0.9205020026,-1.0463790534
 O,0,-2.8466252835,2.5510578257,0.7748583954
 Si,0,-3.0669370142,4.2036982429,0.9813373131
 C,0,-3.7976823802,4.6055820393,2.6736531599
 C,0,-1.4623962553,5.1689348441,0.7277412958
 C,0,-4.2955430727,4.6497265626,-0.371018059
 H,0,-1.6716493334,6.2450442462,0.7495621046
 H,0,-0.715862311,4.9701284044,1.5039148642
 H,0,-1.0083712746,4.9406786821,-0.242487471
 H,0,-4.5405743499,5.7172900416,-0.3404168907
 H,0,-3.8887671658,4.4276742525,-1.3630964388
 H,0,-5.2284454009,4.0882013297,-0.2571677414
 H,0,-4.1143438836,5.6547336696,2.7049611108
 H,0,-4.676680789,3.9848514212,2.8750755814
 H,0,-3.0837012681,4.4545398831,3.4894671443
 H,0,-2.028798104,1.6168111327,-1.3789045197
 H,0,-0.4086556989,1.0057884465,-1.7304525885
 H,0,-1.6526549794,-0.0964139097,-1.1352654984
 H,0,1.955844793,1.150924021,0.6161245946
 H,0,1.4041875342,0.1658341233,-0.733582814
 H,0,2.5135497353,-0.9574349878,1.9056898852
 H,0,1.9558439848,-1.9343462792,0.5392765411
 H,0,3.3769370548,-0.8968440186,0.3605026837
 C,0,-2.9803419069,0.2681673612,1.4550896111
 C,0,-4.1346770682,0.4200054304,2.4089672797
 C,0,-5.4160144081,0.4835669803,2.0437299407
 H,0,-2.3740649349,-0.5924545021,1.7673933652
 H,0,-3.3651874155,0.0463587122,0.4557951015
 H,0,-3.8915245098,0.4546709089,3.4706929466
 H,0,-6.213709759,0.5752508817,2.775184146
 H,0,-5.7133322456,0.4393710505,0.998614247
 Recover connectivity data from disk.
                          Input orientation:                          
 ---------------------------------------------------------------------
 Center     Atomic      Atomic             Coordinates (Angstroms)
 Number     Number       Type             X           Y           Z
 ---------------------------------------------------------------------
      1          6           0        0.086090    0.160143    0.954859
      2          6           0       -0.844077    1.251582    0.396594
      3          6           0       -2.056513    1.513525    1.336596
      4          6           0       -1.469266    1.913901    2.698747
      5          6           0       -0.474263    0.921797    3.266524
      6          1           0       -0.364016   -0.822271    0.762090
      7          1           0       -0.285356    2.197432    0.377962
      8          1           0       -0.923700    2.859285    2.588299
      9          1           0       -2.237951    2.075196    3.455092
     10          8           0        0.270199    0.199606    2.406613
     11          8           0       -0.285470    0.789601    4.457866
     12          6           0        1.495205    0.189224    0.357445
     13          6           0        2.386661   -0.966848    0.820431
     14          6           0       -1.256570    0.920502   -1.046379
     15          8           0       -2.846625    2.551058    0.774858
     16         14           0       -3.066937    4.203698    0.981337
     17          6           0       -3.797682    4.605582    2.673653
     18          6           0       -1.462396    5.168935    0.727741
     19          6           0       -4.295543    4.649727   -0.371018
     20          1           0       -1.671649    6.245044    0.749562
     21          1           0       -0.715862    4.970128    1.503915
     22          1           0       -1.008371    4.940679   -0.242487
     23          1           0       -4.540574    5.717290   -0.340417
     24          1           0       -3.888767    4.427674   -1.363096
     25          1           0       -5.228445    4.088201   -0.257168
     26          1           0       -4.114344    5.654734    2.704961
     27          1           0       -4.676681    3.984851    2.875076
     28          1           0       -3.083701    4.454540    3.489467
     29          1           0       -2.028798    1.616811   -1.378905
     30          1           0       -0.408656    1.005788   -1.730453
     31          1           0       -1.652655   -0.096414   -1.135265
     32          1           0        1.955845    1.150924    0.616125
     33          1           0        1.404188    0.165834   -0.733583
     34          1           0        2.513550   -0.957435    1.905690
     35          1           0        1.955844   -1.934346    0.539277
     36          1           0        3.376937   -0.896844    0.360503
     37          6           0       -2.980342    0.268167    1.455090
     38          6           0       -4.134677    0.420005    2.408967
     39          6           0       -5.416014    0.483567    2.043730
     40          1           0       -2.374065   -0.592455    1.767393
     41          1           0       -3.365187    0.046359    0.455795
     42          1           0       -3.891525    0.454671    3.470693
     43          1           0       -6.213710    0.575251    2.775184
     44          1           0       -5.713332    0.439371    0.998614
 ---------------------------------------------------------------------
                    Distance matrix (angstroms):
                    1          2          3          4          5
     1  C    0.000000
     2  C    1.538866   0.000000
     3  C    2.562833   1.556348   0.000000
     4  C    2.921633   2.475770   1.536429   0.000000
     5  C    2.497580   2.912391   2.564816   1.515477   0.000000
     6  H    1.097677   2.159841   2.941181   3.529710   3.053870
     7  H    2.149727   1.098703   2.126900   2.620701   3.163340
     8  H    3.312577   2.719305   2.158956   1.097083   2.101391
     9  H    3.914046   3.460583   2.199186   1.090391   2.115770
    10  O    1.463913   2.527536   2.878352   2.459652   1.347306
    11  O    3.578454   4.125457   3.661009   2.399984   1.213430
    12  C    1.530802   2.569509   3.914998   4.152625   3.588622
    13  C    2.565309   3.941920   5.114731   5.166716   4.211322
    14  C    2.527021   1.536859   2.582664   3.880470   4.383280
    15  O    3.788099   2.417007   1.419965   2.450395   3.806704
    16  Si   5.127633   3.741393   2.895548   3.277991   4.766017
    17  C    6.148160   5.015785   3.792125   3.559115   4.996688
    18  C    5.247608   3.979652   3.753092   3.805280   5.045791
    19  C    6.411943   4.904002   4.214850   4.989594   6.459981
    20  H    6.337019   5.073867   4.783304   4.753850   6.008810
    21  H    4.907193   3.882034   3.711259   3.366863   4.422008
    22  H    5.048267   3.747646   3.916310   4.245547   5.361889
    23  H    7.346131   5.843786   5.162807   5.756321   7.248563
    24  H    6.275685   4.738588   4.374673   5.354589   6.736721
    25  H    6.718849   5.262747   4.385225   5.253232   6.711540
    26  H    7.134215   5.950710   4.822520   4.581518   5.997186
    27  H    6.403094   5.320008   3.916587   3.821968   5.214964
    28  H    5.908778   4.984047   3.786758   3.112312   4.397630
    29  H    3.470027   2.165491   2.717606   4.126570   4.947690
    30  H    2.858459   2.185025   3.518525   4.644068   4.998113
    31  H    2.730875   2.194877   2.977433   4.332972   4.669166
    32  H    2.142982   2.810318   4.092624   4.080543   3.603130
    33  H    2.142020   2.740591   4.251865   4.805555   4.483404
    34  H    2.836480   4.293108   5.226374   4.973563   3.782910
    35  H    2.838235   4.243825   5.350004   5.586027   4.636901
    36  H    3.507158   4.736454   6.023704   6.070696   5.155983
    37  C    3.108843   2.578982   1.555126   2.557044   3.160531
    38  C    4.471782   3.945785   2.581576   3.069220   3.792866
    39  C    5.618131   4.919910   3.584286   4.248732   5.109616
    40  H    2.697958   2.760512   2.172919   2.822746   2.854750
    41  H    3.489030   2.795008   2.154302   3.480383   4.126019
    42  H    4.715674   4.401373   3.007126   2.931312   3.455079
    43  H    6.570645   5.911690   4.498020   4.930271   5.770854
    44  H    5.806305   4.973104   3.826273   4.803831   5.729223
                    6          7          8          9         10
     6  H    0.000000
     7  H    3.045053   0.000000
     8  H    4.147546   2.393976   0.000000
     9  H    4.377123   3.646409   1.758801   0.000000
    10  O    2.037380   2.900926   2.921010   3.302721   0.000000
    11  O    4.032749   4.315971   2.861156   2.543716   2.205562
    12  C    2.154893   2.683974   4.237574   5.204687   2.387432
    13  C    2.755092   4.165108   5.359398   6.130457   2.890674
    14  C    2.665422   2.145356   4.132864   4.749702   3.843679
    15  O    4.188420   2.615851   2.661054   2.789370   4.231612
    16  Si   5.710886   3.482292   2.997205   3.367077   5.403762
    17  C    6.701174   4.837956   3.364017   3.073477   6.002633
    18  C    6.091155   3.215214   3.014357   4.196564   5.524014
    19  C    6.832540   4.759866   4.830379   5.049853   6.954481
    20  H    7.187281   4.294539   3.924761   5.002822   6.562310
    21  H    5.850299   3.023401   2.382172   3.808475   4.954298
    22  H    5.885233   2.903982   3.514644   4.836833   5.579448
    23  H    7.837412   5.568874   5.461442   5.742196   7.818859
    24  H    6.670998   4.581467   5.183145   5.610195   7.027394
    25  H    6.986723   5.330341   5.304502   5.174565   7.242375
    26  H    7.732483   5.659418   4.243625   4.110552   7.005116
    27  H    6.795014   5.358561   3.928613   3.151287   6.246532
    28  H    6.532994   4.754654   2.832410   2.525421   5.525006
    29  H    3.647531   2.542300   4.301591   4.860184   4.650161
    30  H    3.091369   2.425001   4.727825   5.601770   4.269202
    31  H    2.405705   3.069380   4.809622   5.111736   4.041027
    32  H    3.049026   2.484931   3.885839   5.148004   2.636713
    33  H    2.517923   2.866615   4.869151   5.869909   3.338847
    34  H    3.099432   4.485645   5.181505   5.845875   2.573381
    35  H    2.582268   4.703253   5.955600   6.493560   3.298802
    36  H    3.763186   4.794501   6.129198   7.066574   3.878219
    37  C    2.917956   3.484998   3.496831   2.795802   3.387642
    38  C    4.298062   4.701223   4.036411   2.726097   4.410388
    39  C    5.373128   5.660015   5.110917   3.824306   5.704853
    40  H    2.259147   3.751891   3.833008   3.159622   2.833389
    41  H    3.139325   3.757464   4.291967   3.792443   4.128585
    42  H    4.627140   5.060301   3.920302   2.315308   4.303170
    43  H    6.342281   6.597236   5.765062   4.303344   6.505231
    44  H    5.501170   5.739243   5.596754   4.559439   6.151634
                   11         12         13         14         15
    11  O    0.000000
    12  C    4.510511   0.000000
    13  C    4.843173   1.531520   0.000000
    14  C    5.590786   3.174549   4.507794   0.000000
    15  O    4.819418   4.960240   6.305952   2.916144   0.000000
    16  Si   5.610604   6.108878   7.516793   4.262445   1.679997
    17  C    5.484594   7.272118   8.528336   5.820284   2.954827
    18  C    5.871759   5.803623   7.243733   4.608584   2.961687
    19  C    7.368811   7.345713   8.810069   4.857837   2.795855
    20  H    6.740540   6.845121   8.275645   5.634576   3.876434
    21  H    5.136913   5.390757   6.733535   4.816206   3.305083
    22  H    6.312476   5.404085   6.896007   4.107270   3.181895
    23  H    8.087741   8.214448   9.695971   5.855958   3.760097
    24  H    7.752608   7.064834   8.558602   4.396479   3.029620
    25  H    7.585863   7.796618   9.203510   5.141300   3.016779
    26  H    6.434475   8.176164   9.468889   6.682243   3.868489
    27  H    5.656641   7.670556   8.867451   6.038642   3.133014
    28  H    4.711653   6.997776   8.151077   6.033385   3.323936
    29  H    6.147468   4.179894   5.568541   1.091676   2.486032
    30  H    6.193319   2.941221   4.267564   1.092790   3.822059
    31  H    5.825576   3.495540   4.571486   1.094944   3.476096
    32  H    4.462401   1.097256   2.170784   3.624448   5.004927
    33  H    5.495013   1.095068   2.159441   2.783343   5.102362
    34  H    4.171360   2.179200   1.092692   5.143458   6.505365
    35  H    5.272449   2.180551   1.095767   4.580837   6.575565
    36  H    5.748539   2.172664   1.094112   5.172181   7.126882
    37  C    4.068279   4.608859   5.543715   3.107133   2.385830
    38  C    4.376184   5.996464   6.853806   4.524756   2.978384
    39  C    5.678397   7.120053   8.030063   5.200064   3.533598
    40  H    3.675724   4.191685   4.868410   3.384545   3.330181
    41  H    5.104277   4.863486   5.851778   2.732567   2.577640
    42  H    3.753707   6.227329   6.961337   5.250135   3.571299
    43  H    6.166149   8.088377   8.953519   6.268714   4.386613
    44  H    6.445989   7.241318   8.223083   4.927090   3.567534
                   16         17         18         19         20
    16  Si   0.000000
    17  C    1.886646   0.000000
    18  C    1.889588   3.091521   0.000000
    19  C    1.880766   3.085423   3.082786   0.000000
    20  H    2.483474   3.303026   1.096483   3.268877   0.000000
    21  H    2.527460   3.316443   1.095118   4.053658   1.762948
    22  H    2.505710   4.049250   1.095255   3.302525   1.767900
    23  H    2.491907   3.297332   3.304064   1.095750   3.114050
    24  H    2.494382   4.041695   3.287605   1.094986   3.561147
    25  H    2.493863   3.302193   4.039945   1.094796   4.279752
    26  H    2.484642   1.096346   3.343385   3.241068   3.184150
    27  H    2.495078   1.094767   4.042861   3.335333   4.319316
    28  H    2.520698   1.094594   3.281177   4.050926   3.564671
    29  H    3.652459   5.337127   4.168495   3.918232   5.106708
    30  H    4.964564   6.621190   4.948219   5.498567   5.932573
    31  H    4.997116   6.420107   5.588460   5.485871   6.615665
    32  H    5.889070   7.019342   5.276480   7.231592   6.255124
    33  H    6.263885   7.640685   5.948427   7.261107   6.972610
    34  H    7.657255   8.447992   7.397845   9.109742   8.410008
    35  H    7.943509   8.968238   7.885207   9.124609   8.950160
    36  H    8.241631   9.332873   7.768377   9.495605   8.754779
    37  C    3.964889   4.578876   5.181768   4.925696   6.159018
    38  C    4.182646   4.207455   5.702625   5.064063   6.538441
    39  C    4.526170   4.472897   6.270215   4.944022   6.992121
    40  H    4.909281   5.465124   5.925000   5.978741   6.948436
    41  H    4.201026   5.088464   5.471321   4.768666   6.432579
    42  H    4.575155   4.227782   5.970656   5.702672   6.772062
    43  H    5.126958   4.700113   6.918738   5.493569   7.541884
    44  H    4.601507   4.881883   6.364951   4.648990   7.078352
                   21         22         23         24         25
    21  H    0.000000
    22  H    1.770974   0.000000
    23  H    4.311407   3.617896   0.000000
    24  H    4.310607   3.132989   1.770264   0.000000
    25  H    4.923679   4.305341   1.770318   1.770045   0.000000
    26  H    3.668906   4.341013   3.075697   4.255074   3.531211
    27  H    4.305686   4.908085   3.655032   4.333475   3.182149
    28  H    3.132876   4.297768   4.287777   4.918966   4.332598
    29  H    4.612937   3.657979   4.919492   3.370562   4.195689
    30  H    5.125573   4.249360   6.418972   4.894428   5.907809
    31  H    5.789016   5.156012   6.539955   5.051681   5.573898
    32  H    4.744735   4.887334   7.998133   6.986694   7.810523
    33  H    5.708086   5.372221   8.143306   6.824583   7.720347
    34  H    6.762140   7.197662   9.967829   8.981872   9.490779
    35  H    7.465943   7.527529  10.075954   8.846118   9.408476
    36  H    7.244292   7.326063  10.340457   9.171246   9.964176
    37  C    5.219070   5.348158   5.945680   5.105772   4.751679
    38  C    5.762901   6.102498   5.982064   5.509115   4.664790
    39  C    6.520128   6.672327   5.817423   5.430924   4.280502
    40  H    5.810455   6.043203   6.996392   6.107044   5.844217
    41  H    5.688672   5.476911   5.845934   4.772675   4.507387
    42  H    5.860239   6.498042   6.530006   6.257019   5.374648
    43  H    7.152440   7.433630   6.240747   6.113255   4.744125
    44  H    6.764451   6.628632   5.569991   4.981293   3.889224
                   26         27         28         29         30
    26  H    0.000000
    27  H    1.770217   0.000000
    28  H    1.765825   1.770782   0.000000
    29  H    6.110015   5.542134   5.732937   0.000000
    30  H    7.417392   6.949946   6.804213   1.766861   0.000000
    31  H    7.340501   6.471808   6.644338   1.770871   1.765399
    32  H    7.841858   7.558069   6.675852   4.480465   3.334419
    33  H    8.509159   8.036434   7.507882   3.782481   2.232862
    34  H    9.396200   8.778685   7.945253   6.168325   5.061133
    35  H    9.956481   9.191477   8.655548   5.671641   4.403058
    36  H   10.224429   9.747553   8.953635   6.210151   4.724703
    37  C    5.644753   4.325236   4.655651   3.279603   4.159968
    38  C    5.243129   3.635815   4.306913   4.496114   5.600105
    39  C    5.373317   3.673791   4.826848   4.946908   6.292123
    40  H    6.552478   5.242207   5.379709   3.859955   4.318812
    41  H    6.088830   4.804650   5.358588   2.760141   3.800166
    42  H    5.260860   3.665161   4.080672   5.323431   6.283790
    43  H    5.496673   3.741365   5.035478   5.987887   7.361031
    44  H    5.715627   4.143209   5.407484   4.540347   5.992347
                   31         32         33         34         35
    31  H    0.000000
    32  H    4.200534   0.000000
    33  H    3.094254   1.759670   0.000000
    34  H    5.229343   2.533612   3.075415   0.000000
    35  H    4.382163   3.086227   2.516993   1.769880   0.000000
    36  H    5.307995   2.505634   2.493602   1.771077   1.768580
    37  C    2.933532   5.084197   4.901516   5.646945   5.482309
    38  C    4.357604   6.390852   6.373323   6.808050   6.792140
    39  C    4.960369   7.538417   7.370860   8.060616   7.902783
    40  H    3.031817   4.807588   4.594026   4.903174   4.696494
    41  H    2.341928   5.436833   4.916892   6.137536   5.678339
    42  H    5.150833   6.544086   6.767860   6.743015   6.963643
    43  H    6.045326   8.469626   8.397108   8.903382   8.833967
    44  H    4.618399   7.711607   7.330376   8.393774   8.041255
                   36         37         38         39         40
    36  H    0.000000
    37  C    6.555179   0.000000
    38  C    7.896496   1.505134   0.000000
    39  C    9.058410   2.515034   1.333890   0.000000
    40  H    5.928408   1.098078   2.129894   3.238463   0.000000
    41  H    6.808447   1.093570   2.132278   2.630319   1.763717
    42  H    8.020624   2.219841   1.089764   2.088331   2.510057
    43  H    9.998913   3.505940   2.116741   1.086163   4.137880
    44  H    9.210084   2.776133   2.116984   1.087482   3.578602
                   41         42         43         44
    41  H    0.000000
    42  H    3.087614   0.000000
    43  H    3.711249   2.427100   0.000000
    44  H    2.441904   3.070894   1.850687   0.000000
 Stoichiometry    C14H26O3Si
 Framework group  C1[X(C14H26O3Si)]
 Deg. of freedom   126
 Full point group                 C1      NOp   1
 Largest Abelian subgroup         C1      NOp   1
 Largest concise Abelian subgroup C1      NOp   1
                         Standard orientation:                         
 ---------------------------------------------------------------------
 Center     Atomic      Atomic             Coordinates (Angstroms)
 Number     Number       Type             X           Y           Z
 ---------------------------------------------------------------------
      1          6           0       -2.444667   -0.302925   -0.444286
      2          6           0       -1.005550   -0.791929   -0.684963
      3          6           0        0.043832    0.295685   -0.313330
      4          6           0       -0.195960    0.641169    1.164423
      5          6           0       -1.619736    1.046728    1.488545
      6          1           0       -2.736919    0.359511   -1.269308
      7          1           0       -0.810568   -1.626223    0.002847
      8          1           0        0.012487   -0.245067    1.776573
      9          1           0        0.459573    1.436539    1.520254
     10          8           0       -2.618541    0.512716    0.758852
     11          8           0       -1.898323    1.788988    2.407159
     12          6           0       -3.467266   -1.436129   -0.328119
     13          6           0       -4.915295   -0.951926   -0.208485
     14          6           0       -0.849445   -1.319212   -2.120073
     15          8           0        1.341938   -0.238066   -0.528578
     16         14           0        2.578202   -0.919928    0.381976
     17          6           0        3.323104    0.322325    1.590844
     18          6           0        2.004141   -2.460002    1.314268
     19          6           0        3.855109   -1.401520   -0.912188
     20          1           0        2.863600   -2.942206    1.794979
     21          1           0        1.277259   -2.237268    2.102503
     22          1           0        1.551935   -3.191651    0.636196
     23          1           0        4.735704   -1.854669   -0.443279
     24          1           0        3.443614   -2.126140   -1.622533
     25          1           0        4.190060   -0.527520   -1.480089
     26          1           0        4.245866   -0.082773    2.022559
     27          1           0        3.575002    1.257899    1.081172
     28          1           0        2.650369    0.560621    2.420771
     29          1           0        0.203008   -1.523015   -2.326381
     30          1           0       -1.407077   -2.247943   -2.263929
     31          1           0       -1.209400   -0.598665   -2.861791
     32          1           0       -3.199235   -2.050010    0.540950
     33          1           0       -3.368336   -2.077244   -1.210365
     34          1           0       -5.050249   -0.325314    0.676456
     35          1           0       -5.208744   -0.364743   -1.085873
     36          1           0       -5.599941   -1.801949   -0.132310
     37          6           0       -0.074379    1.552436   -1.221637
     38          6           0        0.858630    2.680669   -0.872337
     39          6           0        1.884944    3.076308   -1.626933
     40          1           0       -1.107595    1.921907   -1.180045
     41          1           0        0.113662    1.234650   -2.250980
     42          1           0        0.653142    3.217498    0.053501
     43          1           0        2.518053    3.909894   -1.337007
     44          1           0        2.124516    2.583683   -2.566371
 ---------------------------------------------------------------------
 Rotational constants (GHZ):      0.5089610      0.2537463      0.2326171
 Standard basis: 6-311G(d) (5D, 7F)
 There are   428 symmetry adapted cartesian basis functions of A   symmetry.
 There are   410 symmetry adapted basis functions of A   symmetry.
   410 basis functions,   720 primitive gaussians,   428 cartesian basis functions
    74 alpha electrons       74 beta electrons
       nuclear repulsion energy      1621.5244924631 Hartrees.
 NAtoms=   44 NActive=   44 NUniq=   44 SFac= 1.00D+00 NAtFMM=   60 NAOKFM=F Big=F
 Integral buffers will be    131072 words long.
 Raffenetti 2 integral format.
 Two-electron integral symmetry is turned on.
 ------------------------------------------------------------------------------
 Polarizable Continuum Model (PCM)
 =================================
 Model                : PCM (using non-symmetric T matrix).
 Atomic radii         : UFF (Universal Force Field).
 Polarization charges : Total charges.
 Charge compensation  : None.
 Solution method      : On-the-fly selection.
 Cavity type          : Scaled VdW (van der Waals Surface) (Alpha=1.100).
 Cavity algorithm     : GePol (No added spheres)
                        Default sphere list used, NSphG=   44.
                        Lebedev-Laikov grids with approx.  5.0 points / Ang**2.
                        Smoothing algorithm: Karplus/York (Gamma=1.0000).
                        Polarization charges: spherical gaussians, with
                                              point-specific exponents (IZeta= 3).
                        Self-potential: point-specific (ISelfS= 7).
                        Self-field    : sphere-specific E.n sum rule (ISelfD= 2).
 Solvent              : Chloroform, Eps=   4.711300 Eps(inf)=   2.090627
 ------------------------------------------------------------------------------
 One-electron integrals computed using PRISM.
 NBasis=   410 RedAO= T EigKep=  9.85D-04  NBF=   410
 NBsUse=   410 1.00D-06 EigRej= -1.00D+00 NBFU=   410
 ExpMin= 6.54D-02 ExpMax= 6.94D+04 ExpMxC= 2.33D+03 IAcc=2 IRadAn=         4 AccDes= 0.00D+00
 Harris functional with IExCor=  908 and IRadAn=       4 diagonalized for initial guess.
 HarFok:  IExCor=  908 AccDes= 0.00D+00 IRadAn=         4 IDoV= 1 UseB2=F ITyADJ=14
 ICtDFT=  3500011 ScaDFX=  1.000000  1.000000  1.000000  1.000000
 FoFCou: FMM=F IPFlag=           0 FMFlag=      100000 FMFlg1=           0
         NFxFlg=           0 DoJE=T BraDBF=F KetDBF=T FulRan=T
         wScrn=  0.000000 ICntrl=     500 IOpCl=  0 I1Cent=   200000004 NGrid=           0
         NMat0=    1 NMatS0=      1 NMatT0=    0 NMatD0=    1 NMtDS0=    0 NMtDT0=    0
 Petite list used in FoFCou.
 Requested convergence on RMS density matrix=1.00D-08 within 128 cycles.
 Requested convergence on MAX density matrix=1.00D-06.
 Requested convergence on             energy=1.00D-06.
 No special actions if energy rises.
 Inv3:  Mode=1 IEnd=    26249292.
 Iteration    1 A*A^-1 deviation from unit magnitude is 7.11D-15 for   2937.
 Iteration    1 A*A^-1 deviation from orthogonality  is 2.74D-15 for   2071    354.
 Iteration    1 A^-1*A deviation from unit magnitude is 7.33D-15 for   2937.
 Iteration    1 A^-1*A deviation from orthogonality  is 2.20D-06 for   2933   2828.
 Iteration    2 A*A^-1 deviation from unit magnitude is 4.88D-15 for   1472.
 Iteration    2 A*A^-1 deviation from orthogonality  is 6.40D-15 for   2594   1478.
 Iteration    2 A^-1*A deviation from unit magnitude is 8.88D-16 for    132.
 Iteration    2 A^-1*A deviation from orthogonality  is 3.06D-16 for   2713   1170.
 Error on total polarization charges =  0.01146
 SCF Done:  E(RmPW1PW91) =  -1064.38329663     A.U. after   12 cycles
            NFock= 12  Conv=0.92D-08     -V/T= 2.0036
 DoSCS=F DFT=T ScalE2(SS,OS)=  1.000000  1.000000
 Range of M.O.s used for correlation:     1   410
 NBasis=   410 NAE=    74 NBE=    74 NFC=     0 NFV=     0
 NROrb=    410 NOA=    74 NOB=    74 NVA=   336 NVB=   336
 NEqPCM:  Using equilibrium solvation (IEInf=0, Eps=   4.7113, EpsInf=   2.0906)
          Differentiating once with respect to magnetic field using GIAOs.
          Electric field/nuclear overlap derivatives assumed to be zero.
 FoFJK:  IHMeth= 1 ICntrl=    6127 DoSepK=F KAlg= 0 I1Cent=   0 FoldK=F
 IRaf=         1 NMat=   1 IRICut=       1 DoRegI=T DoRafI=F ISym2E= 0.
          There are     3 degrees of freedom in the 1st order CPHF.  IDoFFX=0 NUNeed=     3.
      3 vectors produced by pass  0 Test12= 8.29D-13 3.33D-08 XBig12= 3.42D+01 1.29D+00.
 AX will form     3 AO Fock derivatives at one time.
      3 vectors produced by pass  1 Test12= 8.29D-13 3.33D-08 XBig12= 8.20D-02 9.76D-02.
      3 vectors produced by pass  2 Test12= 8.29D-13 3.33D-08 XBig12= 5.46D-04 8.28D-03.
      3 vectors produced by pass  3 Test12= 8.29D-13 3.33D-08 XBig12= 2.56D-06 3.01D-04.
      3 vectors produced by pass  4 Test12= 8.29D-13 3.33D-08 XBig12= 1.01D-08 2.11D-05.
      3 vectors produced by pass  5 Test12= 8.29D-13 3.33D-08 XBig12= 3.96D-11 1.24D-06.
      2 vectors produced by pass  6 Test12= 8.29D-13 3.33D-08 XBig12= 1.40D-13 6.92D-08.
 InvSVY:  IOpt=1 It=  1 EMax= 8.88D-16
 Solved reduced A of dimension    20 with     3 vectors.
 Calculating GIAO nuclear magnetic shielding tensors.
 SCF GIAO Magnetic shielding tensor (ppm):
      1  C    Isotropic =    99.5740   Anisotropy =    50.4091
   XX=    92.9338   YX=    -2.9836   ZX=   -13.6966
   XY=     4.6355   YY=    86.7615   ZY=    23.9752
   XZ=     0.3611   YZ=    25.5115   ZZ=   119.0267
   Eigenvalues:    72.5887    92.9532   133.1801
      2  C    Isotropic =   138.7026   Anisotropy =    24.7654
   XX=   149.4308   YX=    10.8691   ZX=     4.0947
   XY=     8.2745   YY=   139.2083   ZY=    -9.0153
   XZ=     4.6215   YZ=    -1.4684   ZZ=   127.4688
   Eigenvalues:   123.0703   137.8247   155.2129
      3  C    Isotropic =   108.1081   Anisotropy =    50.4090
   XX=   134.9352   YX=   -17.5531   ZX=    -2.9150
   XY=   -14.7207   YY=   103.1909   ZY=     0.1399
   XZ=     1.4700   YZ=     1.3463   ZZ=    86.1980
   Eigenvalues:    86.1656    96.4446   141.7140
      4  C    Isotropic =   143.3287   Anisotropy =    32.3978
   XX=   151.7544   YX=    -9.8468   ZX=   -10.9761
   XY=    -8.3215   YY=   131.7948   ZY=    12.4983
   XZ=   -10.2033   YZ=     5.6414   ZZ=   146.4369
   Eigenvalues:   126.7074   138.3515   164.9272
      5  C    Isotropic =    13.7766   Anisotropy =    86.3734
   XX=   -59.7073   YX=   -17.8534   ZX=   -34.0156
   XY=   -25.6888   YY=    57.7693   ZY=   -18.7821
   XZ=   -43.3936   YZ=   -19.8574   ZZ=    43.2677
   Eigenvalues:   -77.9508    47.9217    71.3589
      6  H    Isotropic =    28.1513   Anisotropy =     2.0665
   XX=    29.3510   YX=     0.4263   ZX=     0.2013
   XY=    -0.2739   YY=    26.3990   ZY=     0.0905
   XZ=     0.5565   YZ=    -0.8893   ZZ=    28.7038
   Eigenvalues:    26.3253    28.5995    29.5289
      7  H    Isotropic =    30.3318   Anisotropy =     3.7634
   XX=    31.3139   YX=     0.3268   ZX=     1.7196
   XY=     0.3985   YY=    30.4928   ZY=    -2.5996
   XZ=     1.8896   YZ=    -1.9648   ZZ=    29.1887
   Eigenvalues:    26.8358    31.3188    32.8407
      8  H    Isotropic =    29.7398   Anisotropy =     5.0632
   XX=    30.3744   YX=    -2.8018   ZX=     0.7360
   XY=    -2.8264   YY=    28.2927   ZY=    -0.9820
   XZ=     0.7387   YZ=    -1.7800   ZZ=    30.5524
   Eigenvalues:    26.2073    29.8969    33.1153
      9  H    Isotropic =    29.2584   Anisotropy =     4.0777
   XX=    29.6164   YX=     1.2033   ZX=     0.9471
   XY=     0.6211   YY=    28.7555   ZY=     2.4085
   XZ=    -0.6727   YZ=     2.9114   ZZ=    29.4033
   Eigenvalues:    26.2914    29.5069    31.9768
     10  O    Isotropic =   100.7296   Anisotropy =   190.8464
   XX=   155.0641   YX=    55.9794   ZX=    66.2422
   XY=    62.4034   YY=   103.9635   ZY=  -164.2090
   XZ=    71.6581   YZ=  -138.3467   ZZ=    43.1612
   Eigenvalues:  -111.6822   185.9105   227.9605
     11  O    Isotropic =  -105.5301   Anisotropy =   556.0355
   XX=  -218.5345   YX=   -27.7847   ZX=   -76.2774
   XY=    -3.6871   YY=    18.7233   ZY=  -312.9090
   XZ=   -60.9720   YZ=  -296.6480   ZZ=  -116.7792
   Eigenvalues:  -385.5121  -196.2384   265.1602
     12  C    Isotropic =   155.8840   Anisotropy =    25.1915
   XX=   162.6600   YX=    11.3691   ZX=     0.6239
   XY=     9.6025   YY=   161.0227   ZY=    -2.7966
   XZ=    -1.7982   YZ=    -4.8090   ZZ=   143.9693
   Eigenvalues:   142.9745   151.9992   172.6783
     13  C    Isotropic =   175.6625   Anisotropy =    21.9972
   XX=   189.3496   YX=    -2.5689   ZX=     0.3072
   XY=    -5.8668   YY=   171.4472   ZY=    -5.0897
   XZ=    -1.0853   YZ=    -6.3664   ZZ=   166.1906
   Eigenvalues:   162.2580   174.4021   190.3273
     14  C    Isotropic =   176.4376   Anisotropy =    20.1408
   XX=   169.3412   YX=    -0.0270   ZX=    -1.1054
   XY=    -3.0262   YY=   171.3555   ZY=     4.2323
   XZ=    -4.6247   YZ=     3.2440   ZZ=   188.6162
   Eigenvalues:   168.4800   170.9680   189.8649
     15  O    Isotropic =   246.7736   Anisotropy =    24.0833
   XX=   224.4772   YX=    -2.1730   ZX=    -7.1525
   XY=   -19.0100   YY=   254.3804   ZY=    -0.4145
   XZ=     2.9491   YZ=    -6.0035   ZZ=   261.4631
   Eigenvalues:   220.8868   256.6049   262.8291
     16  Si   Isotropic =   334.2174   Anisotropy =    40.5889
   XX=   346.6889   YX=   -18.1304   ZX=    20.6375
   XY=   -16.2665   YY=   324.5568   ZY=    -8.3647
   XZ=     2.8724   YZ=    -0.5467   ZZ=   331.4067
   Eigenvalues:   314.9390   326.4366   361.2767
     17  C    Isotropic =   185.2471   Anisotropy =    12.2051
   XX=   184.8697   YX=     0.8058   ZX=     6.6495
   XY=    -0.7732   YY=   187.4829   ZY=     4.7502
   XZ=     6.0813   YZ=     6.3427   ZZ=   183.3886
   Eigenvalues:   176.0871   186.2703   193.3838
     18  C    Isotropic =   185.7274   Anisotropy =    10.9887
   XX=   185.8431   YX=     1.3350   ZX=     0.7083
   XY=     3.4261   YY=   189.0291   ZY=    -5.5857
   XZ=     0.6751   YZ=    -6.6307   ZZ=   182.3099
   Eigenvalues:   178.2563   185.8727   193.0532
     19  C    Isotropic =   187.0361   Anisotropy =    12.1733
   XX=   189.8200   YX=    -5.3373   ZX=    -3.5911
   XY=    -5.5133   YY=   179.7340   ZY=     0.5238
   XZ=    -3.0286   YZ=     0.5548   ZZ=   191.5542
   Eigenvalues:   177.3192   188.6374   195.1516
     20  H    Isotropic =    32.2245   Anisotropy =    10.5385
   XX=    33.3800   YX=    -3.8083   ZX=     3.2674
   XY=    -3.4476   YY=    32.4053   ZY=    -3.4833
   XZ=     3.1539   YZ=    -3.5764   ZZ=    30.8882
   Eigenvalues:    28.0141    29.4091    39.2502
     21  H    Isotropic =    32.0445   Anisotropy =     6.5019
   XX=    32.6397   YX=    -1.6808   ZX=    -3.2225
   XY=    -0.7468   YY=    30.1841   ZY=    -1.4492
   XZ=    -3.5522   YZ=    -0.8911   ZZ=    33.3098
   Eigenvalues:    28.1645    31.5899    36.3791
     22  H    Isotropic =    32.0020   Anisotropy =     7.4575
   XX=    30.6452   YX=     1.7957   ZX=     2.4710
   XY=     2.1965   YY=    35.0076   ZY=     2.5011
   XZ=     1.9964   YZ=     1.6737   ZZ=    30.3533
   Eigenvalues:    28.2556    30.7767    36.9737
     23  H    Isotropic =    32.4208   Anisotropy =    10.3865
   XX=    37.0370   YX=    -4.1238   ZX=     1.3549
   XY=    -4.1918   YY=    30.3188   ZY=    -0.7196
   XZ=     1.7145   YZ=    -0.9440   ZZ=    29.9066
   Eigenvalues:    28.3266    29.5907    39.3451
     24  H    Isotropic =    31.9891   Anisotropy =     8.1801
   XX=    30.7986   YX=     0.2270   ZX=    -0.0043
   XY=     0.4924   YY=    31.9681   ZY=     4.6950
   XZ=     0.7817   YZ=     4.8577   ZZ=    33.2007
   Eigenvalues:    27.7684    30.7565    37.4425
     25  H    Isotropic =    31.9335   Anisotropy =     8.2917
   XX=    31.5466   YX=     1.6527   ZX=    -3.4574
   XY=     1.3725   YY=    32.6279   ZY=    -2.8977
   XZ=    -3.1651   YZ=    -3.8240   ZZ=    31.6261
   Eigenvalues:    27.7578    30.5815    37.4613
     26  H    Isotropic =    32.3017   Anisotropy =    10.5248
   XX=    36.2984   YX=    -1.5308   ZX=     4.6844
   XY=    -1.9155   YY=    29.3777   ZY=    -0.3954
   XZ=     4.6086   YZ=    -0.1054   ZZ=    31.2290
   Eigenvalues:    28.0622    29.5247    39.3182
     27  H    Isotropic =    31.8733   Anisotropy =     7.7613
   XX=    30.5289   YX=     2.7485   ZX=     0.7221
   XY=     2.2908   YY=    35.5077   ZY=    -2.8867
   XZ=     0.7478   YZ=    -1.7691   ZZ=    29.5834
   Eigenvalues:    27.7505    30.8219    37.0476
     28  H    Isotropic =    31.9971   Anisotropy =     6.5994
   XX=    32.5395   YX=    -0.5691   ZX=    -1.0932
   XY=    -1.4098   YY=    29.1146   ZY=     2.6567
   XZ=    -2.1113   YZ=     2.7811   ZZ=    34.3373
   Eigenvalues:    27.9369    31.6578    36.3967
     29  H    Isotropic =    30.4482   Anisotropy =     7.3171
   XX=    34.2151   YX=    -1.4087   ZX=    -0.5501
   XY=    -1.6924   YY=    27.1193   ZY=     3.9843
   XZ=    -1.4550   YZ=     3.5441   ZZ=    30.0102
   Eigenvalues:    24.4788    31.5396    35.3263
     30  H    Isotropic =    31.2401   Anisotropy =     9.6007
   XX=    30.0270   YX=     3.5496   ZX=    -0.2067
   XY=     3.5151   YY=    33.8740   ZY=     4.0663
   XZ=     0.0945   YZ=     4.1444   ZZ=    29.8193
   Eigenvalues:    26.0844    29.9953    37.6406
     31  H    Isotropic =    31.5081   Anisotropy =     8.4855
   XX=    28.6873   YX=     0.1790   ZX=     2.2535
   XY=    -0.3271   YY=    29.7863   ZY=    -1.6728
   XZ=     2.0929   YZ=    -2.3450   ZZ=    36.0506
   Eigenvalues:    27.9442    29.4150    37.1651
     32  H    Isotropic =    30.6104   Anisotropy =     5.0231
   XX=    32.3033   YX=     0.3288   ZX=     0.2436
   XY=     0.1550   YY=    30.7383   ZY=    -4.2949
   XZ=     0.3023   YZ=    -3.8655   ZZ=    28.7896
   Eigenvalues:    25.5495    32.3227    33.9591
     33  H    Isotropic =    30.3200   Anisotropy =     5.6504
   XX=    32.7951   YX=     1.2787   ZX=    -1.6296
   XY=     1.4309   YY=    29.3797   ZY=     5.0247
   XZ=    -1.3385   YZ=     4.9643   ZZ=    28.7854
   Eigenvalues:    23.6383    33.2348    34.0870
     34  H    Isotropic =    30.5139   Anisotropy =     7.8717
   XX=    32.8342   YX=    -1.3450   ZX=    -2.5583
   XY=    -0.4287   YY=    28.0810   ZY=     4.3129
   XZ=    -2.2609   YZ=     3.8940   ZZ=    30.6264
   Eigenvalues:    24.9858    30.7941    35.7616
     35  H    Isotropic =    31.1943   Anisotropy =     9.2462
   XX=    33.3800   YX=    -2.5899   ZX=     3.4328
   XY=    -1.9575   YY=    28.8199   ZY=    -3.3984
   XZ=     3.0159   YZ=    -2.7829   ZZ=    31.3828
   Eigenvalues:    26.7533    29.4711    37.3584
     36  H    Isotropic =    31.0082   Anisotropy =    11.3871
   XX=    35.7636   YX=     4.8342   ZX=    -0.7400
   XY=     4.1966   YY=    31.0832   ZY=    -0.4318
   XZ=    -1.0047   YZ=    -0.7768   ZZ=    26.1777
   Eigenvalues:    26.0856    28.3393    38.5996
     37  C    Isotropic =   146.6038   Anisotropy =    15.5844
   XX=   143.5510   YX=     5.1077   ZX=     9.0833
   XY=     2.3402   YY=   154.4304   ZY=    -9.3959
   XZ=     4.6019   YZ=    -2.8538   ZZ=   141.8301
   Eigenvalues:   133.4136   149.4045   156.9934
     38  C    Isotropic =    47.0670   Anisotropy =   176.6609
   XX=    89.3950   YX=   -56.0497   ZX=    18.2886
   XY=   -54.3693   YY=    37.0633   ZY=   -99.1472
   XZ=    20.6194   YZ=   -97.5634   ZZ=    14.7428
   Eigenvalues:   -76.3612    52.7213   164.8410
     39  C    Isotropic =    63.3709   Anisotropy =   143.1349
   XX=   104.5515   YX=   -48.6904   ZX=     3.2738
   XY=   -48.9773   YY=    45.6078   ZY=   -87.5661
   XZ=     3.1922   YZ=   -87.8644   ZZ=    39.9535
   Eigenvalues:   -51.7190    83.0376   158.7942
     40  H    Isotropic =    30.0280   Anisotropy =     5.3508
   XX=    32.7651   YX=    -0.7342   ZX=     0.1487
   XY=    -0.9839   YY=    31.5697   ZY=    -2.7377
   XZ=     1.0549   YZ=    -1.8207   ZZ=    25.7493
   Eigenvalues:    24.9522    31.5367    33.5952
     41  H    Isotropic =    29.8122   Anisotropy =     5.0041
   XX=    26.9470   YX=     3.2558   ZX=     1.1863
   XY=     2.6199   YY=    30.2841   ZY=    -1.5576
   XZ=    -0.3243   YZ=    -1.1693   ZZ=    32.2056
   Eigenvalues:    25.0768    31.2116    33.1483
     42  H    Isotropic =    25.8474   Anisotropy =     5.9502
   XX=    25.7309   YX=     1.0158   ZX=    -1.6256
   XY=     2.5842   YY=    28.3566   ZY=    -1.7410
   XZ=    -0.9031   YZ=    -1.1259   ZZ=    23.4547
   Eigenvalues:    22.8108    24.9172    29.8142
     43  H    Isotropic =    26.6403   Anisotropy =     6.3297
   XX=    27.8751   YX=     2.4392   ZX=    -0.7654
   XY=     1.3981   YY=    27.1963   ZY=    -1.9431
   XZ=    -2.2321   YZ=    -3.2800   ZZ=    24.8494
   Eigenvalues:    23.1471    25.9136    30.8600
     44  H    Isotropic =    26.7045   Anisotropy =     7.1987
   XX=    27.4987   YX=     0.3424   ZX=    -3.1233
   XY=     1.7884   YY=    26.1055   ZY=    -4.3007
   XZ=    -1.6243   YZ=    -3.0032   ZZ=    26.5092
   Eigenvalues:    22.4754    26.1344    31.5036
 End of Minotr F.D. properties file   721 does not exist.
 End of Minotr F.D. properties file   722 does not exist.
 End of Minotr F.D. properties file   788 does not exist.

 **********************************************************************

            Population analysis using the SCF density.

 **********************************************************************

 Orbital symmetries:
       Occupied  (A) (A) (A) (A) (A) (A) (A) (A) (A) (A) (A) (A)
                 (A) (A) (A) (A) (A) (A) (A) (A) (A) (A) (A) (A)
                 (A) (A) (A) (A) (A) (A) (A) (A) (A) (A) (A) (A)
                 (A) (A) (A) (A) (A) (A) (A) (A) (A) (A) (A) (A)
                 (A) (A) (A) (A) (A) (A) (A) (A) (A) (A) (A) (A)
                 (A) (A) (A) (A) (A) (A) (A) (A) (A) (A) (A) (A)
                 (A) (A)
       Virtual   (A) (A) (A) (A) (A) (A) (A) (A) (A) (A) (A) (A)
                 (A) (A) (A) (A) (A) (A) (A) (A) (A) (A) (A) (A)
                 (A) (A) (A) (A) (A) (A) (A) (A) (A) (A) (A) (A)
                 (A) (A) (A) (A) (A) (A) (A) (A) (A) (A) (A) (A)
                 (A) (A) (A) (A) (A) (A) (A) (A) (A) (A) (A) (A)
                 (A) (A) (A) (A) (A) (A) (A) (A) (A) (A) (A) (A)
                 (A) (A) (A) (A) (A) (A) (A) (A) (A) (A) (A) (A)
                 (A) (A) (A) (A) (A) (A) (A) (A) (A) (A) (A) (A)
                 (A) (A) (A) (A) (A) (A) (A) (A) (A) (A) (A) (A)
                 (A) (A) (A) (A) (A) (A) (A) (A) (A) (A) (A) (A)
                 (A) (A) (A) (A) (A) (A) (A) (A) (A) (A) (A) (A)
                 (A) (A) (A) (A) (A) (A) (A) (A) (A) (A) (A) (A)
                 (A) (A) (A) (A) (A) (A) (A) (A) (A) (A) (A) (A)
                 (A) (A) (A) (A) (A) (A) (A) (A) (A) (A) (A) (A)
                 (A) (A) (A) (A) (A) (A) (A) (A) (A) (A) (A) (A)
                 (A) (A) (A) (A) (A) (A) (A) (A) (A) (A) (A) (A)
                 (A) (A) (A) (A) (A) (A) (A) (A) (A) (A) (A) (A)
                 (A) (A) (A) (A) (A) (A) (A) (A) (A) (A) (A) (A)
                 (A) (A) (A) (A) (A) (A) (A) (A) (A) (A) (A) (A)
                 (A) (A) (A) (A) (A) (A) (A) (A) (A) (A) (A) (A)
                 (A) (A) (A) (A) (A) (A) (A) (A) (A) (A) (A) (A)
                 (A) (A) (A) (A) (A) (A) (A) (A) (A) (A) (A) (A)
                 (A) (A) (A) (A) (A) (A) (A) (A) (A) (A) (A) (A)
                 (A) (A) (A) (A) (A) (A) (A) (A) (A) (A) (A) (A)
                 (A) (A) (A) (A) (A) (A) (A) (A) (A) (A) (A) (A)
                 (A) (A) (A) (A) (A) (A) (A) (A) (A) (A) (A) (A)
                 (A) (A) (A) (A) (A) (A) (A) (A) (A) (A) (A) (A)
                 (A) (A) (A) (A) (A) (A) (A) (A) (A) (A) (A) (A)
 The electronic state is 1-A.
 Alpha  occ. eigenvalues --  -66.27364 -19.26009 -19.20523 -19.19707 -10.37131
 Alpha  occ. eigenvalues --  -10.31826 -10.30731 -10.25447 -10.25328 -10.24095
 Alpha  occ. eigenvalues --  -10.24059 -10.23919 -10.22745 -10.22730 -10.22106
 Alpha  occ. eigenvalues --  -10.20987 -10.20685 -10.20586  -5.33089  -3.66981
 Alpha  occ. eigenvalues --   -3.66682  -3.66669  -1.13312  -1.04913  -1.04043
 Alpha  occ. eigenvalues --   -0.85944  -0.83305  -0.80610  -0.77872  -0.74047
 Alpha  occ. eigenvalues --   -0.72482  -0.71960  -0.70295  -0.70067  -0.66595
 Alpha  occ. eigenvalues --   -0.64029  -0.62002  -0.58583  -0.56139  -0.53899
 Alpha  occ. eigenvalues --   -0.52631  -0.49751  -0.49468  -0.48186  -0.47570
 Alpha  occ. eigenvalues --   -0.47081  -0.45569  -0.44799  -0.44174  -0.43305
 Alpha  occ. eigenvalues --   -0.42631  -0.42395  -0.41941  -0.41647  -0.41342
 Alpha  occ. eigenvalues --   -0.40799  -0.40379  -0.39854  -0.39571  -0.39034
 Alpha  occ. eigenvalues --   -0.38498  -0.37916  -0.36908  -0.36515  -0.35865
 Alpha  occ. eigenvalues --   -0.35686  -0.34226  -0.33570  -0.32472  -0.31116
 Alpha  occ. eigenvalues --   -0.30607  -0.28584  -0.28329  -0.27310
 Alpha virt. eigenvalues --    0.00352   0.01075   0.03949   0.05777   0.06130
 Alpha virt. eigenvalues --    0.06343   0.07637   0.07989   0.08562   0.08742
 Alpha virt. eigenvalues --    0.09281   0.09668   0.10057   0.10766   0.11233
 Alpha virt. eigenvalues --    0.11742   0.12753   0.13070   0.13189   0.13645
 Alpha virt. eigenvalues --    0.13904   0.14587   0.14741   0.14849   0.15920
 Alpha virt. eigenvalues --    0.16138   0.17104   0.17379   0.17746   0.18251
 Alpha virt. eigenvalues --    0.19044   0.19347   0.19708   0.20137   0.20817
 Alpha virt. eigenvalues --    0.21738   0.22616   0.23253   0.24088   0.24959
 Alpha virt. eigenvalues --    0.25342   0.25815   0.26640   0.26700   0.28394
 Alpha virt. eigenvalues --    0.29092   0.29532   0.30435   0.31344   0.32304
 Alpha virt. eigenvalues --    0.33514   0.33755   0.34395   0.35480   0.36346
 Alpha virt. eigenvalues --    0.36653   0.38007   0.38423   0.39771   0.40742
 Alpha virt. eigenvalues --    0.41256   0.41946   0.42969   0.43324   0.44074
 Alpha virt. eigenvalues --    0.44649   0.45085   0.46560   0.47339   0.47910
 Alpha virt. eigenvalues --    0.49658   0.50081   0.50437   0.51444   0.52336
 Alpha virt. eigenvalues --    0.53893   0.54534   0.54901   0.55604   0.56210
 Alpha virt. eigenvalues --    0.57206   0.57886   0.58494   0.59033   0.59082
 Alpha virt. eigenvalues --    0.59834   0.60226   0.60562   0.60703   0.61174
 Alpha virt. eigenvalues --    0.61629   0.61954   0.62260   0.62740   0.63026
 Alpha virt. eigenvalues --    0.63849   0.63904   0.64360   0.65154   0.65579
 Alpha virt. eigenvalues --    0.65695   0.66106   0.67243   0.68103   0.68675
 Alpha virt. eigenvalues --    0.68964   0.69389   0.69684   0.70249   0.71109
 Alpha virt. eigenvalues --    0.71320   0.72159   0.72462   0.73608   0.74390
 Alpha virt. eigenvalues --    0.76006   0.76334   0.77143   0.78158   0.79542
 Alpha virt. eigenvalues --    0.82278   0.84187   0.85018   0.87351   0.87470
 Alpha virt. eigenvalues --    0.89858   0.91471   0.91923   0.93007   0.93850
 Alpha virt. eigenvalues --    0.94806   0.95993   0.96458   0.97294   0.98581
 Alpha virt. eigenvalues --    1.01728   1.02882   1.05263   1.07887   1.10609
 Alpha virt. eigenvalues --    1.12125   1.16309   1.17204   1.18712   1.19066
 Alpha virt. eigenvalues --    1.22007   1.22860   1.24631   1.25982   1.27330
 Alpha virt. eigenvalues --    1.27725   1.29441   1.31857   1.33027   1.33553
 Alpha virt. eigenvalues --    1.33629   1.37375   1.39438   1.40979   1.41261
 Alpha virt. eigenvalues --    1.43860   1.44346   1.46395   1.46753   1.47870
 Alpha virt. eigenvalues --    1.48941   1.51256   1.52261   1.53076   1.53217
 Alpha virt. eigenvalues --    1.54139   1.54819   1.55644   1.57019   1.58505
 Alpha virt. eigenvalues --    1.58659   1.59211   1.60003   1.60445   1.60843
 Alpha virt. eigenvalues --    1.61194   1.61294   1.61769   1.62467   1.63640
 Alpha virt. eigenvalues --    1.64472   1.65279   1.66388   1.67454   1.68041
 Alpha virt. eigenvalues --    1.69192   1.69730   1.71722   1.73376   1.74174
 Alpha virt. eigenvalues --    1.75577   1.76994   1.78226   1.80496   1.80720
 Alpha virt. eigenvalues --    1.81064   1.81585   1.82918   1.83719   1.88800
 Alpha virt. eigenvalues --    1.90285   1.91077   1.93997   1.94529   1.97921
 Alpha virt. eigenvalues --    1.99573   2.01864   2.05663   2.08344   2.12552
 Alpha virt. eigenvalues --    2.16092   2.17470   2.22134   2.22717   2.24576
 Alpha virt. eigenvalues --    2.27693   2.31751   2.34547   2.35769   2.40298
 Alpha virt. eigenvalues --    2.40708   2.42046   2.42520   2.42769   2.43837
 Alpha virt. eigenvalues --    2.44150   2.44491   2.46004   2.46558   2.47522
 Alpha virt. eigenvalues --    2.47744   2.48747   2.49826   2.50460   2.51183
 Alpha virt. eigenvalues --    2.52068   2.52401   2.57457   2.59163   2.60539
 Alpha virt. eigenvalues --    2.61268   2.62757   2.67190   2.72974   2.80511
 Alpha virt. eigenvalues --    2.81555   2.86814   2.88315   2.90169   2.91682
 Alpha virt. eigenvalues --    2.92163   2.93272   2.95014   2.96205   2.97279
 Alpha virt. eigenvalues --    2.99342   2.99549   3.00670   3.00937   3.04227
 Alpha virt. eigenvalues --    3.08637   3.10461   3.12051   3.13373   3.15251
 Alpha virt. eigenvalues --    3.15870   3.17108   3.17718   3.19458   3.20298
 Alpha virt. eigenvalues --    3.22357   3.22738   3.22894   3.23075   3.23937
 Alpha virt. eigenvalues --    3.25235   3.26812   3.28093   3.28870   3.29607
 Alpha virt. eigenvalues --    3.33962   3.34530   3.36525   3.37398   3.39077
 Alpha virt. eigenvalues --    3.43558   3.51221   3.58471   3.59335   3.63272
 Alpha virt. eigenvalues --    3.78493   3.88315   3.89317   3.99646   4.04660
 Alpha virt. eigenvalues --    4.09737   4.13707   4.17822   4.22012   4.26353
 Alpha virt. eigenvalues --    4.93622   5.00618   5.02279   5.12432   5.15082
 Alpha virt. eigenvalues --    5.23452   5.52380   5.56960   5.76471   5.85421
 Alpha virt. eigenvalues --   11.52950  11.53327  11.56683  23.40276  23.49694
 Alpha virt. eigenvalues --   23.54251  23.54359  23.56845  23.60312  23.70530
 Alpha virt. eigenvalues --   23.72800  23.79956  23.80128  23.82892  23.85225
 Alpha virt. eigenvalues --   23.88726  24.29641  49.98978  50.06649  50.13316
 Alpha virt. eigenvalues --  141.26861
          Condensed to atoms (all electrons):
               1          2          3          4          5          6
     1  C    5.215495   0.276701  -0.052902  -0.003921  -0.048486   0.382811
     2  C    0.276701   5.515500   0.327054  -0.102305  -0.008033  -0.040288
     3  C   -0.052902   0.327054   5.167968   0.251971  -0.018005  -0.016027
     4  C   -0.003921  -0.102305   0.251971   5.887557   0.239131   0.002276
     5  C   -0.048486  -0.008033  -0.018005   0.239131   4.385496  -0.000915
     6  H    0.382811  -0.040288  -0.016027   0.002276  -0.000915   0.490070
     7  H   -0.048971   0.411051  -0.060881  -0.005269   0.000898   0.007460
     8  H    0.000996  -0.006986  -0.033031   0.362202  -0.026124   0.000045
     9  H   -0.000471   0.006527  -0.029246   0.364022  -0.026631   0.000165
    10  O    0.214023  -0.033779   0.007292  -0.109238   0.345783  -0.035428
    11  O    0.002362  -0.000232   0.003254  -0.095558   0.671708  -0.000093
    12  C    0.323034  -0.068071   0.009136  -0.002401   0.001697  -0.049336
    13  C   -0.069968   0.007203  -0.000136   0.000047   0.000028  -0.005478
    14  C   -0.068575   0.297886  -0.056944   0.007528   0.000092  -0.002025
    15  O    0.004392  -0.054023   0.225905  -0.020104   0.002033  -0.000075
    16  Si   0.001969  -0.008656  -0.043330  -0.007048   0.001446  -0.000198
    17  C    0.000007  -0.000266  -0.000443  -0.000465   0.000007   0.000000
    18  C   -0.000044   0.001041  -0.000258  -0.002466  -0.000001   0.000000
    19  C   -0.000001  -0.000105   0.002051  -0.000054   0.000002   0.000000
    20  H   -0.000001   0.000056  -0.000040   0.000108   0.000001   0.000000
    21  H   -0.000050   0.000256   0.000322  -0.000132   0.000047   0.000000
    22  H   -0.000050   0.000514   0.000012   0.000281   0.000001  -0.000001
    23  H    0.000000  -0.000002  -0.000057  -0.000001   0.000000   0.000000
    24  H   -0.000001   0.000034  -0.000094  -0.000022   0.000000   0.000000
    25  H    0.000001  -0.000025  -0.000138  -0.000038   0.000000   0.000000
    26  H    0.000000   0.000004  -0.000037   0.000114   0.000000   0.000000
    27  H    0.000003  -0.000048   0.000391  -0.000258  -0.000024   0.000000
    28  H    0.000003  -0.000013  -0.000146   0.001289  -0.000014   0.000000
    29  H    0.006374  -0.037122  -0.007903   0.000685  -0.000096  -0.000053
    30  H   -0.005125  -0.035097   0.007279  -0.000313   0.000005  -0.000835
    31  H   -0.005587  -0.039094  -0.008922  -0.000169   0.000022   0.006078
    32  H   -0.045303  -0.006624  -0.001068   0.000246  -0.000053   0.008222
    33  H   -0.043768  -0.005004  -0.000094   0.000117   0.000020  -0.000234
    34  H   -0.011666   0.000480  -0.000057   0.000382   0.000835   0.000194
    35  H   -0.004082  -0.000143  -0.000005  -0.000004  -0.000088   0.004785
    36  H    0.008022  -0.000236   0.000011  -0.000001   0.000001  -0.000241
    37  C    0.000737  -0.096953   0.263635  -0.097151  -0.003327   0.006433
    38  C   -0.000666   0.009743  -0.063367  -0.005728   0.000554   0.000166
    39  C    0.000018  -0.000193  -0.002464   0.000433   0.000029  -0.000003
    40  H    0.002895  -0.006232  -0.037188  -0.001797   0.002511  -0.002093
    41  H   -0.000129  -0.010237  -0.034928   0.006252  -0.000251  -0.000158
    42  H   -0.000094  -0.000104  -0.004357   0.001923   0.000686   0.000066
    43  H   -0.000001   0.000016  -0.000146   0.000007  -0.000005  -0.000001
    44  H   -0.000001  -0.000072  -0.000156   0.000056   0.000001   0.000005
               7          8          9         10         11         12
     1  C   -0.048971   0.000996  -0.000471   0.214023   0.002362   0.323034
     2  C    0.411051  -0.006986   0.006527  -0.033779  -0.000232  -0.068071
     3  C   -0.060881  -0.033031  -0.029246   0.007292   0.003254   0.009136
     4  C   -0.005269   0.362202   0.364022  -0.109238  -0.095558  -0.002401
     5  C    0.000898  -0.026124  -0.026631   0.345783   0.671708   0.001697
     6  H    0.007460   0.000045   0.000165  -0.035428  -0.000093  -0.049336
     7  H    0.475853   0.002795   0.000226   0.001830  -0.000088  -0.007641
     8  H    0.002795   0.416438  -0.014031   0.002195   0.001696  -0.000025
     9  H    0.000226  -0.014031   0.405035   0.004602   0.010801   0.000052
    10  O    0.001830   0.002195   0.004602   8.047709  -0.078132  -0.054385
    11  O   -0.000088   0.001696   0.010801  -0.078132   7.866811  -0.000142
    12  C   -0.007641  -0.000025   0.000052  -0.054385  -0.000142   5.312148
    13  C   -0.000063   0.000002  -0.000002  -0.006100  -0.000014   0.317485
    14  C   -0.035222   0.000164  -0.000137   0.003163   0.000005  -0.004211
    15  O   -0.000803  -0.004434  -0.000963  -0.000016  -0.000019  -0.000075
    16  Si  -0.001407   0.001365  -0.004469  -0.000407  -0.000513  -0.000162
    17  C   -0.000066  -0.000329  -0.001980  -0.000001   0.000000   0.000000
    18  C   -0.001284   0.003274   0.000147   0.000002   0.000002   0.000002
    19  C   -0.000061  -0.000017  -0.000031   0.000000   0.000000   0.000000
    20  H    0.000174  -0.000016  -0.000002   0.000000   0.000000   0.000000
    21  H   -0.000498   0.005538  -0.000024   0.000001   0.000003   0.000011
    22  H   -0.000002  -0.000485   0.000005  -0.000001   0.000000   0.000017
    23  H   -0.000002   0.000005  -0.000003   0.000000   0.000000   0.000000
    24  H   -0.000017  -0.000006  -0.000007   0.000000   0.000000   0.000000
    25  H   -0.000003  -0.000002  -0.000008   0.000000   0.000000   0.000000
    26  H    0.000002  -0.000026   0.000207   0.000000   0.000000   0.000000
    27  H   -0.000002   0.000029   0.000206   0.000000   0.000001   0.000000
    28  H   -0.000013   0.000292   0.000135  -0.000002  -0.000052   0.000000
    29  H   -0.002893   0.000050  -0.000027  -0.000105   0.000000  -0.000022
    30  H   -0.007919  -0.000034   0.000012  -0.000020   0.000000   0.001520
    31  H    0.006933  -0.000013   0.000017   0.000039   0.000001  -0.000292
    32  H    0.006283   0.000128   0.000017   0.003008  -0.000140   0.387200
    33  H   -0.000010  -0.000020  -0.000002   0.003823   0.000007   0.387958
    34  H    0.000005  -0.000022  -0.000008   0.013014   0.000239  -0.038528
    35  H    0.000019   0.000001   0.000000  -0.000353  -0.000003  -0.040868
    36  H   -0.000032  -0.000001   0.000000  -0.000180   0.000000  -0.037563
    37  C    0.009089   0.006726  -0.006524  -0.003186   0.000288  -0.000169
    38  C   -0.000207  -0.000107   0.004786  -0.000119  -0.000095   0.000002
    39  C   -0.000007  -0.000004   0.000644  -0.000002   0.000002   0.000000
    40  H   -0.000404   0.000030   0.000197   0.003094  -0.000341   0.001045
    41  H   -0.000114  -0.000134  -0.000008   0.000103   0.000001  -0.000068
    42  H    0.000032   0.000260   0.001233  -0.000120   0.000671  -0.000003
    43  H   -0.000001  -0.000005   0.000005   0.000000   0.000000   0.000000
    44  H    0.000004   0.000006   0.000006   0.000000   0.000000   0.000000
              13         14         15         16         17         18
     1  C   -0.069968  -0.068575   0.004392   0.001969   0.000007  -0.000044
     2  C    0.007203   0.297886  -0.054023  -0.008656  -0.000266   0.001041
     3  C   -0.000136  -0.056944   0.225905  -0.043330  -0.000443  -0.000258
     4  C    0.000047   0.007528  -0.020104  -0.007048  -0.000465  -0.002466
     5  C    0.000028   0.000092   0.002033   0.001446   0.000007  -0.000001
     6  H   -0.005478  -0.002025  -0.000075  -0.000198   0.000000   0.000000
     7  H   -0.000063  -0.035222  -0.000803  -0.001407  -0.000066  -0.001284
     8  H    0.000002   0.000164  -0.004434   0.001365  -0.000329   0.003274
     9  H   -0.000002  -0.000137  -0.000963  -0.004469  -0.001980   0.000147
    10  O   -0.006100   0.003163  -0.000016  -0.000407  -0.000001   0.000002
    11  O   -0.000014   0.000005  -0.000019  -0.000513   0.000000   0.000002
    12  C    0.317485  -0.004211  -0.000075  -0.000162   0.000000   0.000002
    13  C    5.337562  -0.000331   0.000001   0.000011   0.000000   0.000000
    14  C   -0.000331   5.392395  -0.007809  -0.000939   0.000001   0.000234
    15  O    0.000001  -0.007809   8.279743   0.348960  -0.022847  -0.024218
    16  Si   0.000011  -0.000939   0.348960  11.506016   0.318831   0.307841
    17  C    0.000000   0.000001  -0.022847   0.318831   5.766585  -0.055424
    18  C    0.000000   0.000234  -0.024218   0.307841  -0.055424   5.782554
    19  C    0.000000  -0.000082  -0.030270   0.336812  -0.044354  -0.045160
    20  H    0.000000  -0.000006   0.000914  -0.010621   0.000483   0.361877
    21  H    0.000000   0.000024  -0.001396  -0.029055  -0.000987   0.368285
    22  H    0.000000   0.000195  -0.002225  -0.027031   0.002178   0.371451
    23  H    0.000000  -0.000002   0.001226  -0.014578   0.000600   0.000492
    24  H    0.000000   0.000127  -0.001724  -0.024633   0.002152  -0.000640
    25  H    0.000000  -0.000007  -0.001653  -0.023879  -0.000509   0.002112
    26  H    0.000000   0.000000   0.000937  -0.012197   0.361475   0.000773
    27  H    0.000000   0.000000  -0.002544  -0.025384   0.368947   0.001948
    28  H    0.000000   0.000000  -0.000967  -0.026698   0.371657  -0.001003
    29  H    0.000017   0.384156   0.011058   0.002213   0.000046  -0.000004
    30  H    0.000022   0.390449  -0.000063  -0.000160   0.000000   0.000040
    31  H   -0.000095   0.386512   0.000014  -0.000083   0.000001   0.000001
    32  H   -0.040143   0.001122  -0.000012  -0.000095   0.000000   0.000018
    33  H   -0.037375   0.001251  -0.000007  -0.000008   0.000000  -0.000001
    34  H    0.384435  -0.000080   0.000000   0.000003   0.000000   0.000000
    35  H    0.385324   0.000065   0.000000   0.000000   0.000000   0.000000
    36  H    0.392122   0.000001   0.000000   0.000000   0.000000   0.000000
    37  C   -0.000012  -0.008191  -0.073689  -0.003287   0.000101  -0.000289
    38  C   -0.000001  -0.000359   0.001565  -0.000106  -0.000517   0.000015
    39  C    0.000000   0.000013   0.001671   0.000492  -0.000354   0.000005
    40  H   -0.000013   0.000602   0.003757   0.000300  -0.000005   0.000017
    41  H    0.000002   0.002297   0.001058  -0.000310   0.000024   0.000001
    42  H    0.000000  -0.000024   0.000231  -0.000331   0.000069   0.000001
    43  H    0.000000   0.000000   0.000096   0.000254   0.000019   0.000000
    44  H    0.000000   0.000002   0.000476  -0.000251   0.000012   0.000001
              19         20         21         22         23         24
     1  C   -0.000001  -0.000001  -0.000050  -0.000050   0.000000  -0.000001
     2  C   -0.000105   0.000056   0.000256   0.000514  -0.000002   0.000034
     3  C    0.002051  -0.000040   0.000322   0.000012  -0.000057  -0.000094
     4  C   -0.000054   0.000108  -0.000132   0.000281  -0.000001  -0.000022
     5  C    0.000002   0.000001   0.000047   0.000001   0.000000   0.000000
     6  H    0.000000   0.000000   0.000000  -0.000001   0.000000   0.000000
     7  H   -0.000061   0.000174  -0.000498  -0.000002  -0.000002  -0.000017
     8  H   -0.000017  -0.000016   0.005538  -0.000485   0.000005  -0.000006
     9  H   -0.000031  -0.000002  -0.000024   0.000005  -0.000003  -0.000007
    10  O    0.000000   0.000000   0.000001  -0.000001   0.000000   0.000000
    11  O    0.000000   0.000000   0.000003   0.000000   0.000000   0.000000
    12  C    0.000000   0.000000   0.000011   0.000017   0.000000   0.000000
    13  C    0.000000   0.000000   0.000000   0.000000   0.000000   0.000000
    14  C   -0.000082  -0.000006   0.000024   0.000195  -0.000002   0.000127
    15  O   -0.030270   0.000914  -0.001396  -0.002225   0.001226  -0.001724
    16  Si   0.336812  -0.010621  -0.029055  -0.027031  -0.014578  -0.024633
    17  C   -0.044354   0.000483  -0.000987   0.002178   0.000600   0.002152
    18  C   -0.045160   0.361877   0.368285   0.371451   0.000492  -0.000640
    19  C    5.719860  -0.000521   0.002375  -0.000490   0.360586   0.369428
    20  H   -0.000521   0.449253  -0.021464  -0.022414   0.000698  -0.000085
    21  H    0.002375  -0.021464   0.449136  -0.019063  -0.000077  -0.000080
    22  H   -0.000490  -0.022414  -0.019063   0.453237  -0.000036   0.001234
    23  H    0.360586   0.000698  -0.000077  -0.000036   0.462283  -0.021908
    24  H    0.369428  -0.000085  -0.000080   0.001234  -0.021908   0.455483
    25  H    0.370136  -0.000051  -0.000090  -0.000084  -0.021387  -0.019372
    26  H   -0.000457   0.000476   0.000032  -0.000059   0.000699  -0.000045
    27  H   -0.000281  -0.000029  -0.000052  -0.000093  -0.000055  -0.000099
    28  H    0.002290   0.000016   0.001029  -0.000021  -0.000064  -0.000091
    29  H    0.000182  -0.000003  -0.000011   0.000146   0.000000   0.000709
    30  H   -0.000001  -0.000001   0.000006   0.000083   0.000000   0.000000
    31  H    0.000003   0.000000   0.000000  -0.000008   0.000000  -0.000011
    32  H    0.000000  -0.000001   0.000018   0.000007   0.000000   0.000000
    33  H    0.000000   0.000000   0.000000   0.000001   0.000000   0.000000
    34  H    0.000000   0.000000   0.000000   0.000000   0.000000   0.000000
    35  H    0.000000   0.000000   0.000000   0.000000   0.000000   0.000000
    36  H    0.000000   0.000000   0.000000   0.000000   0.000000   0.000000
    37  C    0.000075   0.000004  -0.000061  -0.000068   0.000000  -0.000018
    38  C   -0.000138   0.000001   0.000008   0.000002  -0.000005  -0.000007
    39  C   -0.000119   0.000000   0.000001   0.000000  -0.000010  -0.000022
    40  H    0.000001   0.000000   0.000005   0.000003   0.000000  -0.000001
    41  H   -0.000067   0.000000  -0.000001  -0.000001   0.000002  -0.000017
    42  H    0.000000   0.000000  -0.000001   0.000000   0.000000   0.000000
    43  H   -0.000005   0.000000   0.000000   0.000000   0.000000   0.000000
    44  H    0.000068   0.000000   0.000000   0.000000  -0.000002  -0.000001
              25         26         27         28         29         30
     1  C    0.000001   0.000000   0.000003   0.000003   0.006374  -0.005125
     2  C   -0.000025   0.000004  -0.000048  -0.000013  -0.037122  -0.035097
     3  C   -0.000138  -0.000037   0.000391  -0.000146  -0.007903   0.007279
     4  C   -0.000038   0.000114  -0.000258   0.001289   0.000685  -0.000313
     5  C    0.000000   0.000000  -0.000024  -0.000014  -0.000096   0.000005
     6  H    0.000000   0.000000   0.000000   0.000000  -0.000053  -0.000835
     7  H   -0.000003   0.000002  -0.000002  -0.000013  -0.002893  -0.007919
     8  H   -0.000002  -0.000026   0.000029   0.000292   0.000050  -0.000034
     9  H   -0.000008   0.000207   0.000206   0.000135  -0.000027   0.000012
    10  O    0.000000   0.000000   0.000000  -0.000002  -0.000105  -0.000020
    11  O    0.000000   0.000000   0.000001  -0.000052   0.000000   0.000000
    12  C    0.000000   0.000000   0.000000   0.000000  -0.000022   0.001520
    13  C    0.000000   0.000000   0.000000   0.000000   0.000017   0.000022
    14  C   -0.000007   0.000000   0.000000   0.000000   0.384156   0.390449
    15  O   -0.001653   0.000937  -0.002544  -0.000967   0.011058  -0.000063
    16  Si  -0.023879  -0.012197  -0.025384  -0.026698   0.002213  -0.000160
    17  C   -0.000509   0.361475   0.368947   0.371657   0.000046   0.000000
    18  C    0.002112   0.000773   0.001948  -0.001003  -0.000004   0.000040
    19  C    0.370136  -0.000457  -0.000281   0.002290   0.000182  -0.000001
    20  H   -0.000051   0.000476  -0.000029   0.000016  -0.000003  -0.000001
    21  H   -0.000090   0.000032  -0.000052   0.001029  -0.000011   0.000006
    22  H   -0.000084  -0.000059  -0.000093  -0.000021   0.000146   0.000083
    23  H   -0.021387   0.000699  -0.000055  -0.000064   0.000000   0.000000
    24  H   -0.019372  -0.000045  -0.000099  -0.000091   0.000709   0.000000
    25  H    0.451464  -0.000088   0.001144  -0.000078  -0.000012   0.000000
    26  H   -0.000088   0.455031  -0.020407  -0.022891  -0.000001   0.000000
    27  H    0.001144  -0.020407   0.445898  -0.019724   0.000003   0.000000
    28  H   -0.000078  -0.022891  -0.019724   0.453770   0.000001   0.000000
    29  H   -0.000012  -0.000001   0.000003   0.000001   0.427834  -0.022816
    30  H    0.000000   0.000000   0.000000   0.000000  -0.022816   0.456694
    31  H    0.000000   0.000000   0.000000   0.000000  -0.024259  -0.027060
    32  H    0.000000   0.000000   0.000000   0.000000  -0.000070   0.000146
    33  H    0.000000   0.000000   0.000000   0.000000   0.000322   0.001898
    34  H    0.000000   0.000000   0.000000   0.000000   0.000004  -0.000017
    35  H    0.000000   0.000000   0.000000   0.000000  -0.000005   0.000048
    36  H    0.000000   0.000000   0.000000   0.000000  -0.000001   0.000007
    37  C    0.000130   0.000001   0.000218   0.000021  -0.000903  -0.000186
    38  C    0.000073   0.000032   0.001722  -0.000031  -0.000199   0.000014
    39  C    0.000332   0.000011   0.002151   0.000006   0.000033  -0.000001
    40  H   -0.000001   0.000000   0.000006   0.000002   0.000061  -0.000058
    41  H    0.000000   0.000000   0.000011   0.000002   0.000789   0.000232
    42  H    0.000001  -0.000003  -0.000003  -0.000035  -0.000001   0.000001
    43  H   -0.000011   0.000000   0.000088   0.000001  -0.000001   0.000000
    44  H    0.000184  -0.000001   0.000013  -0.000003   0.000026   0.000000
              31         32         33         34         35         36
     1  C   -0.005587  -0.045303  -0.043768  -0.011666  -0.004082   0.008022
     2  C   -0.039094  -0.006624  -0.005004   0.000480  -0.000143  -0.000236
     3  C   -0.008922  -0.001068  -0.000094  -0.000057  -0.000005   0.000011
     4  C   -0.000169   0.000246   0.000117   0.000382  -0.000004  -0.000001
     5  C    0.000022  -0.000053   0.000020   0.000835  -0.000088   0.000001
     6  H    0.006078   0.008222  -0.000234   0.000194   0.004785  -0.000241
     7  H    0.006933   0.006283  -0.000010   0.000005   0.000019  -0.000032
     8  H   -0.000013   0.000128  -0.000020  -0.000022   0.000001  -0.000001
     9  H    0.000017   0.000017  -0.000002  -0.000008   0.000000   0.000000
    10  O    0.000039   0.003008   0.003823   0.013014  -0.000353  -0.000180
    11  O    0.000001  -0.000140   0.000007   0.000239  -0.000003   0.000000
    12  C   -0.000292   0.387200   0.387958  -0.038528  -0.040868  -0.037563
    13  C   -0.000095  -0.040143  -0.037375   0.384435   0.385324   0.392122
    14  C    0.386512   0.001122   0.001251  -0.000080   0.000065   0.000001
    15  O    0.000014  -0.000012  -0.000007   0.000000   0.000000   0.000000
    16  Si  -0.000083  -0.000095  -0.000008   0.000003   0.000000   0.000000
    17  C    0.000001   0.000000   0.000000   0.000000   0.000000   0.000000
    18  C    0.000001   0.000018  -0.000001   0.000000   0.000000   0.000000
    19  C    0.000003   0.000000   0.000000   0.000000   0.000000   0.000000
    20  H    0.000000  -0.000001   0.000000   0.000000   0.000000   0.000000
    21  H    0.000000   0.000018   0.000000   0.000000   0.000000   0.000000
    22  H   -0.000008   0.000007   0.000001   0.000000   0.000000   0.000000
    23  H    0.000000   0.000000   0.000000   0.000000   0.000000   0.000000
    24  H   -0.000011   0.000000   0.000000   0.000000   0.000000   0.000000
    25  H    0.000000   0.000000   0.000000   0.000000   0.000000   0.000000
    26  H    0.000000   0.000000   0.000000   0.000000   0.000000   0.000000
    27  H    0.000000   0.000000   0.000000   0.000000   0.000000   0.000000
    28  H    0.000000   0.000000   0.000000   0.000000   0.000000   0.000000
    29  H   -0.024259  -0.000070   0.000322   0.000004  -0.000005  -0.000001
    30  H   -0.027060   0.000146   0.001898  -0.000017   0.000048   0.000007
    31  H    0.470499   0.000043   0.000163   0.000001  -0.000017   0.000001
    32  H    0.000043   0.484919  -0.025688  -0.004136   0.006869  -0.004783
    33  H    0.000163  -0.025688   0.478066   0.006952  -0.004772  -0.004707
    34  H    0.000001  -0.004136   0.006952   0.460167  -0.027452  -0.025507
    35  H   -0.000017   0.006869  -0.004772  -0.027452   0.484844  -0.027323
    36  H    0.000001  -0.004783  -0.004707  -0.025507  -0.027323   0.470809
    37  C    0.003769   0.000036   0.000007  -0.000002  -0.000011   0.000000
    38  C    0.000187   0.000000   0.000001   0.000000   0.000000   0.000000
    39  C    0.000000   0.000000   0.000000   0.000000   0.000000   0.000000
    40  H   -0.000312  -0.000051  -0.000033  -0.000005  -0.000023   0.000002
    41  H   -0.000194   0.000000  -0.000009   0.000000   0.000001   0.000000
    42  H   -0.000002   0.000001   0.000000   0.000000   0.000000   0.000000
    43  H    0.000000   0.000000   0.000000   0.000000   0.000000   0.000000
    44  H   -0.000006   0.000000   0.000000   0.000000   0.000000   0.000000
              37         38         39         40         41         42
     1  C    0.000737  -0.000666   0.000018   0.002895  -0.000129  -0.000094
     2  C   -0.096953   0.009743  -0.000193  -0.006232  -0.010237  -0.000104
     3  C    0.263635  -0.063367  -0.002464  -0.037188  -0.034928  -0.004357
     4  C   -0.097151  -0.005728   0.000433  -0.001797   0.006252   0.001923
     5  C   -0.003327   0.000554   0.000029   0.002511  -0.000251   0.000686
     6  H    0.006433   0.000166  -0.000003  -0.002093  -0.000158   0.000066
     7  H    0.009089  -0.000207  -0.000007  -0.000404  -0.000114   0.000032
     8  H    0.006726  -0.000107  -0.000004   0.000030  -0.000134   0.000260
     9  H   -0.006524   0.004786   0.000644   0.000197  -0.000008   0.001233
    10  O   -0.003186  -0.000119  -0.000002   0.003094   0.000103  -0.000120
    11  O    0.000288  -0.000095   0.000002  -0.000341   0.000001   0.000671
    12  C   -0.000169   0.000002   0.000000   0.001045  -0.000068  -0.000003
    13  C   -0.000012  -0.000001   0.000000  -0.000013   0.000002   0.000000
    14  C   -0.008191  -0.000359   0.000013   0.000602   0.002297  -0.000024
    15  O   -0.073689   0.001565   0.001671   0.003757   0.001058   0.000231
    16  Si  -0.003287  -0.000106   0.000492   0.000300  -0.000310  -0.000331
    17  C    0.000101  -0.000517  -0.000354  -0.000005   0.000024   0.000069
    18  C   -0.000289   0.000015   0.000005   0.000017   0.000001   0.000001
    19  C    0.000075  -0.000138  -0.000119   0.000001  -0.000067   0.000000
    20  H    0.000004   0.000001   0.000000   0.000000   0.000000   0.000000
    21  H   -0.000061   0.000008   0.000001   0.000005  -0.000001  -0.000001
    22  H   -0.000068   0.000002   0.000000   0.000003  -0.000001   0.000000
    23  H    0.000000  -0.000005  -0.000010   0.000000   0.000002   0.000000
    24  H   -0.000018  -0.000007  -0.000022  -0.000001  -0.000017   0.000000
    25  H    0.000130   0.000073   0.000332  -0.000001   0.000000   0.000001
    26  H    0.000001   0.000032   0.000011   0.000000   0.000000  -0.000003
    27  H    0.000218   0.001722   0.002151   0.000006   0.000011  -0.000003
    28  H    0.000021  -0.000031   0.000006   0.000002   0.000002  -0.000035
    29  H   -0.000903  -0.000199   0.000033   0.000061   0.000789  -0.000001
    30  H   -0.000186   0.000014  -0.000001  -0.000058   0.000232   0.000001
    31  H    0.003769   0.000187   0.000000  -0.000312  -0.000194  -0.000002
    32  H    0.000036   0.000000   0.000000  -0.000051   0.000000   0.000001
    33  H    0.000007   0.000001   0.000000  -0.000033  -0.000009   0.000000
    34  H   -0.000002   0.000000   0.000000  -0.000005   0.000000   0.000000
    35  H   -0.000011   0.000000   0.000000  -0.000023   0.000001   0.000000
    36  H    0.000000   0.000000   0.000000   0.000002   0.000000   0.000000
    37  C    5.503075   0.329385  -0.053240   0.379254   0.394756  -0.049914
    38  C    0.329385   5.021470   0.642851  -0.039895  -0.044959   0.395154
    39  C   -0.053240   0.642851   5.120500   0.000662  -0.000029  -0.037532
    40  H    0.379254  -0.039895   0.000662   0.464300  -0.019266  -0.002983
    41  H    0.394756  -0.044959  -0.000029  -0.019266   0.435610   0.004842
    42  H   -0.049914   0.395154  -0.037532  -0.002983   0.004842   0.474365
    43  H    0.006255  -0.037627   0.390742  -0.000305   0.000046  -0.008688
    44  H   -0.009258  -0.040111   0.388013   0.000086   0.005401   0.006387
              43         44
     1  C   -0.000001  -0.000001
     2  C    0.000016  -0.000072
     3  C   -0.000146  -0.000156
     4  C    0.000007   0.000056
     5  C   -0.000005   0.000001
     6  H   -0.000001   0.000005
     7  H   -0.000001   0.000004
     8  H   -0.000005   0.000006
     9  H    0.000005   0.000006
    10  O    0.000000   0.000000
    11  O    0.000000   0.000000
    12  C    0.000000   0.000000
    13  C    0.000000   0.000000
    14  C    0.000000   0.000002
    15  O    0.000096   0.000476
    16  Si   0.000254  -0.000251
    17  C    0.000019   0.000012
    18  C    0.000000   0.000001
    19  C   -0.000005   0.000068
    20  H    0.000000   0.000000
    21  H    0.000000   0.000000
    22  H    0.000000   0.000000
    23  H    0.000000  -0.000002
    24  H    0.000000  -0.000001
    25  H   -0.000011   0.000184
    26  H    0.000000  -0.000001
    27  H    0.000088   0.000013
    28  H    0.000001  -0.000003
    29  H   -0.000001   0.000026
    30  H    0.000000   0.000000
    31  H    0.000000  -0.000006
    32  H    0.000000   0.000000
    33  H    0.000000   0.000000
    34  H    0.000000   0.000000
    35  H    0.000000   0.000000
    36  H    0.000000   0.000000
    37  C    0.006255  -0.009258
    38  C   -0.037627  -0.040111
    39  C    0.390742   0.388013
    40  H   -0.000305   0.000086
    41  H    0.000046   0.005401
    42  H   -0.008688   0.006387
    43  H    0.458555  -0.034654
    44  H   -0.034654   0.463643
 Mulliken charges:
               1
     1  C   -0.029981
     2  C   -0.294121
     3  C    0.206085
     4  C   -0.672186
     5  C    0.479024
     6  H    0.244708
     7  H    0.251228
     8  H    0.281613
     9  H    0.285527
    10  O   -0.328107
    11  O   -0.382431
    12  C   -0.437344
    13  C   -0.664530
    14  C   -0.683341
    15  O   -0.634101
    16  Si   1.439324
    17  C   -1.064649
    18  C   -1.071342
    19  C   -1.041654
    20  H    0.241195
    21  H    0.245946
    22  H    0.242765
    23  H    0.231598
    24  H    0.239735
    25  H    0.241861
    26  H    0.236417
    27  H    0.246226
    28  H    0.241332
    29  H    0.261797
    30  H    0.241252
    31  H    0.231843
    32  H    0.229884
    33  H    0.241145
    34  H    0.240768
    35  H    0.223194
    36  H    0.229601
    37  C   -0.497554
    38  C   -0.173490
    39  C   -0.454629
    40  H    0.252176
    41  H    0.259451
    42  H    0.218272
    43  H    0.225366
    44  H    0.220127
 Sum of Mulliken charges =   0.00000
 Mulliken charges with hydrogens summed into heavy atoms:
               1
     1  C    0.214727
     2  C   -0.042894
     3  C    0.206085
     4  C   -0.105046
     5  C    0.479024
    10  O   -0.328107
    11  O   -0.382431
    12  C    0.033685
    13  C    0.029033
    14  C    0.051551
    15  O   -0.634101
    16  Si   1.439324
    17  C   -0.340674
    18  C   -0.341437
    19  C   -0.328460
    37  C    0.014074
    38  C    0.044782
    39  C   -0.009136
 Electronic spatial extent (au):  <R**2>=           5580.6320
 Charge=              0.0000 electrons
 Dipole moment (field-independent basis, Debye):
    X=              1.8476    Y=             -3.5468    Z=             -2.9671  Tot=              4.9796
 Quadrupole moment (field-independent basis, Debye-Ang):
   XX=           -120.4563   YY=           -121.0498   ZZ=           -125.5061
   XY=              8.2538   XZ=             12.2908   YZ=             -6.9641
 Traceless Quadrupole moment (field-independent basis, Debye-Ang):
   XX=              1.8811   YY=              1.2876   ZZ=             -3.1687
   XY=              8.2538   XZ=             12.2908   YZ=             -6.9641
 Octapole moment (field-independent basis, Debye-Ang**2):
  XXX=              8.6193  YYY=             -6.9195  ZZZ=            -19.7383  XYY=             10.9151
  XXY=            -23.5633  XXZ=            -18.3200  XZZ=             13.7610  YZZ=            -20.4035
  YYZ=             -8.8689  XYZ=              9.3213
 Hexadecapole moment (field-independent basis, Debye-Ang**3):
 XXXX=          -4523.5566 YYYY=          -1820.5849 ZZZZ=          -1308.1412 XXXY=             36.4102
 XXXZ=             68.7557 YYYX=             46.2827 YYYZ=             33.3156 ZZZX=             22.1936
 ZZZY=            -38.2705 XXYY=          -1027.7285 XXZZ=           -999.8341 YYZZ=           -561.2671
 XXYZ=            -62.8452 YYXZ=             20.2209 ZZXY=             38.9980
 N-N= 1.621524492463D+03 E-N=-5.738222353525D+03  KE= 1.060533385328D+03
 1\1\GINC-CPU-E-609\SP\RmPW1PW91\6-311G(d)\C14H26O3Si1\KE291\06-Feb-201
 9\0\\# mPW1PW91/6-311g(d) geom=checkpoint nmr=giao scrf=(solvent=chlor
 oform)\\P_ng_2ginp009\\0,1\C,0,0.0860899696,0.1601432844,0.9548591176\
 C,0,-0.8440766299,1.2515818939,0.3965942265\C,0,-2.0565126847,1.513525
 1447,1.336596178\C,0,-1.4692657461,1.9139005574,2.69874714\C,0,-0.4742
 629746,0.9217966048,3.2665244199\H,0,-0.364016287,-0.82227134,0.762089
 9914\H,0,-0.2853562966,2.1974315831,0.3779624323\H,0,-0.92370041,2.859
 2849352,2.588298667\H,0,-2.2379510199,2.0751958403,3.455092451\O,0,0.2
 701994361,0.1996058669,2.4066125044\O,0,-0.2854698023,0.7896005628,4.4
 578660147\C,0,1.4952052385,0.1892242399,0.357445249\C,0,2.386661181,-0
 .9668479721,0.820431371\C,0,-1.2565702639,0.9205020026,-1.0463790534\O
 ,0,-2.8466252835,2.5510578257,0.7748583954\Si,0,-3.0669370142,4.203698
 2429,0.9813373131\C,0,-3.7976823802,4.6055820393,2.6736531599\C,0,-1.4
 623962553,5.1689348441,0.7277412958\C,0,-4.2955430727,4.6497265626,-0.
 371018059\H,0,-1.6716493334,6.2450442462,0.7495621046\H,0,-0.715862311
 ,4.9701284044,1.5039148642\H,0,-1.0083712746,4.9406786821,-0.242487471
 \H,0,-4.5405743499,5.7172900416,-0.3404168907\H,0,-3.8887671658,4.4276
 742525,-1.3630964388\H,0,-5.2284454009,4.0882013297,-0.2571677414\H,0,
 -4.1143438836,5.6547336696,2.7049611108\H,0,-4.676680789,3.9848514212,
 2.8750755814\H,0,-3.0837012681,4.4545398831,3.4894671443\H,0,-2.028798
 104,1.6168111327,-1.3789045197\H,0,-0.4086556989,1.0057884465,-1.73045
 25885\H,0,-1.6526549794,-0.0964139097,-1.1352654984\H,0,1.955844793,1.
 150924021,0.6161245946\H,0,1.4041875342,0.1658341233,-0.733582814\H,0,
 2.5135497353,-0.9574349878,1.9056898852\H,0,1.9558439848,-1.9343462792
 ,0.5392765411\H,0,3.3769370548,-0.8968440186,0.3605026837\C,0,-2.98034
 19069,0.2681673612,1.4550896111\C,0,-4.1346770682,0.4200054304,2.40896
 72797\C,0,-5.4160144081,0.4835669803,2.0437299407\H,0,-2.3740649349,-0
 .5924545021,1.7673933652\H,0,-3.3651874155,0.0463587122,0.4557951015\H
 ,0,-3.8915245098,0.4546709089,3.4706929466\H,0,-6.213709759,0.57525088
 17,2.775184146\H,0,-5.7133322456,0.4393710505,0.998614247\\Version=ES6
 4L-G09RevD.01\State=1-A\HF=-1064.3832966\RMSD=9.158e-09\Dipole=-0.2869
 717,0.6654832,-1.8201709\Quadrupole=2.1733016,4.8062293,-6.9795309,1.0
 130191,-8.542352,6.3174972\PG=C01 [X(C14H26O3Si1)]\\@


 HICKORY, DICKORY, DOCK
 TWO MICE RAN UP THE CLOCK
 THE CLOCK STRUCK ONE...
 THE OTHER ESCAPED WITH MINOR INJURIES.
 Job cpu time:       0 days  0 hours 18 minutes 52.6 seconds.
 File lengths (MBytes):  RWF=    244 Int=      0 D2E=      0 Chk=     19 Scr=      1
 Normal termination of Gaussian 09 at Wed Feb  6 11:43:47 2019.
