 Entering Gaussian System, Link 0=/usr/local/Cluster-Apps/gaussian/g09/g09
 Initial command:
 /usr/local/Cluster-Apps/gaussian/g09/l1.exe "/home/ke291/rds/hpc-work/06Feb0927IP1/Gau-377157.inp" -scrdir="/home/ke291/rds/hpc-work/06Feb0927IP1/"
 Entering Link 1 = /usr/local/Cluster-Apps/gaussian/g09/l1.exe PID=    377162.
  
 Copyright (c) 1988,1990,1992,1993,1995,1998,2003,2009,2013,
            Gaussian, Inc.  All Rights Reserved.
  
 This is part of the Gaussian(R) 09 program.  It is based on
 the Gaussian(R) 03 system (copyright 2003, Gaussian, Inc.),
 the Gaussian(R) 98 system (copyright 1998, Gaussian, Inc.),
 the Gaussian(R) 94 system (copyright 1995, Gaussian, Inc.),
 the Gaussian 92(TM) system (copyright 1992, Gaussian, Inc.),
 the Gaussian 90(TM) system (copyright 1990, Gaussian, Inc.),
 the Gaussian 88(TM) system (copyright 1988, Gaussian, Inc.),
 the Gaussian 86(TM) system (copyright 1986, Carnegie Mellon
 University), and the Gaussian 82(TM) system (copyright 1983,
 Carnegie Mellon University). Gaussian is a federally registered
 trademark of Gaussian, Inc.
  
 This software contains proprietary and confidential information,
 including trade secrets, belonging to Gaussian, Inc.
  
 This software is provided under written license and may be
 used, copied, transmitted, or stored only in accord with that
 written license.
  
 The following legend is applicable only to US Government
 contracts under FAR:
  
                    RESTRICTED RIGHTS LEGEND
  
 Use, reproduction and disclosure by the US Government is
 subject to restrictions as set forth in subparagraphs (a)
 and (c) of the Commercial Computer Software - Restricted
 Rights clause in FAR 52.227-19.
  
 Gaussian, Inc.
 340 Quinnipiac St., Bldg. 40, Wallingford CT 06492
  
  
 ---------------------------------------------------------------
 Warning -- This program may not be used in any manner that
 competes with the business of Gaussian, Inc. or will provide
 assistance to any competitor of Gaussian, Inc.  The licensee
 of this program is prohibited from giving any competitor of
 Gaussian, Inc. access to this program.  By using this program,
 the user acknowledges that Gaussian, Inc. is engaged in the
 business of creating and licensing software in the field of
 computational chemistry and represents and warrants to the
 licensee that it is not a competitor of Gaussian, Inc. and that
 it will not use this program in any manner prohibited above.
 ---------------------------------------------------------------
  

 Cite this work as:
 Gaussian 09, Revision D.01,
 M. J. Frisch, G. W. Trucks, H. B. Schlegel, G. E. Scuseria, 
 M. A. Robb, J. R. Cheeseman, G. Scalmani, V. Barone, B. Mennucci, 
 G. A. Petersson, H. Nakatsuji, M. Caricato, X. Li, H. P. Hratchian, 
 A. F. Izmaylov, J. Bloino, G. Zheng, J. L. Sonnenberg, M. Hada, 
 M. Ehara, K. Toyota, R. Fukuda, J. Hasegawa, M. Ishida, T. Nakajima, 
 Y. Honda, O. Kitao, H. Nakai, T. Vreven, J. A. Montgomery, Jr., 
 J. E. Peralta, F. Ogliaro, M. Bearpark, J. J. Heyd, E. Brothers, 
 K. N. Kudin, V. N. Staroverov, T. Keith, R. Kobayashi, J. Normand, 
 K. Raghavachari, A. Rendell, J. C. Burant, S. S. Iyengar, J. Tomasi, 
 M. Cossi, N. Rega, J. M. Millam, M. Klene, J. E. Knox, J. B. Cross, 
 V. Bakken, C. Adamo, J. Jaramillo, R. Gomperts, R. E. Stratmann, 
 O. Yazyev, A. J. Austin, R. Cammi, C. Pomelli, J. W. Ochterski, 
 R. L. Martin, K. Morokuma, V. G. Zakrzewski, G. A. Voth, 
 P. Salvador, J. J. Dannenberg, S. Dapprich, A. D. Daniels, 
 O. Farkas, J. B. Foresman, J. V. Ortiz, J. Cioslowski, 
 and D. J. Fox, Gaussian, Inc., Wallingford CT, 2013.
 
 ******************************************
 Gaussian 09:  ES64L-G09RevD.01 24-Apr-2013
                 6-Feb-2019 
 ******************************************
 %nprocshared=2
 Will use up to    2 processors via shared memory.
 %mem=6000MB
 %chk=/home/ke291/rds/hpc-work/06Feb0927IP1/P_ng_correct1ginp016.chk
 ----------------------------------------------------------------------
 # mPW1PW91/6-311g(d) geom=checkpoint nmr=giao scrf=(solvent=chloroform
 )
 ----------------------------------------------------------------------
 1/29=2,38=1/1;
 2/12=2,40=1/2;
 3/5=4,6=6,7=1,11=2,14=-4,16=1,25=1,30=1,70=2201,72=7,74=-7/1,2,8,3;
 4//1;
 5/5=2,38=5,53=7/2;
 8/6=1,10=90,11=11/1;
 10/13=100,45=16/2;
 6/7=2,8=2,9=2,10=2,28=1/1;
 99/9=1/99;
 --------------------
 P_ng_correct1ginp016
 --------------------
 Structure from the checkpoint file:  "/home/ke291/rds/hpc-work/06Feb0927IP1/P_ng_correct1ginp016.chk"
 Charge =  0 Multiplicity = 1
 Redundant internal coordinates found in file.
 C,0,1.0346124381,-0.1532422437,0.8948387471
 C,0,-0.4976844645,-0.2414444874,0.8771420611
 C,0,-1.1170421018,1.0221550892,1.5411447841
 C,0,-0.6622668668,2.2136105824,0.6800699695
 C,0,0.8341150959,2.2884150325,0.4343190438
 H,0,1.3782079354,-0.264490563,1.9304870837
 H,0,-0.828112572,-0.2021098211,-0.1684401392
 H,0,-1.1232891192,2.1443753795,-0.3125207008
 H,0,-0.9711132601,3.1686274457,1.1109435306
 O,0,1.5502496763,1.1458789106,0.454996264
 O,0,1.3988048907,3.3277125914,0.1640344958
 C,0,1.7729003631,-1.1900265189,0.0397294562
 C,0,1.413466351,-1.1876964092,-1.4490356171
 C,0,-0.9730408525,-1.5811703519,1.4576191778
 O,0,-2.5360736039,0.912456221,1.5689702323
 Si,0,-3.8058429354,1.2060424077,0.5022415656
 C,0,-4.1070425147,3.0578628235,0.3005796268
 C,0,-3.5240866427,0.4123464535,-1.1886306089
 C,0,-5.2834972786,0.4107124371,1.3507785223
 H,0,-2.688466782,0.8591842766,-1.7378693298
 H,0,-3.333425709,-0.662231934,-1.0993881372
 H,0,-4.4211096925,0.5389868756,-1.8063254297
 H,0,-6.1978212674,0.5640199716,0.7667470078
 H,0,-5.1406288658,-0.6679690857,1.4728759571
 H,0,-5.4450327575,0.8422559068,2.34406115
 H,0,-4.2324507942,3.5429156434,1.2745350373
 H,0,-3.2909141795,3.5641291854,-0.2240947653
 H,0,-5.0242495654,3.2282864346,-0.2752744887
 H,0,-0.5276378336,-1.7853446113,2.4340349857
 H,0,-2.0580574606,-1.5709248356,1.5794180739
 H,0,-0.7181658206,-2.4049872706,0.7848821018
 H,0,1.5950098502,-2.1795363422,0.4743642437
 H,0,2.8441533528,-0.9922874247,0.1571626682
 H,0,1.5475102836,-0.1922216426,-1.8828030177
 H,0,2.0604059194,-1.8798397374,-1.9959951852
 H,0,0.3789503045,-1.4990733377,-1.625228181
 C,0,-0.6806340238,1.2926154827,3.0079841454
 C,0,-1.1063835064,0.2857167453,4.0408320799
 C,0,-0.315944243,-0.1974739276,5.0010623134
 H,0,-1.1365515138,2.2586764971,3.2663330206
 H,0,0.4038304859,1.4423439316,3.0584002967
 H,0,-2.1507486944,-0.0169600347,3.999984062
 H,0,-0.688299631,-0.8912553632,5.749197991
 H,0,0.731162606,0.0870936179,5.0797549055
 Recover connectivity data from disk.
                          Input orientation:                          
 ---------------------------------------------------------------------
 Center     Atomic      Atomic             Coordinates (Angstroms)
 Number     Number       Type             X           Y           Z
 ---------------------------------------------------------------------
      1          6           0        1.034612   -0.153242    0.894839
      2          6           0       -0.497684   -0.241444    0.877142
      3          6           0       -1.117042    1.022155    1.541145
      4          6           0       -0.662267    2.213611    0.680070
      5          6           0        0.834115    2.288415    0.434319
      6          1           0        1.378208   -0.264491    1.930487
      7          1           0       -0.828113   -0.202110   -0.168440
      8          1           0       -1.123289    2.144375   -0.312521
      9          1           0       -0.971113    3.168627    1.110944
     10          8           0        1.550250    1.145879    0.454996
     11          8           0        1.398805    3.327713    0.164034
     12          6           0        1.772900   -1.190027    0.039729
     13          6           0        1.413466   -1.187696   -1.449036
     14          6           0       -0.973041   -1.581170    1.457619
     15          8           0       -2.536074    0.912456    1.568970
     16         14           0       -3.805843    1.206042    0.502242
     17          6           0       -4.107043    3.057863    0.300580
     18          6           0       -3.524087    0.412346   -1.188631
     19          6           0       -5.283497    0.410712    1.350779
     20          1           0       -2.688467    0.859184   -1.737869
     21          1           0       -3.333426   -0.662232   -1.099388
     22          1           0       -4.421110    0.538987   -1.806325
     23          1           0       -6.197821    0.564020    0.766747
     24          1           0       -5.140629   -0.667969    1.472876
     25          1           0       -5.445033    0.842256    2.344061
     26          1           0       -4.232451    3.542916    1.274535
     27          1           0       -3.290914    3.564129   -0.224095
     28          1           0       -5.024250    3.228286   -0.275274
     29          1           0       -0.527638   -1.785345    2.434035
     30          1           0       -2.058057   -1.570925    1.579418
     31          1           0       -0.718166   -2.404987    0.784882
     32          1           0        1.595010   -2.179536    0.474364
     33          1           0        2.844153   -0.992287    0.157163
     34          1           0        1.547510   -0.192222   -1.882803
     35          1           0        2.060406   -1.879840   -1.995995
     36          1           0        0.378950   -1.499073   -1.625228
     37          6           0       -0.680634    1.292615    3.007984
     38          6           0       -1.106384    0.285717    4.040832
     39          6           0       -0.315944   -0.197474    5.001062
     40          1           0       -1.136552    2.258676    3.266333
     41          1           0        0.403830    1.442344    3.058400
     42          1           0       -2.150749   -0.016960    3.999984
     43          1           0       -0.688300   -0.891255    5.749198
     44          1           0        0.731163    0.087094    5.079755
 ---------------------------------------------------------------------
                    Distance matrix (angstroms):
                    1          2          3          4          5
     1  C    0.000000
     2  C    1.534935   0.000000
     3  C    2.535525   1.556017   0.000000
     4  C    2.920191   2.468445   1.538778   0.000000
     5  C    2.492783   2.893090   2.575945   1.518271   0.000000
     6  H    1.096814   2.151520   2.834311   3.445006   3.008635
     7  H    2.145389   1.097257   2.122495   2.565771   3.054347
     8  H    3.375397   2.738396   2.166909   1.096618   2.099988
     9  H    3.886445   3.450708   2.194017   1.092289   2.119303
    10  O    1.465285   2.509364   2.882615   2.466970   1.348579
    11  O    3.575438   4.104154   3.679880   2.399069   1.213288
    12  C    1.533363   2.599351   3.936974   4.233771   3.624441
    13  C    2.589860   3.155787   4.497566   4.517815   3.995751
    14  C    2.527127   1.535507   2.608643   3.886068   4.391657
    15  O    3.786815   2.442364   1.423537   2.448326   3.812987
    16  Si   5.042995   3.630383   2.888388   3.305887   4.765014
    17  C    6.091055   4.923954   3.824031   3.566967   5.002497
    18  C    5.044053   3.722092   3.690177   3.863497   5.014730
    19  C    6.359594   4.853210   4.215383   5.005603   6.464584
    20  H    4.670918   3.584577   3.639762   3.433131   4.378320
    21  H    4.828640   3.482120   3.836917   4.309528   5.331695
    22  H    6.127020   4.816984   4.728200   4.807850   5.974812
    23  H    7.269042   5.757822   5.159835   5.776766   7.247908
    24  H    6.223558   4.700399   4.364680   5.384029   6.746582
    25  H    6.713945   5.272809   4.405513   5.246363   6.720580
    26  H    6.445751   5.331771   4.016352   3.855730   5.286759
    27  H    5.812146   4.847396   3.781987   3.090502   4.367702
    28  H    7.036598   5.818667   4.840730   4.579208   5.975560
    29  H    2.733772   2.192816   3.004448   4.368771   4.738011
    30  H    3.470314   2.166904   2.758811   4.132767   4.956856
    31  H    2.855640   2.176704   3.532186   4.620125   4.955855
    32  H    2.143994   2.880590   4.329443   4.943415   4.532456
    33  H    2.126641   3.500002   4.654509   4.779770   3.857470
    34  H    2.824868   3.435483   4.505327   4.152043   3.468652
    35  H    3.519987   4.181278   5.570378   5.597375   4.978410
    36  H    2.931193   2.934617   4.315148   4.492500   4.335202
    37  C    3.081876   2.631976   1.554097   2.503548   3.147989
    38  C    3.830643   3.264559   2.605934   3.899838   4.558867
    39  C    4.322850   4.128157   3.755034   4.960266   5.325169
    40  H    4.019364   3.516673   2.122649   2.629778   3.450321
    41  H    2.761300   2.899269   2.188990   2.718064   2.790481
    42  H    4.450508   3.540502   2.862551   4.267652   5.190196
    43  H    5.203642   4.918894   4.642485   5.944487   6.377773
    44  H    4.202781   4.390895   4.100239   5.081432   5.141643
                    6          7          8          9         10
     6  H    0.000000
     7  H    3.045856   0.000000
     8  H    4.134151   2.369363   0.000000
     9  H    4.239960   3.608205   1.760256   0.000000
    10  O    2.048369   2.803989   2.955315   3.298340   0.000000
    11  O    4.003087   4.186806   2.826367   2.557041   2.206353
    12  C    2.141813   2.790086   4.430602   5.260701   2.382955
    13  C    3.503530   2.763328   4.339297   5.587242   3.014900
    14  C    2.735986   2.137026   4.127428   4.762433   3.848252
    15  O    4.103352   2.679176   2.655860   2.783738   4.241870
    16  Si   5.574651   3.361485   2.956417   3.501136   5.356639
    17  C    6.616842   4.647449   3.180116   3.240835   5.973649
    18  C    5.849743   2.947307   3.087284   4.404861   5.384094
    19  C    6.720884   4.747002   4.804111   5.124478   6.931305
    20  H    5.590825   2.655253   2.476513   4.049514   4.780959
    21  H    5.615856   2.712005   3.657992   5.014137   5.434672
    22  H    6.945605   4.017651   3.960347   5.227614   6.413971
    23  H    7.709536   5.504117   5.423395   5.849866   7.776140
    24  H    6.547323   4.637752   5.218806   5.677616   7.006710
    25  H    6.924778   5.359040   5.237405   5.191198   7.252222
    26  H    6.812203   5.262786   3.760525   3.286819   6.313244
    27  H    6.411026   4.500338   2.592705   2.705591   5.453986
    28  H    7.619471   5.420941   4.048919   4.284049   6.934966
    29  H    2.489740   3.061012   4.831259   5.146754   4.101985
    30  H    3.692958   2.537997   4.272784   4.885107   4.654592
    31  H    3.207635   2.402828   4.697352   5.588871   4.226486
    32  H    2.415512   3.192951   5.167645   5.965993   3.325773
    33  H    2.413165   3.770402   5.079356   5.725310   2.516872
    34  H    3.817731   2.929628   3.880547   5.157644   2.693664
    35  H    4.300234   3.807660   5.400399   6.658093   3.927161
    36  H    3.894332   2.293763   4.153871   5.576445   3.563011
    37  C    2.797215   3.513634   3.456471   2.683759   3.393541
    38  C    3.305976   4.246573   4.733559   4.112629   4.544865
    39  C    3.507574   5.194814   5.862613   5.185837   5.094506
    40  H    3.804586   4.236540   3.580703   2.345439   4.044853
    41  H    2.266028   3.825495   3.766703   2.943317   2.860049
    42  H    4.098490   4.377146   4.932012   4.459379   5.255142
    43  H    4.387008   5.959271   6.793284   6.170578   6.098327
    44  H    3.234218   5.482566   6.062016   5.305192   4.814595
                   11         12         13         14         15
    11  O    0.000000
    12  C    4.534905   0.000000
    13  C    4.794907   1.531542   0.000000
    14  C    5.603226   3.115060   3.781386   0.000000
    15  O    4.826031   5.032521   5.396097   2.945105   0.000000
    16  Si   5.630651   6.089125   6.064541   4.087306   1.684167
    17  C    5.514147   7.258535   7.180665   5.716759   2.946104
    18  C    5.879109   5.668733   5.196862   4.181457   2.971640
    19  C    7.387179   7.353500   7.432576   4.749636   2.801373
    20  H    5.139714   5.221391   4.593365   4.371403   3.310778
    21  H    6.317428   5.258395   4.788669   3.599188   3.199305
    22  H    6.747645   6.690528   6.095192   5.199767   3.884001
    23  H    8.106170   8.193756   8.118491   5.690121   3.764753
    24  H    7.774492   7.079784   7.194710   4.266493   3.048063
    25  H    7.600535   7.844659   8.096129   5.163089   3.011268
    26  H    5.743741   7.745304   7.853210   6.075651   3.143836
    27  H    4.711688   6.950814   6.797906   5.888532   3.288805
    28  H    6.438828   8.113074   7.894479   6.522736   3.867212
    29  H    5.916708   3.373363   4.382158   1.092455   3.472791
    30  H    6.160345   4.146319   4.622756   1.091880   2.528990
    31  H    6.142545   2.869981   3.319042   1.093714   3.863291
    32  H    5.519474   1.095300   2.171675   2.814199   5.274887
    33  H    4.555379   1.095662   2.159843   4.075407   5.879464
    34  H    4.074505   2.177739   1.094117   4.409170   5.459918
    35  H    5.676447   2.168566   1.093964   4.606349   6.452404
    36  H    5.247802   2.193329   1.094634   3.367279   4.951337
    37  C    4.068628   4.581908   5.513822   3.278380   2.378642
    38  C    5.528044   5.145572   6.217655   3.189990   2.923511
    39  C    6.226086   5.473870   6.750938   3.860360   4.235584
    40  H    4.146701   5.547020   6.372973   4.247659   2.579149
    41  H    3.594710   4.232741   5.315398   3.687806   3.337996
    42  H    6.204891   5.696905   6.615593   3.208951   2.630992
    43  H    7.304091   6.224532   7.504656   4.355997   4.913446
    44  H    5.925510   5.302651   6.686982   4.336736   4.866381
                   16         17         18         19         20
    16  Si   0.000000
    17  C    1.886963   0.000000
    18  C    1.889018   3.091333   0.000000
    19  C    1.880433   3.081293   3.089357   0.000000
    20  H    2.527239   3.316899   1.095257   4.058948   0.000000
    21  H    2.505762   4.049382   1.095004   3.310182   1.771535
    22  H    2.480524   3.298852   1.096465   3.275282   1.763311
    23  H    2.490726   3.287540   3.315926   1.095712   4.321550
    24  H    2.497139   4.040347   3.296044   1.094931   4.319049
    25  H    2.492305   3.297719   4.044103   1.094958   4.925556
    26  H    2.497881   1.095259   4.045915   3.304725   4.319824
    27  H    2.520573   1.094374   3.304305   4.049031   3.157718
    28  H    2.485662   1.096322   3.318769   3.263431   3.634241
    29  H    4.840129   6.389087   5.189630   5.349235   5.391428
    30  H    3.453492   5.221058   3.707385   3.792443   4.160197
    31  H    4.759535   6.446841   4.439067   5.393575   4.571780
    32  H    6.374334   7.744285   5.973990   7.402118   5.698769
    33  H    7.012431   8.046329   6.658726   8.333777   6.134246
    34  H    6.025112   6.877803   5.154461   7.581705   4.366917
    35  H    7.083554   8.227550   6.090362   8.389305   5.488230
    36  H    5.418143   6.678213   4.367819   6.675868   3.870803
    37  C    4.006641   4.710245   5.145063   4.970959   5.171304
    38  C    4.544855   5.538794   5.762691   4.969939   6.018741
    39  C    5.864183   6.860334   6.998311   6.194437   7.222090
    40  H    3.984138   4.272963   5.381074   4.927624   5.423012
    41  H    4.930632   5.528422   5.875942   6.027100   5.736426
    42  H    4.058235   5.192997   5.384430   4.124962   5.829214
    43  H    6.453548   7.547899   7.607531   6.492846   7.944865
    44  H    6.541414   7.421200   7.583244   7.084217   7.666159
                   21         22         23         24         25
    21  H    0.000000
    22  H    1.767977   0.000000
    23  H    3.631930   3.126985   0.000000
    24  H    3.143654   3.567578   1.770331   0.000000
    25  H    4.310419   4.285569   1.769753   1.769860   0.000000
    26  H    4.911927   4.307073   3.604768   4.312270   3.147666
    27  H    4.316257   3.596148   4.293312   4.920550   4.317898
    28  H    4.321363   3.152813   3.092151   4.272046   3.568069
    29  H    4.649614   6.208244   6.360058   4.842731   5.576123
    30  H    3.102949   4.636702   4.728220   3.213865   4.228442
    31  H    3.664322   5.393805   6.232332   4.800911   5.942971
    32  H    5.391511   6.984670   8.266850   6.975005   7.886013
    33  H    6.312713   7.680113   9.195161   8.098952   8.766908
    34  H    4.965701   6.013729   8.220838   7.497875   8.236030
    35  H    5.601776   6.920747   9.044529   8.084343   9.087216
    36  H    3.841685   5.217956   7.296014   6.383944   7.426699
    37  C    5.265856   6.143020   5.999446   5.108033   4.831471
    38  C    5.681566   6.726129   6.059688   4.876377   4.691764
    39  C    6.821781   7.983438   7.287371   5.995586   5.869263
    40  H    5.693635   6.283114   5.893746   5.273934   4.628158
    41  H    5.973569   6.910981   7.043077   6.140712   5.922802
    42  H    5.274343   6.259141   5.212500   3.968560   3.785847
    43  H    7.345221   8.547830   7.569509   6.177380   6.101355
    44  H    7.433988   8.612097   8.175593   6.932361   6.797035
                   26         27         28         29         30
    26  H    0.000000
    27  H    1.769981   0.000000
    28  H    1.768572   1.766313   0.000000
    29  H    6.592453   6.581658   7.259227   0.000000
    30  H    5.565277   5.580446   5.938906   1.765936   0.000000
    31  H    6.925858   6.577797   7.169384   1.771994   1.766991
    32  H    8.206463   7.572965   8.580274   2.915704   3.864771
    33  H    8.479087   7.651493   8.939352   4.145125   5.137052
    34  H    7.571525   6.346009   7.581032   5.047709   5.185356
    35  H    8.927636   7.836648   8.902032   5.131478   5.462669
    36  H    7.422621   6.408362   7.305127   4.169109   4.026652
    37  C    4.547977   4.734942   5.778720   3.134751   3.483957
    38  C    5.294718   5.806011   6.529714   2.684407   3.226664
    39  C    6.573929   7.092416   7.857716   3.025851   4.077864
    40  H    3.898862   4.304483   5.347647   4.173440   4.284939
    41  H    5.393485   5.378465   6.615666   3.416934   4.162700
    42  H    4.943103   5.653938   6.088224   2.865985   2.877940
    43  H    7.228104   7.893306   8.489132   3.437370   4.441312
    44  H    7.145618   7.509840   8.465707   3.477131   4.772958
                   31         32         33         34         35
    31  H    0.000000
    32  H    2.344788   0.000000
    33  H    3.883281   1.752295   0.000000
    34  H    4.140793   3.083490   2.546144   0.000000
    35  H    3.966046   2.531618   2.457254   1.767464   0.000000
    36  H    2.798745   2.519944   3.083987   1.771931   1.763447
    37  C    4.314610   4.863499   5.076622   5.575766   6.528214
    38  C    4.241676   5.108296   5.685325   6.508535   7.152725
    39  C    4.776094   5.298237   5.837920   7.131626   7.578668
    40  H    5.299283   5.912212   6.006806   6.302753   7.418892
    41  H    4.607572   4.605884   4.505528   5.328724   6.271209
    42  H    4.253451   5.580093   6.377114   6.950901   7.560153
    43  H    5.190059   5.890419   6.615081   7.983416   8.277723
    44  H    5.172712   5.205138   5.464587   7.015815   7.463374
                   36         37         38         39         40
    36  H    0.000000
    37  C    5.512069   0.000000
    38  C    6.123392   1.503956   0.000000
    39  C    6.788576   2.515100   1.334282   0.000000
    40  H    6.351756   1.099035   2.119747   3.116947   0.000000
    41  H    5.530726   1.095912   2.140959   2.642161   1.755680
    42  H    6.343426   2.204606   1.088109   2.097916   2.597183
    43  H    7.476003   3.504797   2.116264   1.086135   4.035792
    44  H    6.899042   2.781850   2.120233   1.087936   3.390078
                   41         42         43         44
    41  H    0.000000
    42  H    3.089016   0.000000
    43  H    3.725430   2.441905   0.000000
    44  H    2.455550   3.079309   1.849377   0.000000
 Stoichiometry    C14H26O3Si
 Framework group  C1[X(C14H26O3Si)]
 Deg. of freedom   126
 Full point group                 C1      NOp   1
 Largest Abelian subgroup         C1      NOp   1
 Largest concise Abelian subgroup C1      NOp   1
                         Standard orientation:                         
 ---------------------------------------------------------------------
 Center     Atomic      Atomic             Coordinates (Angstroms)
 Number     Number       Type             X           Y           Z
 ---------------------------------------------------------------------
      1          6           0       -2.306414    0.027096   -0.403378
      2          6           0       -0.826398    0.062513   -0.808749
      3          6           0        0.057789    0.438869    0.415079
      4          6           0       -0.163332   -0.677351    1.450933
      5          6           0       -1.617868   -0.965644    1.777066
      6          1           0       -2.638420    1.053661   -0.206053
      7          1           0       -0.522389   -0.957861   -1.074056
      8          1           0        0.247360   -1.618916    1.067059
      9          1           0        0.347309   -0.465462    2.392976
     10          8           0       -2.553820   -0.704240    0.842012
     11          8           0       -1.962505   -1.474489    2.823188
     12          6           0       -3.265052   -0.588932   -1.429403
     13          6           0       -2.951890   -2.032128   -1.835276
     14          6           0       -0.623108    0.939113   -2.052947
     15          8           0        1.423770    0.521034    0.022901
     16         14           0        2.698504   -0.556909   -0.199603
     17          6           0        3.370438   -1.162830    1.456293
     18          6           0        2.214790   -2.031960   -1.276002
     19          6           0        4.001594    0.480055   -1.072924
     20          1           0        1.475471   -2.685309   -0.800470
     21          1           0        1.808622   -1.707757   -2.239824
     22          1           0        3.102183   -2.642942   -1.479645
     23          1           0        4.912297   -0.103750   -1.247212
     24          1           0        3.642181    0.838212   -2.043191
     25          1           0        4.274685    1.354265   -0.472831
     26          1           0        3.618744   -0.320241    2.110495
     27          1           0        2.663103   -1.805178    1.989886
     28          1           0        4.287711   -1.742451    1.299540
     29          1           0       -1.075435    1.926661   -1.936300
     30          1           0        0.443417    1.078729   -2.240652
     31          1           0       -1.060169    0.463286   -2.935430
     32          1           0       -3.284156    0.060552   -2.311156
     33          1           0       -4.268897   -0.541902   -0.992873
     34          1           0       -2.888647   -2.681167   -0.956731
     35          1           0       -3.741931   -2.423399   -2.482966
     36          1           0       -2.008990   -2.111666   -2.385581
     37          6           0       -0.274871    1.797787    1.091761
     38          6           0       -0.039522    3.039278    0.276167
     39          6           0       -0.887391    4.066328    0.194954
     40          1           0        0.377394    1.842272    1.975192
     41          1           0       -1.303307    1.790027    1.470289
     42          1           0        0.918343    3.089851   -0.237562
     43          1           0       -0.647007    4.958978   -0.375204
     44          1           0       -1.850691    4.056632    0.700486
 ---------------------------------------------------------------------
 Rotational constants (GHZ):      0.4407231      0.2803457      0.2536870
 Standard basis: 6-311G(d) (5D, 7F)
 There are   428 symmetry adapted cartesian basis functions of A   symmetry.
 There are   410 symmetry adapted basis functions of A   symmetry.
   410 basis functions,   720 primitive gaussians,   428 cartesian basis functions
    74 alpha electrons       74 beta electrons
       nuclear repulsion energy      1632.1607602110 Hartrees.
 NAtoms=   44 NActive=   44 NUniq=   44 SFac= 1.00D+00 NAtFMM=   60 NAOKFM=F Big=F
 Integral buffers will be    131072 words long.
 Raffenetti 2 integral format.
 Two-electron integral symmetry is turned on.
 ------------------------------------------------------------------------------
 Polarizable Continuum Model (PCM)
 =================================
 Model                : PCM (using non-symmetric T matrix).
 Atomic radii         : UFF (Universal Force Field).
 Polarization charges : Total charges.
 Charge compensation  : None.
 Solution method      : On-the-fly selection.
 Cavity type          : Scaled VdW (van der Waals Surface) (Alpha=1.100).
 Cavity algorithm     : GePol (No added spheres)
                        Default sphere list used, NSphG=   44.
                        Lebedev-Laikov grids with approx.  5.0 points / Ang**2.
                        Smoothing algorithm: Karplus/York (Gamma=1.0000).
                        Polarization charges: spherical gaussians, with
                                              point-specific exponents (IZeta= 3).
                        Self-potential: point-specific (ISelfS= 7).
                        Self-field    : sphere-specific E.n sum rule (ISelfD= 2).
 Solvent              : Chloroform, Eps=   4.711300 Eps(inf)=   2.090627
 ------------------------------------------------------------------------------
 One-electron integrals computed using PRISM.
 NBasis=   410 RedAO= T EigKep=  1.19D-03  NBF=   410
 NBsUse=   410 1.00D-06 EigRej= -1.00D+00 NBFU=   410
 ExpMin= 6.54D-02 ExpMax= 6.94D+04 ExpMxC= 2.33D+03 IAcc=2 IRadAn=         4 AccDes= 0.00D+00
 Harris functional with IExCor=  908 and IRadAn=       4 diagonalized for initial guess.
 HarFok:  IExCor=  908 AccDes= 0.00D+00 IRadAn=         4 IDoV= 1 UseB2=F ITyADJ=14
 ICtDFT=  3500011 ScaDFX=  1.000000  1.000000  1.000000  1.000000
 FoFCou: FMM=F IPFlag=           0 FMFlag=      100000 FMFlg1=           0
         NFxFlg=           0 DoJE=T BraDBF=F KetDBF=T FulRan=T
         wScrn=  0.000000 ICntrl=     500 IOpCl=  0 I1Cent=   200000004 NGrid=           0
         NMat0=    1 NMatS0=      1 NMatT0=    0 NMatD0=    1 NMtDS0=    0 NMtDT0=    0
 Petite list used in FoFCou.
 Requested convergence on RMS density matrix=1.00D-08 within 128 cycles.
 Requested convergence on MAX density matrix=1.00D-06.
 Requested convergence on             energy=1.00D-06.
 No special actions if energy rises.
 Inv3:  Mode=1 IEnd=    24745152.
 Iteration    1 A*A^-1 deviation from unit magnitude is 7.55D-15 for   2870.
 Iteration    1 A*A^-1 deviation from orthogonality  is 4.76D-15 for   2870   2600.
 Iteration    1 A^-1*A deviation from unit magnitude is 7.55D-15 for   2870.
 Iteration    1 A^-1*A deviation from orthogonality  is 1.35D-11 for   2191   2172.
 Error on total polarization charges =  0.01109
 SCF Done:  E(RmPW1PW91) =  -1064.38212104     A.U. after   12 cycles
            NFock= 12  Conv=0.93D-08     -V/T= 2.0036
 DoSCS=F DFT=T ScalE2(SS,OS)=  1.000000  1.000000
 Range of M.O.s used for correlation:     1   410
 NBasis=   410 NAE=    74 NBE=    74 NFC=     0 NFV=     0
 NROrb=    410 NOA=    74 NOB=    74 NVA=   336 NVB=   336
 NEqPCM:  Using equilibrium solvation (IEInf=0, Eps=   4.7113, EpsInf=   2.0906)
          Differentiating once with respect to magnetic field using GIAOs.
          Electric field/nuclear overlap derivatives assumed to be zero.
 FoFJK:  IHMeth= 1 ICntrl=    6127 DoSepK=F KAlg= 0 I1Cent=   0 FoldK=F
 IRaf=         1 NMat=   1 IRICut=       1 DoRegI=T DoRafI=F ISym2E= 0.
          There are     3 degrees of freedom in the 1st order CPHF.  IDoFFX=0 NUNeed=     3.
      3 vectors produced by pass  0 Test12= 8.29D-13 3.33D-08 XBig12= 3.32D+01 1.02D+00.
 AX will form     3 AO Fock derivatives at one time.
      3 vectors produced by pass  1 Test12= 8.29D-13 3.33D-08 XBig12= 8.21D-02 9.92D-02.
      3 vectors produced by pass  2 Test12= 8.29D-13 3.33D-08 XBig12= 6.44D-04 8.93D-03.
      3 vectors produced by pass  3 Test12= 8.29D-13 3.33D-08 XBig12= 2.81D-06 5.53D-04.
      3 vectors produced by pass  4 Test12= 8.29D-13 3.33D-08 XBig12= 6.85D-09 3.47D-05.
      3 vectors produced by pass  5 Test12= 8.29D-13 3.33D-08 XBig12= 2.85D-11 1.45D-06.
      2 vectors produced by pass  6 Test12= 8.29D-13 3.33D-08 XBig12= 9.38D-14 7.51D-08.
 InvSVY:  IOpt=1 It=  1 EMax= 8.88D-16
 Solved reduced A of dimension    20 with     3 vectors.
 Calculating GIAO nuclear magnetic shielding tensors.
 SCF GIAO Magnetic shielding tensor (ppm):
      1  C    Isotropic =   102.2897   Anisotropy =    59.6729
   XX=    91.4280   YX=    13.4999   ZX=    -9.7862
   XY=     9.5863   YY=    94.4294   ZY=   -29.9668
   XZ=    -3.0284   YZ=   -27.4926   ZZ=   121.0117
   Eigenvalues:    73.5737    91.2237   142.0716
      2  C    Isotropic =   143.6121   Anisotropy =    17.7725
   XX=   144.7895   YX=     2.3920   ZX=     9.1835
   XY=     4.1582   YY=   140.7047   ZY=    -3.8001
   XZ=    10.4187   YZ=     5.6190   ZZ=   145.3420
   Eigenvalues:   134.7309   140.6449   155.4604
      3  C    Isotropic =   108.0319   Anisotropy =    55.5850
   XX=   142.1263   YX=    -1.0941   ZX=   -13.6079
   XY=    -4.7276   YY=    86.9281   ZY=     5.3207
   XZ=    -9.4757   YZ=     5.5089   ZZ=    95.0414
   Eigenvalues:    84.0826    94.9246   145.0886
      4  C    Isotropic =   137.4860   Anisotropy =    31.4623
   XX=   137.2328   YX=    13.1189   ZX=    -8.5328
   XY=     6.2646   YY=   136.5848   ZY=    -9.7302
   XZ=    -5.1953   YZ=   -19.0542   ZZ=   138.6402
   Eigenvalues:   122.6025   131.3946   158.4608
      5  C    Isotropic =    12.7786   Anisotropy =    88.4593
   XX=   -55.9508   YX=     2.0408   ZX=   -43.7197
   XY=     7.4914   YY=    66.5142   ZY=    14.0013
   XZ=   -55.9426   YZ=    12.0009   ZZ=    27.7725
   Eigenvalues:   -79.8313    46.4157    71.7515
      6  H    Isotropic =    27.7264   Anisotropy =     2.9621
   XX=    27.7712   YX=    -0.5178   ZX=     0.6563
   XY=    -0.6039   YY=    29.4373   ZY=     1.0941
   XZ=     0.9373   YZ=     0.5403   ZZ=    25.9707
   Eigenvalues:    25.4358    28.0422    29.7011
      7  H    Isotropic =    30.0262   Anisotropy =     3.1658
   XX=    31.4889   YX=    -0.5297   ZX=     1.5923
   XY=    -1.0344   YY=    31.0890   ZY=     1.5929
   XZ=     1.7756   YZ=     2.1451   ZZ=    27.5007
   Eigenvalues:    26.0687    31.8732    32.1367
      8  H    Isotropic =    29.6283   Anisotropy =     4.2133
   XX=    31.1151   YX=    -1.2161   ZX=    -1.3107
   XY=    -2.2096   YY=    30.1684   ZY=    -0.8493
   XZ=    -1.4611   YZ=    -1.9234   ZZ=    27.6014
   Eigenvalues:    26.1831    30.2647    32.4372
      9  H    Isotropic =    29.5881   Anisotropy =     4.8848
   XX=    29.7156   YX=     0.0761   ZX=     0.9411
   XY=     0.5429   YY=    26.7143   ZY=    -1.6917
   XZ=    -0.0537   YZ=    -1.6991   ZZ=    32.3346
   Eigenvalues:    26.1928    29.7269    32.8447
     10  O    Isotropic =    96.2381   Anisotropy =   159.7883
   XX=   159.4774   YX=   -44.3663   ZX=    80.0292
   XY=   -42.1215   YY=   139.9205   ZY=   105.0944
   XZ=    89.4306   YZ=   125.3493   ZZ=   -10.6837
   Eigenvalues:  -106.9725   192.9230   202.7636
     11  O    Isotropic =  -107.0348   Anisotropy =   561.0467
   XX=  -212.7045   YX=   -28.7985   ZX=   -78.1937
   XY=   -24.8071   YY=   171.2856   ZY=   206.5234
   XZ=   -58.7463   YZ=   235.6425   ZZ=  -279.6855
   Eigenvalues:  -386.6679  -201.4328   266.9964
     12  C    Isotropic =   160.5959   Anisotropy =    20.7889
   XX=   160.7116   YX=     4.3086   ZX=     8.3061
   XY=     6.5859   YY=   159.4839   ZY=     9.7531
   XZ=    10.4703   YZ=     0.9860   ZZ=   161.5923
   Eigenvalues:   151.7416   155.5909   174.4552
     13  C    Isotropic =   181.4662   Anisotropy =    11.5799
   XX=   180.4183   YX=    -1.6995   ZX=     1.0574
   XY=    -1.7321   YY=   187.7154   ZY=     4.1267
   XZ=     1.9542   YZ=     4.0446   ZZ=   176.2648
   Eigenvalues:   174.3186   180.8938   189.1861
     14  C    Isotropic =   175.8095   Anisotropy =    13.5259
   XX=   169.2950   YX=    -0.1943   ZX=     2.4053
   XY=     2.3918   YY=   179.9074   ZY=    -5.0129
   XZ=    -1.6830   YZ=    -6.3373   ZZ=   178.2261
   Eigenvalues:   169.0432   173.5585   184.8268
     15  O    Isotropic =   248.7346   Anisotropy =    18.1029
   XX=   245.0903   YX=     3.6796   ZX=     2.3588
   XY=   -13.5494   YY=   254.0245   ZY=    13.5750
   XZ=    10.0487   YZ=     5.6714   ZZ=   247.0890
   Eigenvalues:   234.4424   250.9582   260.8032
     16  Si   Isotropic =   333.2894   Anisotropy =    39.9262
   XX=   345.7514   YX=   -26.6854   ZX=    -9.7174
   XY=    -7.9502   YY=   332.9176   ZY=    -3.6921
   XZ=   -13.1752   YZ=     1.8313   ZZ=   321.1992
   Eigenvalues:   312.8233   327.1380   359.9069
     17  C    Isotropic =   184.7619   Anisotropy =    13.1073
   XX=   184.3280   YX=    -5.1932   ZX=     3.8291
   XY=    -5.5210   YY=   179.1923   ZY=    -3.1073
   XZ=     2.1683   YZ=    -2.2468   ZZ=   190.7654
   Eigenvalues:   175.7868   184.9988   193.5001
     18  C    Isotropic =   185.8094   Anisotropy =     9.4705
   XX=   186.9969   YX=    -0.8988   ZX=     1.7429
   XY=    -0.3023   YY=   187.2421   ZY=     6.7917
   XZ=     3.1462   YZ=     6.0073   ZZ=   183.1891
   Eigenvalues:   177.9031   187.4020   192.1231
     19  C    Isotropic =   186.8699   Anisotropy =    12.4432
   XX=   190.2712   YX=     1.9397   ZX=    -5.6854
   XY=     1.3555   YY=   189.2278   ZY=    -4.7362
   XZ=    -5.3637   YZ=    -4.5189   ZZ=   181.1107
   Eigenvalues:   177.4130   188.0314   195.1654
     20  H    Isotropic =    31.9468   Anisotropy =     6.4991
   XX=    33.2287   YX=     2.2889   ZX=    -2.3036
   XY=     2.6329   YY=    33.5096   ZY=    -0.7894
   XZ=    -1.6615   YZ=    -0.3123   ZZ=    29.1021
   Eigenvalues:    28.2641    31.2968    36.2795
     21  H    Isotropic =    31.9005   Anisotropy =     6.9456
   XX=    30.9057   YX=    -1.5664   ZX=     2.3423
   XY=    -1.3356   YY=    29.3171   ZY=     0.4755
   XZ=     2.4377   YZ=    -0.2464   ZZ=    35.4786
   Eigenvalues:    28.1770    30.9935    36.5309
     22  H    Isotropic =    32.1448   Anisotropy =    10.6618
   XX=    34.0606   YX=    -4.6848   ZX=    -1.9765
   XY=    -4.5822   YY=    33.2487   ZY=     2.6211
   XZ=    -1.6970   YZ=     2.5177   ZZ=    29.1251
   Eigenvalues:    27.8439    29.3378    39.2526
     23  H    Isotropic =    32.3231   Anisotropy =    10.2435
   XX=    37.5632   YX=    -2.5747   ZX=    -2.6438
   XY=    -2.9743   YY=    30.2866   ZY=     0.3688
   XZ=    -2.5381   YZ=     0.2472   ZZ=    29.1194
   Eigenvalues:    28.2274    29.5897    39.1521
     24  H    Isotropic =    31.8432   Anisotropy =     8.0653
   XX=    30.7687   YX=     0.5035   ZX=     0.1641
   XY=    -0.1264   YY=    29.4910   ZY=    -4.0019
   XZ=     0.6889   YZ=    -3.7286   ZZ=    35.2701
   Eigenvalues:    27.5147    30.7949    37.2201
     25  H    Isotropic =    31.8352   Anisotropy =     8.6425
   XX=    31.2761   YX=     3.7120   ZX=     0.5630
   XY=     3.3322   YY=    34.5216   ZY=     3.0044
   XZ=     0.4960   YZ=     2.3140   ZZ=    29.7078
   Eigenvalues:    28.0124    29.8963    37.5968
     26  H    Isotropic =    31.8839   Anisotropy =     8.2984
   XX=    30.4486   YX=     1.3517   ZX=     2.9023
   XY=     1.1658   YY=    31.5684   ZY=     2.9160
   XZ=     2.7034   YZ=     3.7957   ZZ=    33.6347
   Eigenvalues:    28.5180    29.7176    37.4162
     27  H    Isotropic =    31.8964   Anisotropy =     6.9345
   XX=    33.0137   YX=     1.3153   ZX=    -0.9120
   XY=     1.7091   YY=    30.5677   ZY=    -3.8337
   XZ=    -1.9221   YZ=    -3.9644   ZZ=    32.1079
   Eigenvalues:    27.3494    31.8205    36.5194
     28  H    Isotropic =    32.2159   Anisotropy =    10.2816
   XX=    36.0774   YX=    -4.7282   ZX=     0.9361
   XY=    -4.8108   YY=    30.9854   ZY=    -0.9100
   XZ=     0.6928   YZ=    -0.7294   ZZ=    29.5847
   Eigenvalues:    28.0674    29.5100    39.0703
     29  H    Isotropic =    31.1247   Anisotropy =     8.8624
   XX=    27.0896   YX=    -2.0661   ZX=     1.4451
   XY=    -2.2949   YY=    36.4443   ZY=    -0.4887
   XZ=     1.3808   YZ=    -0.6500   ZZ=    29.8403
   Eigenvalues:    26.1683    30.1729    37.0330
     30  H    Isotropic =    30.5893   Anisotropy =     6.3842
   XX=    34.1697   YX=     0.7460   ZX=    -0.4523
   XY=     0.9566   YY=    26.6852   ZY=    -2.2097
   XZ=    -1.8451   YZ=    -2.3870   ZZ=    30.9129
   Eigenvalues:    25.6641    31.2584    34.8454
     31  H    Isotropic =    31.4256   Anisotropy =     9.1774
   XX=    29.1119   YX=     2.2876   ZX=     2.1380
   XY=     2.3215   YY=    28.4714   ZY=     0.8489
   XZ=     2.2120   YZ=     1.0877   ZZ=    36.6936
   Eigenvalues:    26.4119    30.3211    37.5439
     32  H    Isotropic =    30.3826   Anisotropy =     7.0526
   XX=    29.5915   YX=     0.2378   ZX=     3.1130
   XY=     0.1698   YY=    30.2317   ZY=    -3.1886
   XZ=     3.3506   YZ=    -3.0522   ZZ=    31.3246
   Eigenvalues:    25.9314    30.1321    35.0843
     33  H    Isotropic =    30.1207   Anisotropy =     9.7234
   XX=    36.3464   YX=    -1.1405   ZX=    -1.3303
   XY=    -0.9716   YY=    27.3543   ZY=     2.0851
   XZ=    -0.4278   YZ=     2.3357   ZZ=    26.6614
   Eigenvalues:    24.7704    28.9887    36.6030
     34  H    Isotropic =    31.1458   Anisotropy =     7.2225
   XX=    27.4670   YX=     1.5351   ZX=     1.0907
   XY=     1.4446   YY=    34.7211   ZY=    -2.4471
   XZ=     0.8370   YZ=    -2.1348   ZZ=    31.2493
   Eigenvalues:    26.6956    30.7810    35.9608
     35  H    Isotropic =    31.2288   Anisotropy =    12.0894
   XX=    32.1181   YX=     3.2275   ZX=     4.3228
   XY=     3.7061   YY=    31.2423   ZY=     4.3060
   XZ=     4.5888   YZ=     3.9475   ZZ=    30.3259
   Eigenvalues:    26.2051    28.1929    39.2884
     36  H    Isotropic =    31.2770   Anisotropy =     6.7439
   XX=    33.7550   YX=     0.2356   ZX=    -2.6200
   XY=    -0.4232   YY=    30.2439   ZY=     3.8083
   XZ=    -2.5269   YZ=     3.6179   ZZ=    29.8321
   Eigenvalues:    25.8816    32.1764    35.7730
     37  C    Isotropic =   140.5370   Anisotropy =    32.2077
   XX=   123.8721   YX=    -1.7137   ZX=    -3.7853
   XY=    -4.8279   YY=   161.7274   ZY=     1.5085
   XZ=    -1.0290   YZ=    -1.6163   ZZ=   136.0114
   Eigenvalues:   123.1429   136.4593   162.0088
     38  C    Isotropic =    42.9050   Anisotropy =   185.9062
   XX=     2.6518   YX=   -15.7992   ZX=    90.7947
   XY=   -20.0401   YY=    44.4948   ZY=    75.5468
   XZ=    90.8121   YZ=    74.2048   ZZ=    81.5683
   Eigenvalues:   -83.9578    45.8302   166.8424
     39  C    Isotropic =    68.9265   Anisotropy =   137.5709
   XX=    46.6994   YX=   -26.7165   ZX=    72.0328
   XY=   -29.6976   YY=    72.6239   ZY=    60.8215
   XZ=    72.2309   YZ=    69.3393   ZZ=    87.4563
   Eigenvalues:   -42.8929    89.0321   160.6405
     40  H    Isotropic =    29.6446   Anisotropy =     5.4391
   XX=    26.7060   YX=    -0.8401   ZX=     1.8494
   XY=     0.1126   YY=    30.3633   ZY=     2.0819
   XZ=     3.0565   YZ=     0.5678   ZZ=    31.8646
   Eigenvalues:    25.5770    30.0862    33.2707
     41  H    Isotropic =    29.6431   Anisotropy =     5.8123
   XX=    29.5533   YX=    -2.0607   ZX=    -1.5464
   XY=    -0.4884   YY=    31.4050   ZY=     1.4844
   XZ=    -2.2726   YZ=     2.9026   ZZ=    27.9709
   Eigenvalues:    26.3732    29.0381    33.5180
     42  H    Isotropic =    25.4713   Anisotropy =     8.1742
   XX=    23.3636   YX=    -0.6637   ZX=     0.9830
   XY=    -1.6982   YY=    30.7357   ZY=     0.1541
   XZ=     1.7309   YZ=     0.1358   ZZ=    22.3147
   Eigenvalues:    21.3166    24.1766    30.9207
     43  H    Isotropic =    26.9264   Anisotropy =     6.9766
   XX=    25.4823   YX=    -3.2802   ZX=     1.4066
   XY=    -1.2746   YY=    30.7166   ZY=    -0.6787
   XZ=     0.6310   YZ=     0.9182   ZZ=    24.5803
   Eigenvalues:    23.6049    25.5968    31.5775
     44  H    Isotropic =    26.8268   Anisotropy =     7.1955
   XX=    26.0154   YX=    -1.8439   ZX=     0.2629
   XY=    -4.3929   YY=    29.7983   ZY=     1.9151
   XZ=     1.5610   YZ=     0.6792   ZZ=    24.6667
   Eigenvalues:    22.9941    25.8625    31.6238
 End of Minotr F.D. properties file   721 does not exist.
 End of Minotr F.D. properties file   722 does not exist.
 End of Minotr F.D. properties file   788 does not exist.

 **********************************************************************

            Population analysis using the SCF density.

 **********************************************************************

 Orbital symmetries:
       Occupied  (A) (A) (A) (A) (A) (A) (A) (A) (A) (A) (A) (A)
                 (A) (A) (A) (A) (A) (A) (A) (A) (A) (A) (A) (A)
                 (A) (A) (A) (A) (A) (A) (A) (A) (A) (A) (A) (A)
                 (A) (A) (A) (A) (A) (A) (A) (A) (A) (A) (A) (A)
                 (A) (A) (A) (A) (A) (A) (A) (A) (A) (A) (A) (A)
                 (A) (A) (A) (A) (A) (A) (A) (A) (A) (A) (A) (A)
                 (A) (A)
       Virtual   (A) (A) (A) (A) (A) (A) (A) (A) (A) (A) (A) (A)
                 (A) (A) (A) (A) (A) (A) (A) (A) (A) (A) (A) (A)
                 (A) (A) (A) (A) (A) (A) (A) (A) (A) (A) (A) (A)
                 (A) (A) (A) (A) (A) (A) (A) (A) (A) (A) (A) (A)
                 (A) (A) (A) (A) (A) (A) (A) (A) (A) (A) (A) (A)
                 (A) (A) (A) (A) (A) (A) (A) (A) (A) (A) (A) (A)
                 (A) (A) (A) (A) (A) (A) (A) (A) (A) (A) (A) (A)
                 (A) (A) (A) (A) (A) (A) (A) (A) (A) (A) (A) (A)
                 (A) (A) (A) (A) (A) (A) (A) (A) (A) (A) (A) (A)
                 (A) (A) (A) (A) (A) (A) (A) (A) (A) (A) (A) (A)
                 (A) (A) (A) (A) (A) (A) (A) (A) (A) (A) (A) (A)
                 (A) (A) (A) (A) (A) (A) (A) (A) (A) (A) (A) (A)
                 (A) (A) (A) (A) (A) (A) (A) (A) (A) (A) (A) (A)
                 (A) (A) (A) (A) (A) (A) (A) (A) (A) (A) (A) (A)
                 (A) (A) (A) (A) (A) (A) (A) (A) (A) (A) (A) (A)
                 (A) (A) (A) (A) (A) (A) (A) (A) (A) (A) (A) (A)
                 (A) (A) (A) (A) (A) (A) (A) (A) (A) (A) (A) (A)
                 (A) (A) (A) (A) (A) (A) (A) (A) (A) (A) (A) (A)
                 (A) (A) (A) (A) (A) (A) (A) (A) (A) (A) (A) (A)
                 (A) (A) (A) (A) (A) (A) (A) (A) (A) (A) (A) (A)
                 (A) (A) (A) (A) (A) (A) (A) (A) (A) (A) (A) (A)
                 (A) (A) (A) (A) (A) (A) (A) (A) (A) (A) (A) (A)
                 (A) (A) (A) (A) (A) (A) (A) (A) (A) (A) (A) (A)
                 (A) (A) (A) (A) (A) (A) (A) (A) (A) (A) (A) (A)
                 (A) (A) (A) (A) (A) (A) (A) (A) (A) (A) (A) (A)
                 (A) (A) (A) (A) (A) (A) (A) (A) (A) (A) (A) (A)
                 (A) (A) (A) (A) (A) (A) (A) (A) (A) (A) (A) (A)
                 (A) (A) (A) (A) (A) (A) (A) (A) (A) (A) (A) (A)
 The electronic state is 1-A.
 Alpha  occ. eigenvalues --  -66.27540 -19.25973 -19.20779 -19.19663 -10.37094
 Alpha  occ. eigenvalues --  -10.31814 -10.30604 -10.25367 -10.25281 -10.24209
 Alpha  occ. eigenvalues --  -10.24026 -10.23856 -10.22596 -10.22427 -10.22348
 Alpha  occ. eigenvalues --  -10.21192 -10.20855 -10.20753  -5.33273  -3.67163
 Alpha  occ. eigenvalues --   -3.66866  -3.66850  -1.13235  -1.04872  -1.04123
 Alpha  occ. eigenvalues --   -0.85942  -0.83120  -0.80675  -0.77675  -0.74181
 Alpha  occ. eigenvalues --   -0.72789  -0.71916  -0.70485  -0.70221  -0.66927
 Alpha  occ. eigenvalues --   -0.62833  -0.62585  -0.58505  -0.56156  -0.53211
 Alpha  occ. eigenvalues --   -0.53059  -0.50666  -0.49270  -0.48197  -0.47254
 Alpha  occ. eigenvalues --   -0.46206  -0.45376  -0.44659  -0.44289  -0.43583
 Alpha  occ. eigenvalues --   -0.42912  -0.42689  -0.41982  -0.41555  -0.41210
 Alpha  occ. eigenvalues --   -0.40870  -0.40712  -0.40241  -0.39792  -0.38961
 Alpha  occ. eigenvalues --   -0.37978  -0.37855  -0.37481  -0.36562  -0.36305
 Alpha  occ. eigenvalues --   -0.35630  -0.34293  -0.33353  -0.32575  -0.31144
 Alpha  occ. eigenvalues --   -0.30697  -0.29015  -0.28239  -0.26860
 Alpha virt. eigenvalues --    0.00333   0.01160   0.03585   0.05440   0.05740
 Alpha virt. eigenvalues --    0.06190   0.07601   0.08307   0.08612   0.08650
 Alpha virt. eigenvalues --    0.09679   0.10082   0.10456   0.10545   0.11437
 Alpha virt. eigenvalues --    0.11600   0.13083   0.13358   0.13611   0.13955
 Alpha virt. eigenvalues --    0.14191   0.14412   0.14707   0.15079   0.15329
 Alpha virt. eigenvalues --    0.15724   0.16491   0.17050   0.17205   0.17819
 Alpha virt. eigenvalues --    0.17982   0.18726   0.19487   0.20533   0.21294
 Alpha virt. eigenvalues --    0.22116   0.23250   0.23459   0.23746   0.24312
 Alpha virt. eigenvalues --    0.25224   0.26022   0.26940   0.27150   0.27842
 Alpha virt. eigenvalues --    0.28600   0.30187   0.31295   0.32384   0.32904
 Alpha virt. eigenvalues --    0.33126   0.33981   0.34678   0.34894   0.35539
 Alpha virt. eigenvalues --    0.37170   0.37913   0.39048   0.39945   0.40827
 Alpha virt. eigenvalues --    0.41674   0.42683   0.42940   0.44042   0.44551
 Alpha virt. eigenvalues --    0.44677   0.45840   0.46629   0.46775   0.48287
 Alpha virt. eigenvalues --    0.48795   0.50379   0.50904   0.51281   0.52189
 Alpha virt. eigenvalues --    0.53172   0.53555   0.55167   0.55637   0.56237
 Alpha virt. eigenvalues --    0.56951   0.57391   0.57548   0.58169   0.59210
 Alpha virt. eigenvalues --    0.59473   0.60452   0.60596   0.60837   0.61009
 Alpha virt. eigenvalues --    0.61307   0.61622   0.62306   0.62704   0.62977
 Alpha virt. eigenvalues --    0.63937   0.64099   0.64518   0.65100   0.66002
 Alpha virt. eigenvalues --    0.66296   0.66614   0.67317   0.67957   0.68222
 Alpha virt. eigenvalues --    0.68799   0.69055   0.69972   0.71483   0.72009
 Alpha virt. eigenvalues --    0.72363   0.72916   0.73606   0.73812   0.74930
 Alpha virt. eigenvalues --    0.76361   0.77586   0.78152   0.80370   0.81197
 Alpha virt. eigenvalues --    0.81718   0.83725   0.85758   0.87109   0.88558
 Alpha virt. eigenvalues --    0.89573   0.90566   0.91589   0.93096   0.94272
 Alpha virt. eigenvalues --    0.95223   0.97096   0.98278   0.98527   0.99306
 Alpha virt. eigenvalues --    1.00820   1.04329   1.05514   1.09570   1.11051
 Alpha virt. eigenvalues --    1.12457   1.15589   1.16934   1.17405   1.18842
 Alpha virt. eigenvalues --    1.20515   1.23857   1.24937   1.26477   1.27828
 Alpha virt. eigenvalues --    1.28734   1.29883   1.31408   1.32174   1.33384
 Alpha virt. eigenvalues --    1.33939   1.36889   1.38906   1.40745   1.41435
 Alpha virt. eigenvalues --    1.42374   1.43282   1.45882   1.47884   1.48586
 Alpha virt. eigenvalues --    1.50358   1.50993   1.52500   1.53496   1.53889
 Alpha virt. eigenvalues --    1.54505   1.55346   1.56530   1.56781   1.58048
 Alpha virt. eigenvalues --    1.58518   1.59323   1.59678   1.60169   1.60993
 Alpha virt. eigenvalues --    1.61697   1.61815   1.62426   1.63390   1.64001
 Alpha virt. eigenvalues --    1.64532   1.65165   1.66848   1.67774   1.68458
 Alpha virt. eigenvalues --    1.70138   1.70448   1.71610   1.74044   1.74576
 Alpha virt. eigenvalues --    1.75639   1.76465   1.78348   1.79393   1.80929
 Alpha virt. eigenvalues --    1.81711   1.82964   1.85372   1.87311   1.87548
 Alpha virt. eigenvalues --    1.88495   1.92403   1.93292   1.95734   1.96588
 Alpha virt. eigenvalues --    1.99979   2.03469   2.07181   2.09419   2.10571
 Alpha virt. eigenvalues --    2.14387   2.17902   2.21394   2.22023   2.25770
 Alpha virt. eigenvalues --    2.27734   2.30296   2.34265   2.35227   2.39676
 Alpha virt. eigenvalues --    2.41428   2.41492   2.42408   2.42769   2.43564
 Alpha virt. eigenvalues --    2.44704   2.45329   2.45825   2.46148   2.47502
 Alpha virt. eigenvalues --    2.48150   2.48229   2.49448   2.50525   2.52520
 Alpha virt. eigenvalues --    2.53607   2.54966   2.56203   2.58264   2.59209
 Alpha virt. eigenvalues --    2.62557   2.63641   2.69238   2.73186   2.80170
 Alpha virt. eigenvalues --    2.83172   2.86671   2.87990   2.90187   2.91547
 Alpha virt. eigenvalues --    2.91792   2.93088   2.93935   2.96187   2.97418
 Alpha virt. eigenvalues --    2.98604   2.99927   3.03003   3.03103   3.08040
 Alpha virt. eigenvalues --    3.09638   3.10878   3.12787   3.13728   3.14534
 Alpha virt. eigenvalues --    3.15980   3.16584   3.17927   3.19228   3.21242
 Alpha virt. eigenvalues --    3.22001   3.22332   3.23665   3.23983   3.24733
 Alpha virt. eigenvalues --    3.26693   3.27895   3.28948   3.29935   3.32601
 Alpha virt. eigenvalues --    3.33466   3.34906   3.36107   3.38042   3.39594
 Alpha virt. eigenvalues --    3.43211   3.50697   3.57483   3.60989   3.65080
 Alpha virt. eigenvalues --    3.78603   3.88159   3.88674   3.97552   4.04462
 Alpha virt. eigenvalues --    4.08333   4.14446   4.19184   4.22101   4.25965
 Alpha virt. eigenvalues --    4.93820   5.00177   5.01806   5.10146   5.15971
 Alpha virt. eigenvalues --    5.23093   5.51850   5.56808   5.76710   5.85354
 Alpha virt. eigenvalues --   11.52381  11.53009  11.56652  23.41188  23.48527
 Alpha virt. eigenvalues --   23.53859  23.54730  23.56984  23.60870  23.72462
 Alpha virt. eigenvalues --   23.75805  23.78246  23.78873  23.82443  23.87803
 Alpha virt. eigenvalues --   23.88586  24.28991  49.98494  50.05890  50.13214
 Alpha virt. eigenvalues --  141.27492
          Condensed to atoms (all electrons):
               1          2          3          4          5          6
     1  C    5.190942   0.266328  -0.053504  -0.005304  -0.047208   0.397774
     2  C    0.266328   5.579309   0.278887  -0.086235  -0.012895  -0.042908
     3  C   -0.053504   0.278887   5.184935   0.252318  -0.019505  -0.018307
     4  C   -0.005304  -0.086235   0.252318   5.868813   0.238174   0.003007
     5  C   -0.047208  -0.012895  -0.019505   0.238174   4.391026  -0.001567
     6  H    0.397774  -0.042908  -0.018307   0.003007  -0.001567   0.472198
     7  H   -0.045502   0.405455  -0.058174  -0.007105   0.000039   0.006844
     8  H    0.001454  -0.008499  -0.027524   0.359104  -0.025156  -0.000072
     9  H   -0.000728   0.008027  -0.032234   0.368953  -0.025565   0.000180
    10  O    0.215626  -0.036612   0.007747  -0.109574   0.343674  -0.031250
    11  O    0.002507  -0.000445   0.004027  -0.093548   0.669560  -0.000078
    12  C    0.337823  -0.061213   0.010383  -0.002040   0.002509  -0.051596
    13  C   -0.071032  -0.007894  -0.000904   0.000264  -0.000015   0.007716
    14  C   -0.059311   0.284306  -0.053592   0.007254   0.000158  -0.000719
    15  O    0.003664  -0.054218   0.220060  -0.018545   0.002114  -0.000084
    16  Si   0.002050  -0.012888  -0.045270  -0.001990   0.001418  -0.000169
    17  C    0.000005  -0.000268   0.000526  -0.001962  -0.000010   0.000000
    18  C   -0.000073   0.000192   0.000298  -0.002807  -0.000033  -0.000003
    19  C   -0.000002  -0.000164   0.002075  -0.000022   0.000002   0.000000
    20  H   -0.000078  -0.000095   0.000354  -0.000047   0.000021  -0.000003
    21  H   -0.000062   0.000230  -0.000008   0.000183   0.000009  -0.000002
    22  H   -0.000002   0.000168  -0.000079   0.000069   0.000002   0.000000
    23  H    0.000000   0.000000  -0.000056   0.000000   0.000000   0.000000
    24  H   -0.000001   0.000032  -0.000090  -0.000015   0.000000   0.000000
    25  H    0.000001  -0.000031  -0.000105  -0.000031   0.000000   0.000000
    26  H    0.000002  -0.000046   0.000514  -0.000119  -0.000027   0.000000
    27  H    0.000004  -0.000032   0.000020   0.000833  -0.000006   0.000000
    28  H    0.000000   0.000002  -0.000046   0.000117   0.000002   0.000000
    29  H   -0.004049  -0.040893  -0.006480  -0.000084  -0.000014   0.005504
    30  H    0.005829  -0.034248  -0.008807   0.000486  -0.000088  -0.000168
    31  H   -0.007401  -0.033649   0.006376  -0.000347  -0.000001  -0.000341
    32  H   -0.037394  -0.006963  -0.000396   0.000114  -0.000055  -0.000446
    33  H   -0.048666   0.009411  -0.000105   0.000284  -0.000159  -0.006775
    34  H   -0.007702  -0.000381  -0.000497   0.000855   0.000095   0.000432
    35  H    0.007579  -0.000063   0.000009  -0.000018   0.000013  -0.000175
    36  H   -0.007671   0.004022   0.000316   0.000068   0.000000  -0.000366
    37  C   -0.000562  -0.086241   0.285549  -0.113210   0.001259   0.007067
    38  C   -0.001243  -0.004268  -0.045436   0.007911  -0.000406   0.000073
    39  C   -0.000468   0.001790   0.000044  -0.000025  -0.000028   0.001802
    40  H   -0.000612   0.009566  -0.049123  -0.004373  -0.000573   0.000381
    41  H    0.001091  -0.005580  -0.023473  -0.007881   0.004389  -0.003216
    42  H    0.000071  -0.000261  -0.002944  -0.000074  -0.000014  -0.000008
    43  H    0.000013  -0.000015  -0.000274   0.000014   0.000000   0.000003
    44  H    0.000125  -0.000065   0.000106  -0.000039  -0.000013   0.000566
               7          8          9         10         11         12
     1  C   -0.045502   0.001454  -0.000728   0.215626   0.002507   0.337823
     2  C    0.405455  -0.008499   0.008027  -0.036612  -0.000445  -0.061213
     3  C   -0.058174  -0.027524  -0.032234   0.007747   0.004027   0.010383
     4  C   -0.007105   0.359104   0.368953  -0.109574  -0.093548  -0.002040
     5  C    0.000039  -0.025156  -0.025565   0.343674   0.669560   0.002509
     6  H    0.006844  -0.000072   0.000180  -0.031250  -0.000078  -0.051596
     7  H    0.482274   0.001243   0.000446   0.001866  -0.000181  -0.013029
     8  H    0.001243   0.414431  -0.013600   0.002431   0.002506  -0.000065
     9  H    0.000446  -0.013600   0.407581   0.003934   0.008260   0.000038
    10  O    0.001866   0.002431   0.003934   8.048886  -0.077272  -0.061413
    11  O   -0.000181   0.002506   0.008260  -0.077272   7.868625  -0.000141
    12  C   -0.013029  -0.000065   0.000038  -0.061413  -0.000141   5.323186
    13  C    0.005003   0.000177   0.000011   0.000818  -0.000021   0.286898
    14  C   -0.039514   0.000267  -0.000143   0.003445   0.000004  -0.004913
    15  O   -0.001122  -0.004863  -0.000166  -0.000023  -0.000019  -0.000074
    16  Si  -0.001042   0.004052  -0.002666  -0.000485  -0.000515  -0.000170
    17  C   -0.000251   0.000263  -0.001394   0.000000   0.000002   0.000000
    18  C   -0.004206   0.003178   0.000208   0.000002   0.000002  -0.000004
    19  C   -0.000081  -0.000017  -0.000028   0.000000   0.000000   0.000000
    20  H   -0.001032   0.004756   0.000010   0.000000   0.000001   0.000000
    21  H   -0.001640  -0.000374   0.000008  -0.000002   0.000000   0.000017
    22  H    0.000464  -0.000071  -0.000004   0.000000   0.000000   0.000000
    23  H   -0.000001   0.000007  -0.000002   0.000000   0.000000   0.000000
    24  H   -0.000017  -0.000006  -0.000003   0.000000   0.000000   0.000000
    25  H    0.000004   0.000000  -0.000013   0.000000   0.000000   0.000000
    26  H    0.000008  -0.000004   0.000122   0.000000   0.000001   0.000000
    27  H   -0.000048   0.001338  -0.000215   0.000000  -0.000023   0.000000
    28  H    0.000006  -0.000032   0.000108   0.000000   0.000000   0.000000
    29  H    0.007369  -0.000023   0.000023   0.000033   0.000000  -0.001779
    30  H   -0.003843   0.000032  -0.000034  -0.000114   0.000000   0.000129
    31  H   -0.008533  -0.000017   0.000015  -0.000022   0.000000   0.002213
    32  H    0.000276  -0.000009  -0.000002   0.003649   0.000007   0.386734
    33  H   -0.000407  -0.000009  -0.000010   0.003441  -0.000030   0.404012
    34  H    0.000371  -0.000022  -0.000007   0.009785  -0.000153  -0.044120
    35  H    0.000308   0.000000   0.000000  -0.000178   0.000000  -0.034537
    36  H   -0.002424  -0.000030   0.000000  -0.000007   0.000002  -0.035322
    37  C    0.008999   0.006568  -0.004905  -0.004009   0.000191  -0.000815
    38  C   -0.000577  -0.000172   0.000010   0.000288  -0.000001   0.000043
    39  C   -0.000050   0.000004  -0.000013  -0.000010   0.000000   0.000015
    40  H   -0.000220  -0.000228   0.004983  -0.000129  -0.000092   0.000019
    41  H   -0.000251   0.000255  -0.000191   0.002763  -0.000217   0.000772
    42  H   -0.000081   0.000035   0.000015   0.000001   0.000000   0.000011
    43  H   -0.000001  -0.000001   0.000000   0.000000   0.000000   0.000000
    44  H    0.000005   0.000001   0.000003  -0.000024   0.000000  -0.000002
              13         14         15         16         17         18
     1  C   -0.071032  -0.059311   0.003664   0.002050   0.000005  -0.000073
     2  C   -0.007894   0.284306  -0.054218  -0.012888  -0.000268   0.000192
     3  C   -0.000904  -0.053592   0.220060  -0.045270   0.000526   0.000298
     4  C    0.000264   0.007254  -0.018545  -0.001990  -0.001962  -0.002807
     5  C   -0.000015   0.000158   0.002114   0.001418  -0.000010  -0.000033
     6  H    0.007716  -0.000719  -0.000084  -0.000169   0.000000  -0.000003
     7  H    0.005003  -0.039514  -0.001122  -0.001042  -0.000251  -0.004206
     8  H    0.000177   0.000267  -0.004863   0.004052   0.000263   0.003178
     9  H    0.000011  -0.000143  -0.000166  -0.002666  -0.001394   0.000208
    10  O    0.000818   0.003445  -0.000023  -0.000485   0.000000   0.000002
    11  O   -0.000021   0.000004  -0.000019  -0.000515   0.000002   0.000002
    12  C    0.286898  -0.004913  -0.000074  -0.000170   0.000000  -0.000004
    13  C    5.380141  -0.000638  -0.000001  -0.000106   0.000000  -0.000012
    14  C   -0.000638   5.418625  -0.005800  -0.000689   0.000009   0.000751
    15  O   -0.000001  -0.005800   8.285180   0.348038  -0.024739  -0.024061
    16  Si  -0.000106  -0.000689   0.348038  11.516415   0.319086   0.305749
    17  C    0.000000   0.000009  -0.024739   0.319086   5.760509  -0.055246
    18  C   -0.000012   0.000751  -0.024061   0.305749  -0.055246   5.794466
    19  C    0.000000  -0.000246  -0.029626   0.334365  -0.046283  -0.042888
    20  H    0.000112   0.000186  -0.001316  -0.029177  -0.001054   0.369162
    21  H    0.000046   0.000506  -0.002321  -0.028360   0.002057   0.371489
    22  H   -0.000001  -0.000022   0.000823  -0.010809   0.000279   0.363463
    23  H    0.000000  -0.000002   0.001199  -0.014378   0.000687   0.000193
    24  H    0.000000   0.000115  -0.001613  -0.026006   0.002076  -0.000514
    25  H    0.000000  -0.000011  -0.001824  -0.022859  -0.000587   0.002073
    26  H    0.000000   0.000000  -0.002315  -0.024596   0.370910   0.001981
    27  H    0.000000   0.000001  -0.001318  -0.026941   0.371051  -0.001323
    28  H    0.000000   0.000000   0.000967  -0.012079   0.362165   0.000523
    29  H    0.000267   0.384050  -0.000214  -0.000168   0.000000   0.000020
    30  H   -0.000122   0.385313   0.008064   0.003730   0.000051  -0.000142
    31  H    0.000147   0.387742   0.000030  -0.000376   0.000000   0.000090
    32  H   -0.036697   0.003060  -0.000002  -0.000009   0.000000  -0.000002
    33  H   -0.042455  -0.000479   0.000004   0.000018   0.000000   0.000000
    34  H    0.385329   0.000192   0.000003   0.000006   0.000000   0.000007
    35  H    0.391523  -0.000051   0.000000   0.000000   0.000000   0.000000
    36  H    0.383891   0.000607   0.000002  -0.000039   0.000001   0.000314
    37  C    0.000030  -0.003079  -0.076825   0.000675  -0.000061  -0.000258
    38  C   -0.000005  -0.014002   0.003414  -0.000365   0.000009   0.000008
    39  C    0.000000  -0.003873   0.000806   0.000136   0.000000   0.000000
    40  H    0.000001  -0.000496   0.001380   0.000902   0.000028   0.000035
    41  H   -0.000029   0.000390   0.003648   0.000198  -0.000007   0.000014
    42  H    0.000000   0.000050   0.008073   0.000513  -0.000004   0.000024
    43  H    0.000000   0.000034   0.000003   0.000003   0.000000   0.000000
    44  H    0.000000   0.000081  -0.000001  -0.000003   0.000000   0.000000
              19         20         21         22         23         24
     1  C   -0.000002  -0.000078  -0.000062  -0.000002   0.000000  -0.000001
     2  C   -0.000164  -0.000095   0.000230   0.000168   0.000000   0.000032
     3  C    0.002075   0.000354  -0.000008  -0.000079  -0.000056  -0.000090
     4  C   -0.000022  -0.000047   0.000183   0.000069   0.000000  -0.000015
     5  C    0.000002   0.000021   0.000009   0.000002   0.000000   0.000000
     6  H    0.000000  -0.000003  -0.000002   0.000000   0.000000   0.000000
     7  H   -0.000081  -0.001032  -0.001640   0.000464  -0.000001  -0.000017
     8  H   -0.000017   0.004756  -0.000374  -0.000071   0.000007  -0.000006
     9  H   -0.000028   0.000010   0.000008  -0.000004  -0.000002  -0.000003
    10  O    0.000000   0.000000  -0.000002   0.000000   0.000000   0.000000
    11  O    0.000000   0.000001   0.000000   0.000000   0.000000   0.000000
    12  C    0.000000   0.000000   0.000017   0.000000   0.000000   0.000000
    13  C    0.000000   0.000112   0.000046  -0.000001   0.000000   0.000000
    14  C   -0.000246   0.000186   0.000506  -0.000022  -0.000002   0.000115
    15  O   -0.029626  -0.001316  -0.002321   0.000823   0.001199  -0.001613
    16  Si   0.334365  -0.029177  -0.028360  -0.010809  -0.014378  -0.026006
    17  C   -0.046283  -0.001054   0.002057   0.000279   0.000687   0.002076
    18  C   -0.042888   0.369162   0.371489   0.363463   0.000193  -0.000514
    19  C    5.721143   0.002374  -0.000307  -0.000393   0.361046   0.370268
    20  H    0.002374   0.447206  -0.019360  -0.020904  -0.000077  -0.000065
    21  H   -0.000307  -0.019360   0.448830  -0.021214  -0.000050   0.001142
    22  H   -0.000393  -0.020904  -0.021214   0.441997   0.000571  -0.000076
    23  H    0.361046  -0.000077  -0.000050   0.000571   0.460096  -0.021630
    24  H    0.370268  -0.000065   0.001142  -0.000076  -0.021630   0.453305
    25  H    0.369715  -0.000088  -0.000065  -0.000061  -0.021459  -0.019116
    26  H   -0.000447  -0.000033  -0.000091  -0.000050  -0.000007  -0.000085
    27  H    0.002273   0.000711  -0.000043   0.000041  -0.000057  -0.000094
    28  H   -0.000061   0.000073  -0.000045   0.000478   0.000706  -0.000054
    29  H    0.000006  -0.000005   0.000000   0.000000   0.000000  -0.000013
    30  H    0.000385  -0.000036   0.000438   0.000009  -0.000010   0.001103
    31  H   -0.000002   0.000010   0.000194  -0.000003   0.000000  -0.000001
    32  H    0.000000   0.000001  -0.000003   0.000000   0.000000   0.000000
    33  H    0.000000   0.000000   0.000000   0.000000   0.000000   0.000000
    34  H    0.000000   0.000035  -0.000008   0.000000   0.000000   0.000000
    35  H    0.000000  -0.000004  -0.000002   0.000000   0.000000   0.000000
    36  H    0.000001   0.000241   0.000298  -0.000012   0.000000   0.000000
    37  C    0.000108  -0.000054  -0.000076   0.000004   0.000000  -0.000003
    38  C   -0.000041   0.000000   0.000003   0.000000   0.000000   0.000006
    39  C   -0.000001   0.000000   0.000000   0.000000   0.000000  -0.000001
    40  H   -0.000035   0.000005   0.000005   0.000000   0.000000   0.000006
    41  H    0.000005   0.000004   0.000003   0.000000   0.000000   0.000001
    42  H    0.000087   0.000002   0.000004   0.000000   0.000002   0.000041
    43  H    0.000000   0.000000   0.000000   0.000000   0.000000   0.000000
    44  H    0.000000   0.000000   0.000000   0.000000   0.000000   0.000000
              25         26         27         28         29         30
     1  C    0.000001   0.000002   0.000004   0.000000  -0.004049   0.005829
     2  C   -0.000031  -0.000046  -0.000032   0.000002  -0.040893  -0.034248
     3  C   -0.000105   0.000514   0.000020  -0.000046  -0.006480  -0.008807
     4  C   -0.000031  -0.000119   0.000833   0.000117  -0.000084   0.000486
     5  C    0.000000  -0.000027  -0.000006   0.000002  -0.000014  -0.000088
     6  H    0.000000   0.000000   0.000000   0.000000   0.005504  -0.000168
     7  H    0.000004   0.000008  -0.000048   0.000006   0.007369  -0.003843
     8  H    0.000000  -0.000004   0.001338  -0.000032  -0.000023   0.000032
     9  H   -0.000013   0.000122  -0.000215   0.000108   0.000023  -0.000034
    10  O    0.000000   0.000000   0.000000   0.000000   0.000033  -0.000114
    11  O    0.000000   0.000001  -0.000023   0.000000   0.000000   0.000000
    12  C    0.000000   0.000000   0.000000   0.000000  -0.001779   0.000129
    13  C    0.000000   0.000000   0.000000   0.000000   0.000267  -0.000122
    14  C   -0.000011   0.000000   0.000001   0.000000   0.384050   0.385313
    15  O   -0.001824  -0.002315  -0.001318   0.000967  -0.000214   0.008064
    16  Si  -0.022859  -0.024596  -0.026941  -0.012079  -0.000168   0.003730
    17  C   -0.000587   0.370910   0.371051   0.362165   0.000000   0.000051
    18  C    0.002073   0.001981  -0.001323   0.000523   0.000020  -0.000142
    19  C    0.369715  -0.000447   0.002273  -0.000061   0.000006   0.000385
    20  H   -0.000088  -0.000033   0.000711   0.000073  -0.000005  -0.000036
    21  H   -0.000065  -0.000091  -0.000043  -0.000045   0.000000   0.000438
    22  H   -0.000061  -0.000050   0.000041   0.000478   0.000000   0.000009
    23  H   -0.021459  -0.000007  -0.000057   0.000706   0.000000  -0.000010
    24  H   -0.019116  -0.000085  -0.000094  -0.000054  -0.000013   0.001103
    25  H    0.451327   0.001147  -0.000075  -0.000118   0.000001  -0.000052
    26  H    0.001147   0.449744  -0.019346  -0.021383   0.000000   0.000003
    27  H   -0.000075  -0.019346   0.449924  -0.022269   0.000000   0.000001
    28  H   -0.000118  -0.021383  -0.022269   0.454372   0.000000   0.000000
    29  H    0.000001   0.000000   0.000000   0.000000   0.452612  -0.024145
    30  H   -0.000052   0.000003   0.000001   0.000000  -0.024145   0.433658
    31  H    0.000000   0.000000   0.000000   0.000000  -0.025179  -0.024237
    32  H    0.000000   0.000000   0.000000   0.000000   0.000340   0.000314
    33  H    0.000000   0.000000   0.000000   0.000000  -0.000198   0.000027
    34  H    0.000000   0.000000   0.000000   0.000000   0.000003   0.000025
    35  H    0.000000   0.000000   0.000000   0.000000   0.000012  -0.000003
    36  H    0.000000   0.000000   0.000000   0.000000  -0.000143  -0.000013
    37  C    0.000104   0.000166  -0.000026   0.000006   0.002019  -0.000597
    38  C    0.000010  -0.000001   0.000001   0.000000   0.003595   0.000747
    39  C   -0.000003   0.000000   0.000000   0.000000   0.002371   0.000293
    40  H   -0.000012   0.000074  -0.000039  -0.000001   0.000203  -0.000087
    41  H   -0.000001  -0.000009  -0.000002   0.000000  -0.000547  -0.000010
    42  H    0.000158  -0.000008   0.000000  -0.000001  -0.000857   0.000246
    43  H   -0.000001   0.000000   0.000000   0.000000   0.000016   0.000001
    44  H    0.000000   0.000000   0.000000   0.000000  -0.000051  -0.000010
              31         32         33         34         35         36
     1  C   -0.007401  -0.037394  -0.048666  -0.007702   0.007579  -0.007671
     2  C   -0.033649  -0.006963   0.009411  -0.000381  -0.000063   0.004022
     3  C    0.006376  -0.000396  -0.000105  -0.000497   0.000009   0.000316
     4  C   -0.000347   0.000114   0.000284   0.000855  -0.000018   0.000068
     5  C   -0.000001  -0.000055  -0.000159   0.000095   0.000013   0.000000
     6  H   -0.000341  -0.000446  -0.006775   0.000432  -0.000175  -0.000366
     7  H   -0.008533   0.000276  -0.000407   0.000371   0.000308  -0.002424
     8  H   -0.000017  -0.000009  -0.000009  -0.000022   0.000000  -0.000030
     9  H    0.000015  -0.000002  -0.000010  -0.000007   0.000000   0.000000
    10  O   -0.000022   0.003649   0.003441   0.009785  -0.000178  -0.000007
    11  O    0.000000   0.000007  -0.000030  -0.000153   0.000000   0.000002
    12  C    0.002213   0.386734   0.404012  -0.044120  -0.034537  -0.035322
    13  C    0.000147  -0.036697  -0.042455   0.385329   0.391523   0.383891
    14  C    0.387742   0.003060  -0.000479   0.000192  -0.000051   0.000607
    15  O    0.000030  -0.000002   0.000004   0.000003   0.000000   0.000002
    16  Si  -0.000376  -0.000009   0.000018   0.000006   0.000000  -0.000039
    17  C    0.000000   0.000000   0.000000   0.000000   0.000000   0.000001
    18  C    0.000090  -0.000002   0.000000   0.000007   0.000000   0.000314
    19  C   -0.000002   0.000000   0.000000   0.000000   0.000000   0.000001
    20  H    0.000010   0.000001   0.000000   0.000035  -0.000004   0.000241
    21  H    0.000194  -0.000003   0.000000  -0.000008  -0.000002   0.000298
    22  H   -0.000003   0.000000   0.000000   0.000000   0.000000  -0.000012
    23  H    0.000000   0.000000   0.000000   0.000000   0.000000   0.000000
    24  H   -0.000001   0.000000   0.000000   0.000000   0.000000   0.000000
    25  H    0.000000   0.000000   0.000000   0.000000   0.000000   0.000000
    26  H    0.000000   0.000000   0.000000   0.000000   0.000000   0.000000
    27  H    0.000000   0.000000   0.000000   0.000000   0.000000   0.000000
    28  H    0.000000   0.000000   0.000000   0.000000   0.000000   0.000000
    29  H   -0.025179   0.000340  -0.000198   0.000003   0.000012  -0.000143
    30  H   -0.024237   0.000314   0.000027   0.000025  -0.000003  -0.000013
    31  H    0.462685  -0.001286   0.000217  -0.000133  -0.000050   0.002359
    32  H   -0.001286   0.475377  -0.026043   0.007056  -0.003535  -0.005670
    33  H    0.000217  -0.026043   0.468128  -0.003228  -0.005742   0.006330
    34  H   -0.000133   0.007056  -0.003228   0.468397  -0.025660  -0.027943
    35  H   -0.000050  -0.003535  -0.005742  -0.025660   0.462028  -0.027534
    36  H    0.002359  -0.005670   0.006330  -0.027943  -0.027534   0.480465
    37  C   -0.000470   0.000014  -0.000037   0.000015   0.000002  -0.000023
    38  C    0.000497  -0.000011   0.000006  -0.000001   0.000000   0.000002
    39  C    0.000181   0.000002  -0.000001   0.000000   0.000000   0.000000
    40  H    0.000029   0.000000  -0.000003   0.000000   0.000000   0.000000
    41  H   -0.000009  -0.000027  -0.000013  -0.000007   0.000001  -0.000002
    42  H    0.000060   0.000000   0.000000   0.000000   0.000000   0.000000
    43  H   -0.000005   0.000000   0.000000   0.000000   0.000000   0.000000
    44  H    0.000004   0.000002  -0.000002   0.000000   0.000000   0.000000
              37         38         39         40         41         42
     1  C   -0.000562  -0.001243  -0.000468  -0.000612   0.001091   0.000071
     2  C   -0.086241  -0.004268   0.001790   0.009566  -0.005580  -0.000261
     3  C    0.285549  -0.045436   0.000044  -0.049123  -0.023473  -0.002944
     4  C   -0.113210   0.007911  -0.000025  -0.004373  -0.007881  -0.000074
     5  C    0.001259  -0.000406  -0.000028  -0.000573   0.004389  -0.000014
     6  H    0.007067   0.000073   0.001802   0.000381  -0.003216  -0.000008
     7  H    0.008999  -0.000577  -0.000050  -0.000220  -0.000251  -0.000081
     8  H    0.006568  -0.000172   0.000004  -0.000228   0.000255   0.000035
     9  H   -0.004905   0.000010  -0.000013   0.004983  -0.000191   0.000015
    10  O   -0.004009   0.000288  -0.000010  -0.000129   0.002763   0.000001
    11  O    0.000191  -0.000001   0.000000  -0.000092  -0.000217   0.000000
    12  C   -0.000815   0.000043   0.000015   0.000019   0.000772   0.000011
    13  C    0.000030  -0.000005   0.000000   0.000001  -0.000029   0.000000
    14  C   -0.003079  -0.014002  -0.003873  -0.000496   0.000390   0.000050
    15  O   -0.076825   0.003414   0.000806   0.001380   0.003648   0.008073
    16  Si   0.000675  -0.000365   0.000136   0.000902   0.000198   0.000513
    17  C   -0.000061   0.000009   0.000000   0.000028  -0.000007  -0.000004
    18  C   -0.000258   0.000008   0.000000   0.000035   0.000014   0.000024
    19  C    0.000108  -0.000041  -0.000001  -0.000035   0.000005   0.000087
    20  H   -0.000054   0.000000   0.000000   0.000005   0.000004   0.000002
    21  H   -0.000076   0.000003   0.000000   0.000005   0.000003   0.000004
    22  H    0.000004   0.000000   0.000000   0.000000   0.000000   0.000000
    23  H    0.000000   0.000000   0.000000   0.000000   0.000000   0.000002
    24  H   -0.000003   0.000006  -0.000001   0.000006   0.000001   0.000041
    25  H    0.000104   0.000010  -0.000003  -0.000012  -0.000001   0.000158
    26  H    0.000166  -0.000001   0.000000   0.000074  -0.000009  -0.000008
    27  H   -0.000026   0.000001   0.000000  -0.000039  -0.000002   0.000000
    28  H    0.000006   0.000000   0.000000  -0.000001   0.000000  -0.000001
    29  H    0.002019   0.003595   0.002371   0.000203  -0.000547  -0.000857
    30  H   -0.000597   0.000747   0.000293  -0.000087  -0.000010   0.000246
    31  H   -0.000470   0.000497   0.000181   0.000029  -0.000009   0.000060
    32  H    0.000014  -0.000011   0.000002   0.000000  -0.000027   0.000000
    33  H   -0.000037   0.000006  -0.000001  -0.000003  -0.000013   0.000000
    34  H    0.000015  -0.000001   0.000000   0.000000  -0.000007   0.000000
    35  H    0.000002   0.000000   0.000000   0.000000   0.000001   0.000000
    36  H   -0.000023   0.000002   0.000000   0.000000  -0.000002   0.000000
    37  C    5.483300   0.321658  -0.061742   0.386107   0.379307  -0.050421
    38  C    0.321658   5.054105   0.617292  -0.036990  -0.044661   0.396848
    39  C   -0.061742   0.617292   5.159838  -0.003215   0.002298  -0.038599
    40  H    0.386107  -0.036990  -0.003215   0.461225  -0.023358  -0.000424
    41  H    0.379307  -0.044661   0.002298  -0.023358   0.459960   0.005167
    42  H   -0.050421   0.396848  -0.038599  -0.000424   0.005167   0.457382
    43  H    0.006419  -0.039154   0.393325  -0.000350   0.000090  -0.007823
    44  H   -0.008937  -0.040145   0.387634   0.000293   0.004475   0.005869
              43         44
     1  C    0.000013   0.000125
     2  C   -0.000015  -0.000065
     3  C   -0.000274   0.000106
     4  C    0.000014  -0.000039
     5  C    0.000000  -0.000013
     6  H    0.000003   0.000566
     7  H   -0.000001   0.000005
     8  H   -0.000001   0.000001
     9  H    0.000000   0.000003
    10  O    0.000000  -0.000024
    11  O    0.000000   0.000000
    12  C    0.000000  -0.000002
    13  C    0.000000   0.000000
    14  C    0.000034   0.000081
    15  O    0.000003  -0.000001
    16  Si   0.000003  -0.000003
    17  C    0.000000   0.000000
    18  C    0.000000   0.000000
    19  C    0.000000   0.000000
    20  H    0.000000   0.000000
    21  H    0.000000   0.000000
    22  H    0.000000   0.000000
    23  H    0.000000   0.000000
    24  H    0.000000   0.000000
    25  H   -0.000001   0.000000
    26  H    0.000000   0.000000
    27  H    0.000000   0.000000
    28  H    0.000000   0.000000
    29  H    0.000016  -0.000051
    30  H    0.000001  -0.000010
    31  H   -0.000005   0.000004
    32  H    0.000000   0.000002
    33  H    0.000000  -0.000002
    34  H    0.000000   0.000000
    35  H    0.000000   0.000000
    36  H    0.000000   0.000000
    37  C    0.006419  -0.008937
    38  C   -0.039154  -0.040145
    39  C    0.393325   0.387634
    40  H   -0.000350   0.000293
    41  H    0.000090   0.004475
    42  H   -0.007823   0.005869
    43  H    0.456665  -0.034222
    44  H   -0.034222   0.464550
 Mulliken charges:
               1
     1  C   -0.034311
     2  C   -0.310656
     3  C    0.192389
     4  C   -0.653425
     5  C    0.478874
     6  H    0.254708
     7  H    0.268351
     8  H    0.278689
     9  H    0.278987
    10  O   -0.327263
    11  O   -0.382959
    12  C   -0.443567
    13  C   -0.682444
    14  C   -0.689568
    15  O   -0.636386
    16  Si   1.424798
    17  C   -1.057846
    18  C   -1.082670
    19  C   -1.043208
    20  H    0.248163
    21  H    0.248573
    22  H    0.245330
    23  H    0.233222
    24  H    0.241309
    25  H    0.241971
    26  H    0.243892
    27  H    0.245660
    28  H    0.236563
    29  H    0.246398
    30  H    0.255884
    31  H    0.239212
    32  H    0.241606
    33  H    0.242483
    34  H    0.237258
    35  H    0.236077
    36  H    0.228280
    37  C   -0.477219
    38  C   -0.179046
    39  C   -0.459803
    40  H    0.255116
    41  H    0.244660
    42  H    0.226860
    43  H    0.225259
    44  H    0.219799
 Sum of Mulliken charges =   0.00000
 Mulliken charges with hydrogens summed into heavy atoms:
               1
     1  C    0.220396
     2  C   -0.042305
     3  C    0.192389
     4  C   -0.095749
     5  C    0.478874
    10  O   -0.327263
    11  O   -0.382959
    12  C    0.040522
    13  C    0.019171
    14  C    0.051927
    15  O   -0.636386
    16  Si   1.424798
    17  C   -0.331732
    18  C   -0.340604
    19  C   -0.326706
    37  C    0.022558
    38  C    0.047814
    39  C   -0.014746
 Electronic spatial extent (au):  <R**2>=           5339.1050
 Charge=              0.0000 electrons
 Dipole moment (field-independent basis, Debye):
    X=              2.4846    Y=              0.9611    Z=             -4.2968  Tot=              5.0557
 Quadrupole moment (field-independent basis, Debye-Ang):
   XX=           -119.6653   YY=           -120.8662   ZZ=           -128.9123
   XY=             -9.3452   XZ=             11.5834   YZ=              6.9173
 Traceless Quadrupole moment (field-independent basis, Debye-Ang):
   XX=              3.4826   YY=              2.2817   ZZ=             -5.7643
   XY=             -9.3452   XZ=             11.5834   YZ=              6.9173
 Octapole moment (field-independent basis, Debye-Ang**2):
  XXX=             11.9079  YYY=              0.0988  ZZZ=            -31.3525  XYY=              0.9977
  XXY=              5.1237  XXZ=            -28.8039  XZZ=             20.6674  YZZ=             19.0345
  YYZ=            -11.8592  XYZ=            -17.9756
 Hexadecapole moment (field-independent basis, Debye-Ang**3):
 XXXX=          -3696.8270 YYYY=          -2023.2985 ZZZZ=          -1552.9531 XXXY=            -60.1302
 XXXZ=             56.7072 YYYX=            -13.9824 YYYZ=            -53.5752 ZZZX=             71.4919
 ZZZY=             57.6243 XXYY=           -954.9604 XXZZ=           -925.1134 YYZZ=           -634.4812
 XXYZ=             64.5062 YYXZ=              8.0931 ZZXY=            -29.7716
 N-N= 1.632160760211D+03 E-N=-5.759327275293D+03  KE= 1.060529847000D+03
 1\1\GINC-CPU-E-532\SP\RmPW1PW91\6-311G(d)\C14H26O3Si1\KE291\06-Feb-201
 9\0\\# mPW1PW91/6-311g(d) geom=checkpoint nmr=giao scrf=(solvent=chlor
 oform)\\P_ng_correct1ginp016\\0,1\C,0,1.0346124381,-0.1532422437,0.894
 8387471\C,0,-0.4976844645,-0.2414444874,0.8771420611\C,0,-1.1170421018
 ,1.0221550892,1.5411447841\C,0,-0.6622668668,2.2136105824,0.6800699695
 \C,0,0.8341150959,2.2884150325,0.4343190438\H,0,1.3782079354,-0.264490
 563,1.9304870837\H,0,-0.828112572,-0.2021098211,-0.1684401392\H,0,-1.1
 232891192,2.1443753795,-0.3125207008\H,0,-0.9711132601,3.1686274457,1.
 1109435306\O,0,1.5502496763,1.1458789106,0.454996264\O,0,1.3988048907,
 3.3277125914,0.1640344958\C,0,1.7729003631,-1.1900265189,0.0397294562\
 C,0,1.413466351,-1.1876964092,-1.4490356171\C,0,-0.9730408525,-1.58117
 03519,1.4576191778\O,0,-2.5360736039,0.912456221,1.5689702323\Si,0,-3.
 8058429354,1.2060424077,0.5022415656\C,0,-4.1070425147,3.0578628235,0.
 3005796268\C,0,-3.5240866427,0.4123464535,-1.1886306089\C,0,-5.2834972
 786,0.4107124371,1.3507785223\H,0,-2.688466782,0.8591842766,-1.7378693
 298\H,0,-3.333425709,-0.662231934,-1.0993881372\H,0,-4.4211096925,0.53
 89868756,-1.8063254297\H,0,-6.1978212674,0.5640199716,0.7667470078\H,0
 ,-5.1406288658,-0.6679690857,1.4728759571\H,0,-5.4450327575,0.84225590
 68,2.34406115\H,0,-4.2324507942,3.5429156434,1.2745350373\H,0,-3.29091
 41795,3.5641291854,-0.2240947653\H,0,-5.0242495654,3.2282864346,-0.275
 2744887\H,0,-0.5276378336,-1.7853446113,2.4340349857\H,0,-2.0580574606
 ,-1.5709248356,1.5794180739\H,0,-0.7181658206,-2.4049872706,0.78488210
 18\H,0,1.5950098502,-2.1795363422,0.4743642437\H,0,2.8441533528,-0.992
 2874247,0.1571626682\H,0,1.5475102836,-0.1922216426,-1.8828030177\H,0,
 2.0604059194,-1.8798397374,-1.9959951852\H,0,0.3789503045,-1.499073337
 7,-1.625228181\C,0,-0.6806340238,1.2926154827,3.0079841454\C,0,-1.1063
 835064,0.2857167453,4.0408320799\C,0,-0.315944243,-0.1974739276,5.0010
 623134\H,0,-1.1365515138,2.2586764971,3.2663330206\H,0,0.4038304859,1.
 4423439316,3.0584002967\H,0,-2.1507486944,-0.0169600347,3.999984062\H,
 0,-0.688299631,-0.8912553632,5.749197991\H,0,0.731162606,0.0870936179,
 5.0797549055\\Version=ES64L-G09RevD.01\State=1-A\HF=-1064.382121\RMSD=
 9.304e-09\Dipole=-1.314361,-1.4928286,0.0150372\Quadrupole=-1.5328717,
 -1.856659,3.3895307,-10.8530167,5.4958393,2.4956876\PG=C01 [X(C14H26O3
 Si1)]\\@


 IT IS A PROFOUNDLY ERRONEOUS TRUISM ... THAT WE SHOULD CULTIVATE
 THE HABIT OF THINKING OF WHAT WE ARE DOING.
 THE PRECISE OPPOSITE IS THE CASE.
 CIVILIZATION ADVANCES BY EXTENDING THE NUMBER OF IMPORTANT OPERATIONS
 WHICH WE CAN PERFORM WITHOUT THINKING ABOUT THEM.

                                    -- ALFRED NORTH WHITEHEAD
 Job cpu time:       0 days  0 hours 20 minutes 57.4 seconds.
 File lengths (MBytes):  RWF=    236 Int=      0 D2E=      0 Chk=     19 Scr=      1
 Normal termination of Gaussian 09 at Wed Feb  6 11:32:45 2019.
