 Entering Gaussian System, Link 0=/usr/local/shared/gaussian/em64t/09-D01/g09/g09
 Initial command:
 /usr/local/shared/gaussian/em64t/09-D01/g09/l1.exe "/scratch/ke291/P_ng_2ginp018/Gau-15992.inp" -scrdir="/scratch/ke291/P_ng_2ginp018/"
 Entering Link 1 = /usr/local/shared/gaussian/em64t/09-D01/g09/l1.exe PID=     15996.
  
 Copyright (c) 1988,1990,1992,1993,1995,1998,2003,2009,2013,
            Gaussian, Inc.  All Rights Reserved.
  
 This is part of the Gaussian(R) 09 program.  It is based on
 the Gaussian(R) 03 system (copyright 2003, Gaussian, Inc.),
 the Gaussian(R) 98 system (copyright 1998, Gaussian, Inc.),
 the Gaussian(R) 94 system (copyright 1995, Gaussian, Inc.),
 the Gaussian 92(TM) system (copyright 1992, Gaussian, Inc.),
 the Gaussian 90(TM) system (copyright 1990, Gaussian, Inc.),
 the Gaussian 88(TM) system (copyright 1988, Gaussian, Inc.),
 the Gaussian 86(TM) system (copyright 1986, Carnegie Mellon
 University), and the Gaussian 82(TM) system (copyright 1983,
 Carnegie Mellon University). Gaussian is a federally registered
 trademark of Gaussian, Inc.
  
 This software contains proprietary and confidential information,
 including trade secrets, belonging to Gaussian, Inc.
  
 This software is provided under written license and may be
 used, copied, transmitted, or stored only in accord with that
 written license.
  
 The following legend is applicable only to US Government
 contracts under FAR:
  
                    RESTRICTED RIGHTS LEGEND
  
 Use, reproduction and disclosure by the US Government is
 subject to restrictions as set forth in subparagraphs (a)
 and (c) of the Commercial Computer Software - Restricted
 Rights clause in FAR 52.227-19.
  
 Gaussian, Inc.
 340 Quinnipiac St., Bldg. 40, Wallingford CT 06492
  
  
 ---------------------------------------------------------------
 Warning -- This program may not be used in any manner that
 competes with the business of Gaussian, Inc. or will provide
 assistance to any competitor of Gaussian, Inc.  The licensee
 of this program is prohibited from giving any competitor of
 Gaussian, Inc. access to this program.  By using this program,
 the user acknowledges that Gaussian, Inc. is engaged in the
 business of creating and licensing software in the field of
 computational chemistry and represents and warrants to the
 licensee that it is not a competitor of Gaussian, Inc. and that
 it will not use this program in any manner prohibited above.
 ---------------------------------------------------------------
  

 Cite this work as:
 Gaussian 09, Revision D.01,
 M. J. Frisch, G. W. Trucks, H. B. Schlegel, G. E. Scuseria, 
 M. A. Robb, J. R. Cheeseman, G. Scalmani, V. Barone, B. Mennucci, 
 G. A. Petersson, H. Nakatsuji, M. Caricato, X. Li, H. P. Hratchian, 
 A. F. Izmaylov, J. Bloino, G. Zheng, J. L. Sonnenberg, M. Hada, 
 M. Ehara, K. Toyota, R. Fukuda, J. Hasegawa, M. Ishida, T. Nakajima, 
 Y. Honda, O. Kitao, H. Nakai, T. Vreven, J. A. Montgomery, Jr., 
 J. E. Peralta, F. Ogliaro, M. Bearpark, J. J. Heyd, E. Brothers, 
 K. N. Kudin, V. N. Staroverov, T. Keith, R. Kobayashi, J. Normand, 
 K. Raghavachari, A. Rendell, J. C. Burant, S. S. Iyengar, J. Tomasi, 
 M. Cossi, N. Rega, J. M. Millam, M. Klene, J. E. Knox, J. B. Cross, 
 V. Bakken, C. Adamo, J. Jaramillo, R. Gomperts, R. E. Stratmann, 
 O. Yazyev, A. J. Austin, R. Cammi, C. Pomelli, J. W. Ochterski, 
 R. L. Martin, K. Morokuma, V. G. Zakrzewski, G. A. Voth, 
 P. Salvador, J. J. Dannenberg, S. Dapprich, A. D. Daniels, 
 O. Farkas, J. B. Foresman, J. V. Ortiz, J. Cioslowski, 
 and D. J. Fox, Gaussian, Inc., Wallingford CT, 2013.
 
 ******************************************
 Gaussian 09:  EM64L-G09RevD.01 24-Apr-2013
                 6-Feb-2019 
 ******************************************
 %nprocshared=2
 Will use up to    2 processors via shared memory.
 %mem=6000MB
 %chk=P_ng_2ginp018.chk
 ----------------------------------------------------------------------
 # mPW1PW91/6-311g(d) geom=checkpoint nmr=giao scrf=(solvent=chloroform
 )
 ----------------------------------------------------------------------
 1/29=2,38=1/1;
 2/12=2,40=1/2;
 3/5=4,6=6,7=1,11=2,14=-4,16=1,25=1,30=1,70=2201,72=7,74=-7/1,2,8,3;
 4//1;
 5/5=2,38=5,53=7/2;
 8/6=1,10=90,11=11/1;
 10/13=100,45=16/2;
 6/7=2,8=2,9=2,10=2,28=1/1;
 99/9=1/99;
 -------------
 P_ng_2ginp018
 -------------
 Structure from the checkpoint file:  "P_ng_2ginp018.chk"
 Charge =  0 Multiplicity = 1
 Redundant internal coordinates found in file.
 C,0,-0.0445666594,0.2281380676,0.9562205275
 C,0,-0.9849953729,1.3179151687,0.4142610512
 C,0,-2.2423108443,1.4808854711,1.3153564252
 C,0,-1.7427153169,1.8307201876,2.7239960843
 C,0,-0.6929273409,0.8866450325,3.276301031
 H,0,-0.4711532831,-0.7571198088,0.72744936
 H,0,-0.4542660619,2.2778356491,0.472956312
 H,0,-1.2738140349,2.8220893566,2.7096788033
 H,0,-2.559958148,1.8660453758,3.4463061868
 O,0,0.1127160228,0.2390571006,2.4103376721
 O,0,-0.5113493257,0.7337673473,4.4661252512
 C,0,1.3744876497,0.2976560724,0.3864838851
 C,0,2.2834901846,-0.8430411259,0.853945962
 C,0,-1.3256573463,1.0551973662,-1.0609867235
 O,0,-3.0740203771,2.5090697835,0.7849788106
 Si,0,-3.1754992207,4.1848821312,0.9037387546
 C,0,-4.4036245866,4.6449959066,-0.444577486
 C,0,-3.8439518575,4.7063349978,2.589048579
 C,0,-1.5200239087,5.0343250946,0.5775067674
 H,0,-4.0442404989,5.7842086615,2.5968722313
 H,0,-4.784728426,4.1927320647,2.8138689388
 H,0,-3.1446916629,4.4962659342,3.4043354796
 H,0,-1.6612329235,6.1216719593,0.5795135738
 H,0,-0.7629890749,4.8065604604,1.3352268377
 H,0,-1.1124479273,4.7571309935,-0.4004321667
 H,0,-4.5837245892,5.7257539814,-0.4563531541
 H,0,-4.0316899837,4.3563760322,-1.4331709938
 H,0,-5.3666580847,4.147371945,-0.2902685192
 H,0,-2.1227440268,1.7280741909,-1.3831803407
 H,0,-0.459514838,1.2270398155,-1.7045599357
 H,0,-1.6618705387,0.0263392993,-1.2260225725
 H,0,1.8086194788,1.2666289691,0.6632706279
 H,0,1.304301922,0.2830714798,-0.7061769431
 H,0,2.3941689335,-0.8397264607,1.9409617655
 H,0,1.8771160284,-1.8170780853,0.5591317029
 H,0,3.2785969403,-0.7486646731,0.4090295471
 C,0,-3.1154273395,0.1968052145,1.3448894476
 C,0,-4.3613696564,0.3236465881,2.1786219649
 C,0,-4.6610618804,-0.4510523134,3.2225563919
 H,0,-2.5203613546,-0.6491466479,1.7065823644
 H,0,-3.4007480538,-0.0259081581,0.3097867597
 H,0,-5.0527226564,1.1079987495,1.8767693445
 H,0,-5.583825764,-0.3227516399,3.7809895887
 H,0,-3.9968341954,-1.2453945353,3.5558468057
 Recover connectivity data from disk.
                          Input orientation:                          
 ---------------------------------------------------------------------
 Center     Atomic      Atomic             Coordinates (Angstroms)
 Number     Number       Type             X           Y           Z
 ---------------------------------------------------------------------
      1          6           0       -0.044567    0.228138    0.956221
      2          6           0       -0.984995    1.317915    0.414261
      3          6           0       -2.242311    1.480885    1.315356
      4          6           0       -1.742715    1.830720    2.723996
      5          6           0       -0.692927    0.886645    3.276301
      6          1           0       -0.471153   -0.757120    0.727449
      7          1           0       -0.454266    2.277836    0.472956
      8          1           0       -1.273814    2.822089    2.709679
      9          1           0       -2.559958    1.866045    3.446306
     10          8           0        0.112716    0.239057    2.410338
     11          8           0       -0.511349    0.733767    4.466125
     12          6           0        1.374488    0.297656    0.386484
     13          6           0        2.283490   -0.843041    0.853946
     14          6           0       -1.325657    1.055197   -1.060987
     15          8           0       -3.074020    2.509070    0.784979
     16         14           0       -3.175499    4.184882    0.903739
     17          6           0       -4.403625    4.644996   -0.444577
     18          6           0       -3.843952    4.706335    2.589049
     19          6           0       -1.520024    5.034325    0.577507
     20          1           0       -4.044240    5.784209    2.596872
     21          1           0       -4.784728    4.192732    2.813869
     22          1           0       -3.144692    4.496266    3.404335
     23          1           0       -1.661233    6.121672    0.579514
     24          1           0       -0.762989    4.806560    1.335227
     25          1           0       -1.112448    4.757131   -0.400432
     26          1           0       -4.583725    5.725754   -0.456353
     27          1           0       -4.031690    4.356376   -1.433171
     28          1           0       -5.366658    4.147372   -0.290269
     29          1           0       -2.122744    1.728074   -1.383180
     30          1           0       -0.459515    1.227040   -1.704560
     31          1           0       -1.661871    0.026339   -1.226023
     32          1           0        1.808619    1.266629    0.663271
     33          1           0        1.304302    0.283071   -0.706177
     34          1           0        2.394169   -0.839726    1.940962
     35          1           0        1.877116   -1.817078    0.559132
     36          1           0        3.278597   -0.748665    0.409030
     37          6           0       -3.115427    0.196805    1.344889
     38          6           0       -4.361370    0.323647    2.178622
     39          6           0       -4.661062   -0.451052    3.222556
     40          1           0       -2.520361   -0.649147    1.706582
     41          1           0       -3.400748   -0.025908    0.309787
     42          1           0       -5.052723    1.107999    1.876769
     43          1           0       -5.583826   -0.322752    3.780990
     44          1           0       -3.996834   -1.245395    3.555847
 ---------------------------------------------------------------------
                    Distance matrix (angstroms):
                    1          2          3          4          5
     1  C    0.000000
     2  C    1.538096   0.000000
     3  C    2.555080   1.555434   0.000000
     4  C    2.928653   2.484348   1.535007   0.000000
     5  C    2.497354   2.909050   2.568855   1.516039   0.000000
     6  H    1.097746   2.160530   2.913984   3.507133   3.041018
     7  H    2.145381   1.098438   2.131167   2.631956   3.138648
     8  H    3.363666   2.759511   2.163550   1.096762   2.098675
     9  H    3.900059   3.460383   2.188651   1.091268   2.115167
    10  O    1.462639   2.520561   2.878762   2.464629   1.348452
    11  O    3.576727   4.121065   3.671751   2.398871   1.213270
    12  C    1.530734   2.570770   3.917150   4.187028   3.601688
    13  C    2.564709   3.942848   5.108464   5.182318   4.209356
    14  C    2.528704   1.536694   2.582338   3.886061   4.386436
    15  O    3.795993   2.433168   1.424852   2.447921   3.809009
    16  Si   5.045921   3.641071   2.889960   3.302769   4.761364
    17  C    6.361781   4.847071   4.216662   5.004043   6.460605
    18  C    6.095548   4.938089   3.819826   3.564066   4.999130
    19  C    5.041808   3.758272   3.700413   3.862654   5.017054
    20  H    7.039819   5.836998   4.838163   4.576380   5.973195
    21  H    6.452751   5.334853   4.007934   3.852405   5.280804
    22  H    5.815579   4.868957   3.777651   3.087642   4.365421
    23  H    6.122847   4.853935   4.734555   4.797678   5.967896
    24  H    4.649917   3.614984   3.639904   3.426977   4.374747
    25  H    4.846922   3.536690   3.867080   4.327028   5.354907
    26  H    7.267950   5.756550   5.161403   5.775573   7.244859
    27  H    6.216807   4.682691   4.361734   5.375907   6.735391
    28  H    6.725978   5.263189   4.410184   5.252202   6.722836
    29  H    3.470076   2.166448   2.712471   4.125998   4.946023
    30  H    2.872236   2.184901   3.516062   4.650069   4.997932
    31  H    2.723707   2.194734   2.985167   4.343383   4.685071
    32  H    2.144430   2.805160   4.108669   4.144486   3.637314
    33  H    2.141502   2.750848   4.254388   4.842067   4.495927
    34  H    2.838570   4.290103   5.222410   4.985804   3.780695
    35  H    2.834335   4.247452   5.330865   5.576401   4.615003
    36  H    3.506705   4.738037   6.022686   6.101301   5.164154
    37  C    3.095518   2.581026   1.553083   2.540856   3.174072
    38  C    4.487558   3.937187   2.564145   3.070188   3.870315
    39  C    5.187447   4.952700   3.635953   3.737886   4.187889
    40  H    2.731708   2.810120   2.183439   2.790986   2.856954
    41  H    3.427298   2.766340   2.150250   3.467643   4.118890
    42  H    5.167513   4.327748   2.890094   3.492316   4.584267
    43  H    6.242291   5.930927   4.527491   4.528665   5.063422
    44  H    4.954773   5.050870   3.940908   3.903269   3.942022
                    6          7          8          9         10
     6  H    0.000000
     7  H    3.045654   0.000000
     8  H    4.169441   2.443522   0.000000
     9  H    4.316976   3.666650   1.763748   0.000000
    10  O    2.040927   2.869065   2.946884   3.295984   0.000000
    11  O    4.025178   4.281682   2.833292   2.553210   2.204645
    12  C    2.152951   2.696837   4.333994   5.225153   2.385683
    13  C    2.758885   4.168973   5.434274   6.125232   2.881935
    14  C    2.685735   2.146427   4.164434   4.743065   3.845139
    15  O    4.176867   2.648384   2.653902   2.785750   4.236749
    16  Si   5.636306   3.350748   2.955508   3.495789   5.352732
    17  C    6.783866   4.694971   4.802919   5.124514   6.925328
    18  C    6.685107   4.676048   3.189129   3.232766   5.970237
    19  C    5.887567   2.957195   3.082331   4.398803   5.386994
    20  H    7.684444   5.449182   4.057356   4.275118   6.932805
    21  H    6.889202   5.282008   3.770416   3.280709   6.307087
    22  H    6.473916   4.555525   2.604918   2.694761   5.451840
    23  H    6.982546   4.030285   3.946510   5.209277   6.411238
    24  H    5.604382   2.689474   2.467425   4.041334   4.773344
    25  H    5.664833   2.709782   3.666499   5.025043   5.460261
    26  H    7.768030   5.459321   5.423148   5.850105   7.770348
    27  H    6.594963   4.555394   5.207986   5.672481   6.992923
    28  H    7.003981   5.311240   5.244753   5.200385   7.252016
    29  H    3.654955   2.555641   4.320769   4.851199   4.648143
    30  H    3.138741   2.417804   4.763693   5.599251   4.270356
    31  H    2.418195   3.068236   4.843196   5.101150   4.051854
    32  H    3.049105   2.485842   4.013557   5.214313   2.642770
    33  H    2.507892   2.908952   4.976079   5.889094   3.336836
    34  H    3.112797   4.470773   5.239649   5.842143   2.566927
    35  H    2.581901   4.712864   6.006254   6.448938   3.281427
    36  H    3.763255   4.806044   6.226373   7.081701   3.873452
    37  C    2.878088   3.488945   3.485155   2.740595   3.399687
    38  C    4.290424   4.689734   4.007148   2.689071   4.480881
    39  C    4.886161   5.718764   4.738138   3.135864   4.891309
    40  H    2.273678   3.789170   3.822246   3.058496   2.866579
    41  H    3.048219   3.743744   4.288872   3.758214   4.102067
    42  H    5.078423   4.948233   4.232257   3.041703   5.265122
    43  H    5.970947   6.634646   5.441869   3.747882   5.885992
    44  H    4.546281   5.870873   4.967420   3.428946   4.517100
                   11         12         13         14         15
    11  O    0.000000
    12  C    4.515534   0.000000
    13  C    4.831697   1.531665   0.000000
    14  C    5.596015   3.155919   4.505133   0.000000
    15  O    4.823880   4.983811   6.320152   2.928841   0.000000
    16  Si   5.630141   6.006701   7.421796   4.132431   1.683077
    17  C    7.386644   7.278503   8.747698   4.768700   2.800328
    18  C    5.514612   7.177733   8.446994   5.744160   2.945409
    19  C    5.885030   5.554342   7.006181   4.307656   2.972350
    20  H    6.440682   8.021888   9.327294   6.567661   3.866629
    21  H    5.740745   7.681130   8.897192   6.068262   3.142871
    22  H    4.713628   6.867222   8.029810   5.923592   3.288613
    23  H    6.742218   6.570542   8.008956   5.336011   3.884466
    24  H    5.143296   5.079285   6.436666   4.486776   3.304860
    25  H    6.342882   5.166334   6.668417   3.766444   3.210412
    26  H    8.107710   8.104006   9.592945   5.726664   3.763930
    27  H    7.766453   7.000793   8.493900   4.284730   3.041358
    28  H    7.605919   7.792391   9.205336   5.146381   3.016020
    29  H    6.148139   4.172342   5.570482   1.091750   2.493150
    30  H    6.190586   2.932539   4.284304   1.092666   3.831063
    31  H    5.850188   3.448661   4.544003   1.094909   3.493171
    32  H    4.486413   1.097265   2.170845   3.583498   5.039707
    33  H    5.500221   1.095010   2.158917   2.763830   5.133061
    34  H    4.158650   2.179401   1.092641   5.141939   6.515507
    35  H    5.241772   2.180491   1.095812   4.597011   6.578778
    36  H    5.746418   2.172770   1.094118   5.158878   7.149120
    37  C    4.100203   4.592173   5.520020   3.119031   2.379450
    38  C    4.497058   6.009367   6.875325   4.499531   2.894060
    39  C    4.491144   6.710569   7.347841   5.634044   4.150037
    40  H    3.682887   4.220064   4.882783   3.462881   3.336199
    41  H    5.118680   4.786800   5.768395   2.711791   2.599745
    42  H    5.241077   6.647303   7.659814   4.745968   2.658998
    43  H    5.226439   7.766962   8.410288   6.593594   4.826429
    44  H    4.110267   6.424715   6.848696   5.808878   4.756606
                   16         17         18         19         20
    16  Si   0.000000
    17  C    1.880945   0.000000
    18  C    1.886534   3.085431   0.000000
    19  C    1.889068   3.084054   3.091039   0.000000
    20  H    2.485811   3.267626   1.096352   3.318408   0.000000
    21  H    2.497654   3.311685   1.095168   4.045725   1.768674
    22  H    2.520098   4.052304   1.094434   3.304544   1.766347
    23  H    2.479774   3.278726   3.287198   1.096479   3.140437
    24  H    2.528413   4.055618   3.327829   1.095043   3.648857
    25  H    2.506893   3.293382   4.049776   1.095134   4.316727
    26  H    2.491432   1.095725   3.295596   3.306539   3.101072
    27  H    2.494718   1.094968   4.041778   3.287994   4.275525
    28  H    2.495644   1.094931   3.304775   4.041821   3.572619
    29  H    3.517698   3.819925   5.254636   3.890869   5.998766
    30  H    4.788384   5.368983   6.480354   4.563763   7.219444
    31  H    4.911256   5.427694   6.420172   5.324731   7.310490
    32  H    5.780611   7.157700   6.891427   5.028196   7.642206
    33  H    6.155045   7.188550   7.545084   5.674423   8.353415
    34  H    7.572564   9.054445   8.372154   7.189186   9.260661
    35  H    7.853101   9.067168   8.911010   7.647393   9.848574
    36  H    8.138795   9.425325   9.232562   7.516523  10.054304
    37  C    4.012852   4.964680   4.734400   5.151290   5.800796
    38  C    4.235653   5.055395   4.432170   5.729512   5.485731
    39  C    5.392189   6.283618   5.260004   6.852136   6.296859
    40  H    4.943844   6.016819   5.586754   5.880250   6.671048
    41  H    4.258435   4.836545   5.271204   5.405068   6.277125
    42  H    3.733359   4.280225   3.862188   5.439125   4.837615
    43  H    5.864927   6.627730   5.453402   7.448158   6.408387
    44  H    6.098867   7.132010   6.031679   7.378345   7.094871
                   21         22         23         24         25
    21  H    0.000000
    22  H    1.769323   0.000000
    23  H    4.297601   3.580812   0.000000
    24  H    4.328690   3.170174   1.762800   0.000000
    25  H    4.912832   4.321380   1.767323   1.771180   0.000000
    26  H    3.617307   4.299695   3.125816   4.318877   3.604320
    27  H    4.316387   4.920143   3.575785   4.307099   3.122359
    28  H    3.158539   4.325386   4.287722   4.926513   4.299098
    29  H    5.547605   5.623839   4.834135   4.326170   3.340910
    30  H    6.922355   6.633161   5.533402   4.705887   3.819504
    31  H    6.590280   6.604485   6.357125   5.497136   4.833617
    32  H    7.527243   6.517613   5.968110   4.426716   4.674153
    33  H    8.046891   7.378405   6.673579   5.376149   5.094249
    34  H    8.810458   7.829001   8.170734   6.497316   7.007375
    35  H    9.251045   8.554066   8.691610   7.172522   7.285498
    36  H    9.757964   8.817017   8.463599   6.932012   7.088744
    37  C    4.572953   4.767341   6.148539   5.175317   5.277750
    38  C    3.943678   4.515909   6.592798   5.810006   6.071474
    39  C    4.663373   5.177681   7.693202   6.811716   7.269380
    40  H    5.458684   5.454120   6.917541   5.743779   5.970726
    41  H    5.097328   5.485604   6.394639   5.600183   5.349597
    42  H    3.235051   4.177846   6.190476   5.689854   5.833316
    43  H    4.686520   5.414257   8.195534   7.451984   7.955043
    44  H    5.544775   5.806528   8.281743   7.212147   7.746105
                   26         27         28         29         30
    26  H    0.000000
    27  H    1.770342   0.000000
    28  H    1.769706   1.769759   0.000000
    29  H    4.785068   3.248776   4.191710   0.000000
    30  H    6.229411   4.756767   5.882909   1.766537   0.000000
    31  H    6.450810   4.940463   5.619964   1.770030   1.765316
    32  H    7.873971   6.931870   7.790541   4.456065   3.279119
    33  H    8.022098   6.752269   7.720590   3.780345   2.235821
    34  H    9.876419   8.926137   9.491047   6.168146   5.069996
    35  H    9.983386   8.774668   9.421699   5.686788   4.455423
    36  H   10.221697   9.104693   9.959951   6.206508   4.726960
    37  C    5.997470   5.085193   4.832055   3.282159   4.173056
    38  C    6.014591   5.423711   4.661212   4.435121   5.578503
    39  C    7.189805   6.721850   5.829521   5.692492   6.689205
    40  H    7.040960   6.098969   5.924138   3.918662   4.404890
    41  H    5.921826   4.758193   4.652003   2.752433   3.778667
    42  H    5.194909   4.748702   3.745984   4.426798   5.825603
    43  H    7.452496   7.175711   6.050150   6.546268   7.664964
    44  H    8.064682   7.501423   6.763945   6.061990   6.804222
                   31         32         33         34         35
    31  H    0.000000
    32  H    4.141503   0.000000
    33  H    3.022305   1.759860   0.000000
    34  H    5.218363   2.532212   3.075033   0.000000
    35  H    4.371429   3.086225   2.517886   1.769750   0.000000
    36  H    5.261392   2.507365   2.491186   1.771249   1.768668
    37  C    2.958289   5.084817   4.873225   5.637850   5.440462
    38  C    4.355145   6.422949   6.357951   6.859098   6.791477
    39  C    5.386363   7.166390   7.180491   7.181214   7.190802
    40  H    3.129450   4.847553   4.617195   4.923806   4.692389
    41  H    2.320589   5.378951   4.823396   6.074874   5.579096
    42  H    4.721778   6.969631   6.911142   7.697659   7.636420
    43  H    6.369754   8.178909   8.243057   8.203741   8.263113
    44  H    5.471347   6.955613   6.971592   6.604343   6.618944
                   36         37         38         39         40
    36  H    0.000000
    37  C    6.530949   0.000000
    38  C    7.915200   1.504517   0.000000
    39  C    8.428682   2.516811   1.334081   0.000000
    40  H    5.943186   1.095701   2.135055   2.630593   0.000000
    41  H    6.719068   1.096561   2.130147   3.202088   1.764807
    42  H    8.660967   2.205965   1.088252   2.096469   3.086969
    43  H    9.491789   3.506781   2.116557   1.086187   3.714097
    44  H    7.942361   2.783011   2.119322   1.087778   2.440341
                   41         42         43         44
    41  H    0.000000
    42  H    2.543659   0.000000
    43  H    4.111349   2.440322   0.000000
    44  H    3.518433   3.077769   1.849460   0.000000
 Stoichiometry    C14H26O3Si
 Framework group  C1[X(C14H26O3Si)]
 Deg. of freedom   126
 Full point group                 C1      NOp   1
 Largest Abelian subgroup         C1      NOp   1
 Largest concise Abelian subgroup C1      NOp   1
                         Standard orientation:                         
 ---------------------------------------------------------------------
 Center     Atomic      Atomic             Coordinates (Angstroms)
 Number     Number       Type             X           Y           Z
 ---------------------------------------------------------------------
      1          6           0       -2.313998   -0.552404   -0.369095
      2          6           0       -0.840825   -0.935031   -0.590670
      3          6           0        0.097988    0.290148   -0.398469
      4          6           0       -0.130545    0.811491    1.027090
      5          6           0       -1.581536    1.071038    1.381537
      6          1           0       -2.674791    0.000141   -1.246345
      7          1           0       -0.558266   -1.648618    0.195155
      8          1           0        0.223982    0.066591    1.749808
      9          1           0        0.419544    1.735372    1.213401
     10          8           0       -2.536917    0.350884    0.759485
     11          8           0       -1.914128    1.859363    2.241741
     12          6           0       -3.233860   -1.751649   -0.126581
     13          6           0       -4.713886   -1.378203    0.000131
     14          6           0       -0.659989   -1.630908   -1.948787
     15          8           0        1.449724   -0.114270   -0.597113
     16         14           0        2.676561   -0.786732    0.338523
     17          6           0        3.983534   -1.259518   -0.928856
     18          6           0        3.379736    0.479713    1.547107
     19          6           0        2.109621   -2.325308    1.276576
     20          1           0        4.270915    0.074127    2.040350
     21          1           0        3.677269    1.395936    1.026144
     22          1           0        2.667770    0.756392    2.330905
     23          1           0        2.965619   -2.771753    1.796404
     24          1           0        1.348739   -2.111051    2.034382
     25          1           0        1.705147   -3.083219    0.597392
     26          1           0        4.863876   -1.690941   -0.439484
     27          1           0        3.597467   -1.999709   -1.637392
     28          1           0        4.313800   -0.387066   -1.502116
     29          1           0        0.403314   -1.740304   -2.170908
     30          1           0       -1.107538   -2.627709   -1.946213
     31          1           0       -1.120843   -1.063138   -2.763695
     32          1           0       -2.893670   -2.267616    0.780083
     33          1           0       -3.105097   -2.453570   -0.957106
     34          1           0       -4.878964   -0.696844    0.838202
     35          1           0       -5.075972   -0.887300   -0.910205
     36          1           0       -5.323560   -2.272247    0.161621
     37          6           0       -0.172125    1.407835   -1.442443
     38          6           0        0.738933    2.598166   -1.313391
     39          6           0        0.330335    3.850138   -1.100351
     40          1           0       -1.214432    1.738291   -1.372042
     41          1           0       -0.038804    0.963423   -2.436008
     42          1           0        1.802427    2.391036   -1.415229
     43          1           0        1.033738    4.674742   -1.029252
     44          1           0       -0.723259    4.098427   -0.992872
 ---------------------------------------------------------------------
 Rotational constants (GHZ):      0.4796393      0.2695784      0.2303044
 Standard basis: 6-311G(d) (5D, 7F)
 There are   428 symmetry adapted cartesian basis functions of A   symmetry.
 There are   410 symmetry adapted basis functions of A   symmetry.
   410 basis functions,   720 primitive gaussians,   428 cartesian basis functions
    74 alpha electrons       74 beta electrons
       nuclear repulsion energy      1622.7911806215 Hartrees.
 NAtoms=   44 NActive=   44 NUniq=   44 SFac= 1.00D+00 NAtFMM=   60 NAOKFM=F Big=F
 Integral buffers will be    131072 words long.
 Raffenetti 2 integral format.
 Two-electron integral symmetry is turned on.
 ------------------------------------------------------------------------------
 Polarizable Continuum Model (PCM)
 =================================
 Model                : PCM (using non-symmetric T matrix).
 Atomic radii         : UFF (Universal Force Field).
 Polarization charges : Total charges.
 Charge compensation  : None.
 Solution method      : On-the-fly selection.
 Cavity type          : Scaled VdW (van der Waals Surface) (Alpha=1.100).
 Cavity algorithm     : GePol (No added spheres)
                        Default sphere list used, NSphG=   44.
                        Lebedev-Laikov grids with approx.  5.0 points / Ang**2.
                        Smoothing algorithm: Karplus/York (Gamma=1.0000).
                        Polarization charges: spherical gaussians, with
                                              point-specific exponents (IZeta= 3).
                        Self-potential: point-specific (ISelfS= 7).
                        Self-field    : sphere-specific E.n sum rule (ISelfD= 2).
 Solvent              : Chloroform, Eps=   4.711300 Eps(inf)=   2.090627
 ------------------------------------------------------------------------------
 One-electron integrals computed using PRISM.
 NBasis=   410 RedAO= T EigKep=  1.08D-03  NBF=   410
 NBsUse=   410 1.00D-06 EigRej= -1.00D+00 NBFU=   410
 ExpMin= 6.54D-02 ExpMax= 6.94D+04 ExpMxC= 2.33D+03 IAcc=2 IRadAn=         4 AccDes= 0.00D+00
 Harris functional with IExCor=  908 and IRadAn=       4 diagonalized for initial guess.
 HarFok:  IExCor=  908 AccDes= 0.00D+00 IRadAn=         4 IDoV= 1 UseB2=F ITyADJ=14
 ICtDFT=  3500011 ScaDFX=  1.000000  1.000000  1.000000  1.000000
 FoFCou: FMM=F IPFlag=           0 FMFlag=      100000 FMFlg1=           0
         NFxFlg=           0 DoJE=T BraDBF=F KetDBF=T FulRan=T
         wScrn=  0.000000 ICntrl=     500 IOpCl=  0 I1Cent=   200000004 NGrid=           0
         NMat0=    1 NMatS0=      1 NMatT0=    0 NMatD0=    1 NMtDS0=    0 NMtDT0=    0
 Petite list used in FoFCou.
 Requested convergence on RMS density matrix=1.00D-08 within 128 cycles.
 Requested convergence on MAX density matrix=1.00D-06.
 Requested convergence on             energy=1.00D-06.
 No special actions if energy rises.
 Inv3:  Mode=1 IEnd=    26267043.
 Iteration    1 A*A^-1 deviation from unit magnitude is 7.99D-15 for   2926.
 Iteration    1 A*A^-1 deviation from orthogonality  is 6.25D-15 for   2257   2213.
 Iteration    1 A^-1*A deviation from unit magnitude is 8.44D-15 for   2926.
 Iteration    1 A^-1*A deviation from orthogonality  is 1.77D-10 for   2896   2269.
 Iteration    2 A*A^-1 deviation from unit magnitude is 9.10D-15 for     62.
 Iteration    2 A*A^-1 deviation from orthogonality  is 9.99D-15 for   2245    292.
 Iteration    2 A^-1*A deviation from unit magnitude is 1.33D-15 for    340.
 Iteration    2 A^-1*A deviation from orthogonality  is 6.66D-16 for   2090    371.
 Error on total polarization charges =  0.01147
 SCF Done:  E(RmPW1PW91) =  -1064.38514135     A.U. after   12 cycles
            NFock= 12  Conv=0.97D-08     -V/T= 2.0036
 DoSCS=F DFT=T ScalE2(SS,OS)=  1.000000  1.000000
 Range of M.O.s used for correlation:     1   410
 NBasis=   410 NAE=    74 NBE=    74 NFC=     0 NFV=     0
 NROrb=    410 NOA=    74 NOB=    74 NVA=   336 NVB=   336
 NEqPCM:  Using equilibrium solvation (IEInf=0, Eps=   4.7113, EpsInf=   2.0906)
          Differentiating once with respect to magnetic field using GIAOs.
          Electric field/nuclear overlap derivatives assumed to be zero.
 FoFJK:  IHMeth= 1 ICntrl=    6127 DoSepK=F KAlg= 0 I1Cent=   0 FoldK=F
 IRaf=         1 NMat=   1 IRICut=       1 DoRegI=T DoRafI=F ISym2E= 0.
          There are     3 degrees of freedom in the 1st order CPHF.  IDoFFX=0 NUNeed=     3.
      3 vectors produced by pass  0 Test12= 8.29D-13 3.33D-08 XBig12= 3.65D+01 1.07D+00.
 AX will form     3 AO Fock derivatives at one time.
      3 vectors produced by pass  1 Test12= 8.29D-13 3.33D-08 XBig12= 7.13D-02 9.16D-02.
      3 vectors produced by pass  2 Test12= 8.29D-13 3.33D-08 XBig12= 5.88D-04 8.35D-03.
      3 vectors produced by pass  3 Test12= 8.29D-13 3.33D-08 XBig12= 2.19D-06 2.37D-04.
      3 vectors produced by pass  4 Test12= 8.29D-13 3.33D-08 XBig12= 6.44D-09 2.28D-05.
      3 vectors produced by pass  5 Test12= 8.29D-13 3.33D-08 XBig12= 2.85D-11 1.31D-06.
      2 vectors produced by pass  6 Test12= 8.29D-13 3.33D-08 XBig12= 9.96D-14 6.65D-08.
 InvSVY:  IOpt=1 It=  1 EMax= 8.88D-16
 Solved reduced A of dimension    20 with     3 vectors.
 Calculating GIAO nuclear magnetic shielding tensors.
 SCF GIAO Magnetic shielding tensor (ppm):
      1  C    Isotropic =   100.1398   Anisotropy =    50.2233
   XX=    93.1728   YX=    -3.7547   ZX=   -15.4265
   XY=     5.0975   YY=    92.9144   ZY=    25.1674
   XZ=    -1.7875   YZ=    28.4285   ZZ=   114.3321
   Eigenvalues:    73.2521    93.5452   133.6220
      2  C    Isotropic =   140.4646   Anisotropy =    22.6045
   XX=   149.9589   YX=    10.2522   ZX=     1.8484
   XY=     7.9498   YY=   140.4187   ZY=    -9.8177
   XZ=     2.3174   YZ=    -1.9478   ZZ=   131.0163
   Eigenvalues:   126.5142   139.3453   155.5343
      3  C    Isotropic =   107.8164   Anisotropy =    55.4174
   XX=   140.5012   YX=   -15.0136   ZX=    -2.6436
   XY=   -12.8340   YY=    99.2343   ZY=    -1.9147
   XZ=     1.3606   YZ=    -0.1637   ZZ=    83.7137
   Eigenvalues:    83.5895    95.0984   144.7613
      4  C    Isotropic =   142.9992   Anisotropy =    31.2211
   XX=   151.4531   YX=    -8.5772   ZX=   -12.4206
   XY=    -6.9083   YY=   132.2431   ZY=    12.2049
   XZ=    -9.0882   YZ=     5.6014   ZZ=   145.3015
   Eigenvalues:   127.4750   137.7094   163.8133
      5  C    Isotropic =    13.8848   Anisotropy =    86.6947
   XX=   -54.9770   YX=   -35.5058   ZX=   -24.2956
   XY=   -44.5494   YY=    46.4443   ZY=   -21.2989
   XZ=   -33.1440   YZ=   -24.3184   ZZ=    50.1872
   Eigenvalues:   -78.2741    48.2473    71.6812
      6  H    Isotropic =    28.1595   Anisotropy =     2.1100
   XX=    29.3675   YX=     0.6809   ZX=     0.2615
   XY=     0.1580   YY=    26.6826   ZY=     0.1853
   XZ=     0.6044   YZ=    -0.7655   ZZ=    28.4284
   Eigenvalues:    26.5507    28.3616    29.5662
      7  H    Isotropic =    30.2630   Anisotropy =     4.8427
   XX=    31.5884   YX=     0.1079   ZX=     2.1680
   XY=     0.1205   YY=    29.8432   ZY=    -2.6204
   XZ=     2.3723   YZ=    -2.2095   ZZ=    29.3574
   Eigenvalues:    26.5139    30.7837    33.4915
      8  H    Isotropic =    29.8789   Anisotropy =     5.1620
   XX=    31.1868   YX=    -2.5572   ZX=     1.0657
   XY=    -2.7534   YY=    27.6054   ZY=    -0.1506
   XZ=     1.3468   YZ=    -1.0051   ZZ=    30.8445
   Eigenvalues:    26.1927    30.1238    33.3202
      9  H    Isotropic =    29.2487   Anisotropy =     3.3808
   XX=    28.5523   YX=     1.3003   ZX=     0.2772
   XY=     0.3983   YY=    30.2402   ZY=     1.8504
   XZ=    -0.8988   YZ=     1.5293   ZZ=    28.9536
   Eigenvalues:    27.3210    28.9224    31.5025
     10  O    Isotropic =   100.0550   Anisotropy =   189.8334
   XX=   146.9552   YX=    63.9093   ZX=    75.5494
   XY=    68.7458   YY=    88.2841   ZY=  -162.4693
   XZ=    77.0092   YZ=  -136.2093   ZZ=    64.9259
   Eigenvalues:  -112.5344   186.0889   226.6107
     11  O    Isotropic =  -104.3949   Anisotropy =   558.7499
   XX=  -215.5408   YX=   -69.4943   ZX=   -23.5965
   XY=   -47.3693   YY=   -47.4387   ZY=  -325.6066
   XZ=   -15.7087   YZ=  -305.0729   ZZ=   -50.2053
   Eigenvalues:  -382.5116  -198.7782   268.1050
     12  C    Isotropic =   156.0744   Anisotropy =    24.8853
   XX=   160.9464   YX=    11.1632   ZX=    -0.5308
   XY=     9.1070   YY=   162.0483   ZY=    -4.3615
   XZ=    -2.6197   YZ=    -7.1087   ZZ=   145.2284
   Eigenvalues:   143.2852   152.2733   172.6646
     13  C    Isotropic =   175.5922   Anisotropy =    21.9326
   XX=   189.8189   YX=    -1.1563   ZX=     0.2957
   XY=    -4.3800   YY=   169.8153   ZY=    -5.2729
   XZ=    -0.6364   YZ=    -6.7064   ZZ=   167.1423
   Eigenvalues:   162.2144   174.3482   190.2139
     14  C    Isotropic =   176.6548   Anisotropy =    19.3308
   XX=   170.1573   YX=    -0.3343   ZX=    -0.8918
   XY=    -3.1446   YY=   172.5332   ZY=     6.1928
   XZ=    -3.8508   YZ=     4.9287   ZZ=   187.2740
   Eigenvalues:   169.2126   171.2099   189.5420
     15  O    Isotropic =   248.5829   Anisotropy =    23.3604
   XX=   231.2452   YX=    -6.4986   ZX=    -9.4825
   XY=   -16.2211   YY=   250.8555   ZY=     2.3790
   XZ=     5.4310   YZ=    -7.5724   ZZ=   263.6479
   Eigenvalues:   225.8179   255.7744   264.1565
     16  Si   Isotropic =   333.4847   Anisotropy =    40.6237
   XX=   344.5197   YX=   -19.1296   ZX=    21.6703
   XY=   -15.1244   YY=   324.6387   ZY=    -8.2780
   XZ=     3.7438   YZ=    -1.4240   ZZ=   331.2957
   Eigenvalues:   314.4074   325.4796   360.5672
     17  C    Isotropic =   186.9260   Anisotropy =    12.2567
   XX=   189.9080   YX=    -4.9100   ZX=    -3.8549
   XY=    -4.8926   YY=   179.6604   ZY=     0.8092
   XZ=    -3.1164   YZ=     0.7813   ZZ=   191.2097
   Eigenvalues:   177.6688   188.0121   195.0972
     18  C    Isotropic =   185.3914   Anisotropy =    12.2422
   XX=   184.6627   YX=     1.1439   ZX=     6.4653
   XY=    -0.6128   YY=   187.8532   ZY=     4.7731
   XZ=     6.0821   YZ=     6.0089   ZZ=   183.6581
   Eigenvalues:   176.4801   186.1411   193.5528
     19  C    Isotropic =   186.0330   Anisotropy =     9.3306
   XX=   186.9357   YX=     1.2402   ZX=     1.6081
   XY=     3.6258   YY=   188.5860   ZY=    -4.9842
   XZ=     1.7304   YZ=    -6.2131   ZZ=   182.5774
   Eigenvalues:   178.3766   187.4690   192.2534
     20  H    Isotropic =    32.2591   Anisotropy =    10.4544
   XX=    35.8311   YX=    -1.3004   ZX=     4.9056
   XY=    -1.6692   YY=    29.4216   ZY=    -0.3636
   XZ=     4.8927   YZ=    -0.1952   ZZ=    31.5246
   Eigenvalues:    28.0475    29.5011    39.2287
     21  H    Isotropic =    31.8733   Anisotropy =     8.1173
   XX=    30.7692   YX=     3.2610   ZX=     0.0708
   XY=     2.8273   YY=    35.4597   ZY=    -2.3189
   XZ=     0.3907   YZ=    -1.4616   ZZ=    29.3910
   Eigenvalues:    28.1423    30.1928    37.2849
     22  H    Isotropic =    31.9430   Anisotropy =     6.6099
   XX=    32.9637   YX=    -0.6790   ZX=    -1.2623
   XY=    -1.5902   YY=    29.2688   ZY=     3.1142
   XZ=    -2.0124   YZ=     3.0390   ZZ=    33.5965
   Eigenvalues:    27.6580    31.8214    36.3496
     23  H    Isotropic =    32.1920   Anisotropy =    10.6442
   XX=    33.5192   YX=    -3.5928   ZX=     3.6230
   XY=    -3.2172   YY=    31.9315   ZY=    -3.4499
   XZ=     3.5379   YZ=    -3.5956   ZZ=    31.1254
   Eigenvalues:    27.9090    29.3789    39.2882
     24  H    Isotropic =    31.9837   Anisotropy =     6.3481
   XX=    33.1444   YX=    -1.5609   ZX=    -3.0141
   XY=    -0.7346   YY=    29.7973   ZY=    -1.4251
   XZ=    -3.2616   YZ=    -1.0346   ZZ=    33.0095
   Eigenvalues:    28.1845    31.5509    36.2158
     25  H    Isotropic =    31.9593   Anisotropy =     7.2567
   XX=    30.6440   YX=     1.5437   ZX=     2.4793
   XY=     1.8336   YY=    34.9667   ZY=     2.5820
   XZ=     2.0970   YZ=     1.7346   ZZ=    30.2672
   Eigenvalues:    28.1224    30.9584    36.7971
     26  H    Isotropic =    32.3504   Anisotropy =    10.3008
   XX=    37.1583   YX=    -3.8190   ZX=     1.4793
   XY=    -3.9114   YY=    29.9965   ZY=    -0.7184
   XZ=     1.8696   YZ=    -0.9089   ZZ=    29.8964
   Eigenvalues:    28.3039    29.5297    39.2176
     27  H    Isotropic =    31.9376   Anisotropy =     8.1730
   XX=    30.9261   YX=     0.3075   ZX=    -0.2152
   XY=     0.5823   YY=    31.8636   ZY=     4.7590
   XZ=     0.5552   YZ=     5.0029   ZZ=    33.0232
   Eigenvalues:    27.5139    30.9127    37.3863
     28  H    Isotropic =    31.8843   Anisotropy =     8.5946
   XX=    31.6356   YX=     2.0540   ZX=    -3.4767
   XY=     1.6689   YY=    32.3889   ZY=    -2.9345
   XZ=    -3.2420   YZ=    -3.7000   ZZ=    31.6283
   Eigenvalues:    27.8693    30.1696    37.6140
     29  H    Isotropic =    30.4726   Anisotropy =     7.3946
   XX=    34.6069   YX=    -0.7781   ZX=    -0.8366
   XY=    -1.1832   YY=    27.5810   ZY=     3.9833
   XZ=    -1.6167   YZ=     3.6336   ZZ=    29.2299
   Eigenvalues:    24.5089    31.5066    35.4024
     30  H    Isotropic =    31.2257   Anisotropy =     9.5014
   XX=    29.4239   YX=     2.8656   ZX=    -0.8577
   XY=     2.8968   YY=    35.5117   ZY=     3.1765
   XZ=    -0.5530   YZ=     3.3239   ZZ=    28.7416
   Eigenvalues:    26.2798    29.8374    37.5600
     31  H    Isotropic =    31.5123   Anisotropy =     8.6004
   XX=    28.9581   YX=     0.0756   ZX=     2.7424
   XY=    -0.3994   YY=    29.3368   ZY=    -0.6082
   XZ=     2.7163   YZ=    -1.1087   ZZ=    36.2418
   Eigenvalues:    28.0375    29.2534    37.2458
     32  H    Isotropic =    30.6386   Anisotropy =     5.0475
   XX=    32.4056   YX=     0.3241   ZX=     0.4359
   XY=     0.1664   YY=    30.1076   ZY=    -4.4165
   XZ=     0.5034   YZ=    -4.0270   ZZ=    29.4026
   Eigenvalues:    25.4808    32.4314    34.0036
     33  H    Isotropic =    30.3218   Anisotropy =     5.5956
   XX=    32.6009   YX=     1.3908   ZX=    -2.2265
   XY=     1.5911   YY=    30.4568   ZY=     4.7033
   XZ=    -1.9201   YZ=     4.6823   ZZ=    27.9076
   Eigenvalues:    23.5958    33.3173    34.0522
     34  H    Isotropic =    30.5072   Anisotropy =     7.8724
   XX=    32.8192   YX=    -1.0844   ZX=    -2.9089
   XY=    -0.1114   YY=    28.6244   ZY=     4.2048
   XZ=    -2.6966   YZ=     3.8282   ZZ=    30.0779
   Eigenvalues:    25.0152    30.7510    35.7554
     35  H    Isotropic =    31.1917   Anisotropy =     9.2702
   XX=    33.9195   YX=    -1.9553   ZX=     3.8374
   XY=    -1.3315   YY=    28.0963   ZY=    -2.8330
   XZ=     3.3021   YZ=    -2.2580   ZZ=    31.5594
   Eigenvalues:    26.7392    29.4641    37.3719
     36  H    Isotropic =    31.0077   Anisotropy =    11.4028
   XX=    34.9657   YX=     5.0250   ZX=    -1.3096
   XY=     4.3954   YY=    31.7162   ZY=    -1.0650
   XZ=    -1.5083   YZ=    -1.4344   ZZ=    26.3410
   Eigenvalues:    26.0384    28.3751    38.6095
     37  C    Isotropic =   146.1404   Anisotropy =    15.8457
   XX=   146.7404   YX=     8.9758   ZX=     3.7624
   XY=     1.0887   YY=   151.1115   ZY=    -9.5730
   XZ=     7.1031   YZ=    -8.5942   ZZ=   140.5694
   Eigenvalues:   131.8193   149.8978   156.7043
     38  C    Isotropic =    45.7164   Anisotropy =   178.8125
   XX=   -69.2737   YX=   -28.4419   ZX=    12.7116
   XY=   -33.2547   YY=    45.4277   ZY=   -17.4705
   XZ=    11.2204   YZ=   -18.5191   ZZ=   160.9952
   Eigenvalues:   -77.2649    49.4894   164.9247
     39  C    Isotropic =    64.8800   Anisotropy =   140.9313
   XX=   -36.7781   YX=   -41.9231   ZX=     6.9062
   XY=   -39.5371   YY=    75.1459   ZY=   -10.0518
   XZ=     5.0618   YZ=   -14.2083   ZZ=   156.2722
   Eigenvalues:   -50.0492    85.8549   158.8342
     40  H    Isotropic =    30.2253   Anisotropy =     5.9547
   XX=    31.8177   YX=    -1.7571   ZX=     1.0249
   XY=     0.0067   YY=    32.3649   ZY=    -3.2414
   XZ=     1.2874   YZ=    -2.4698   ZZ=    26.4932
   Eigenvalues:    25.2473    31.2335    34.1951
     41  H    Isotropic =    29.5549   Anisotropy =     4.0162
   XX=    25.6123   YX=     1.8348   ZX=     0.7818
   XY=     1.6507   YY=    30.8672   ZY=    -1.1849
   XZ=     0.2664   YZ=     0.7649   ZZ=    32.1851
   Eigenvalues:    25.0425    31.3897    32.2323
     42  H    Isotropic =    25.7420   Anisotropy =     7.2002
   XX=    23.4200   YX=     1.4354   ZX=    -0.4522
   XY=    -0.0369   YY=    29.9081   ZY=    -1.5485
   XZ=    -0.8450   YZ=    -2.1831   ZZ=    23.8980
   Eigenvalues:    22.9124    23.7715    30.5421
     43  H    Isotropic =    26.6994   Anisotropy =     6.8471
   XX=    23.4558   YX=    -1.6013   ZX=    -0.0757
   XY=     0.8977   YY=    31.2347   ZY=    -0.2381
   XZ=    -0.0048   YZ=    -0.3276   ZZ=    25.4076
   Eigenvalues:    23.4385    25.3956    31.2641
     44  H    Isotropic =    26.7978   Anisotropy =     7.3730
   XX=    23.5618   YX=    -0.9147   ZX=     0.2497
   XY=    -3.1869   YY=    31.1402   ZY=    -0.5863
   XZ=    -0.4927   YZ=    -0.6465   ZZ=    25.6914
   Eigenvalues:    23.0149    25.6653    31.7131
 End of Minotr F.D. properties file   721 does not exist.
 End of Minotr F.D. properties file   722 does not exist.
 End of Minotr F.D. properties file   788 does not exist.

 **********************************************************************

            Population analysis using the SCF density.

 **********************************************************************

 Orbital symmetries:
       Occupied  (A) (A) (A) (A) (A) (A) (A) (A) (A) (A) (A) (A)
                 (A) (A) (A) (A) (A) (A) (A) (A) (A) (A) (A) (A)
                 (A) (A) (A) (A) (A) (A) (A) (A) (A) (A) (A) (A)
                 (A) (A) (A) (A) (A) (A) (A) (A) (A) (A) (A) (A)
                 (A) (A) (A) (A) (A) (A) (A) (A) (A) (A) (A) (A)
                 (A) (A) (A) (A) (A) (A) (A) (A) (A) (A) (A) (A)
                 (A) (A)
       Virtual   (A) (A) (A) (A) (A) (A) (A) (A) (A) (A) (A) (A)
                 (A) (A) (A) (A) (A) (A) (A) (A) (A) (A) (A) (A)
                 (A) (A) (A) (A) (A) (A) (A) (A) (A) (A) (A) (A)
                 (A) (A) (A) (A) (A) (A) (A) (A) (A) (A) (A) (A)
                 (A) (A) (A) (A) (A) (A) (A) (A) (A) (A) (A) (A)
                 (A) (A) (A) (A) (A) (A) (A) (A) (A) (A) (A) (A)
                 (A) (A) (A) (A) (A) (A) (A) (A) (A) (A) (A) (A)
                 (A) (A) (A) (A) (A) (A) (A) (A) (A) (A) (A) (A)
                 (A) (A) (A) (A) (A) (A) (A) (A) (A) (A) (A) (A)
                 (A) (A) (A) (A) (A) (A) (A) (A) (A) (A) (A) (A)
                 (A) (A) (A) (A) (A) (A) (A) (A) (A) (A) (A) (A)
                 (A) (A) (A) (A) (A) (A) (A) (A) (A) (A) (A) (A)
                 (A) (A) (A) (A) (A) (A) (A) (A) (A) (A) (A) (A)
                 (A) (A) (A) (A) (A) (A) (A) (A) (A) (A) (A) (A)
                 (A) (A) (A) (A) (A) (A) (A) (A) (A) (A) (A) (A)
                 (A) (A) (A) (A) (A) (A) (A) (A) (A) (A) (A) (A)
                 (A) (A) (A) (A) (A) (A) (A) (A) (A) (A) (A) (A)
                 (A) (A) (A) (A) (A) (A) (A) (A) (A) (A) (A) (A)
                 (A) (A) (A) (A) (A) (A) (A) (A) (A) (A) (A) (A)
                 (A) (A) (A) (A) (A) (A) (A) (A) (A) (A) (A) (A)
                 (A) (A) (A) (A) (A) (A) (A) (A) (A) (A) (A) (A)
                 (A) (A) (A) (A) (A) (A) (A) (A) (A) (A) (A) (A)
                 (A) (A) (A) (A) (A) (A) (A) (A) (A) (A) (A) (A)
                 (A) (A) (A) (A) (A) (A) (A) (A) (A) (A) (A) (A)
                 (A) (A) (A) (A) (A) (A) (A) (A) (A) (A) (A) (A)
                 (A) (A) (A) (A) (A) (A) (A) (A) (A) (A) (A) (A)
                 (A) (A) (A) (A) (A) (A) (A) (A) (A) (A) (A) (A)
                 (A) (A) (A) (A) (A) (A) (A) (A) (A) (A) (A) (A)
 The electronic state is 1-A.
 Alpha  occ. eigenvalues --  -66.27489 -19.25922 -19.20715 -19.19560 -10.37002
 Alpha  occ. eigenvalues --  -10.31737 -10.30698 -10.25457 -10.25085 -10.24054
 Alpha  occ. eigenvalues --  -10.23953 -10.23898 -10.22810 -10.22677 -10.22090
 Alpha  occ. eigenvalues --  -10.21148 -10.20806 -10.20735  -5.33223  -3.67111
 Alpha  occ. eigenvalues --   -3.66817  -3.66800  -1.13203  -1.04802  -1.04070
 Alpha  occ. eigenvalues --   -0.85947  -0.83297  -0.80512  -0.77790  -0.74168
 Alpha  occ. eigenvalues --   -0.72494  -0.71964  -0.70443  -0.70192  -0.66500
 Alpha  occ. eigenvalues --   -0.63941  -0.61926  -0.58541  -0.56291  -0.53760
 Alpha  occ. eigenvalues --   -0.52098  -0.49999  -0.49309  -0.48933  -0.47690
 Alpha  occ. eigenvalues --   -0.46209  -0.45155  -0.44955  -0.44330  -0.43550
 Alpha  occ. eigenvalues --   -0.42723  -0.42438  -0.42076  -0.41412  -0.41394
 Alpha  occ. eigenvalues --   -0.40879  -0.40579  -0.39769  -0.39569  -0.38701
 Alpha  occ. eigenvalues --   -0.38432  -0.37900  -0.37162  -0.36555  -0.36122
 Alpha  occ. eigenvalues --   -0.35667  -0.34245  -0.33634  -0.32583  -0.31029
 Alpha  occ. eigenvalues --   -0.30697  -0.28809  -0.28232  -0.27213
 Alpha virt. eigenvalues --    0.00398   0.01348   0.03796   0.05859   0.05956
 Alpha virt. eigenvalues --    0.06677   0.07667   0.07866   0.08050   0.08877
 Alpha virt. eigenvalues --    0.09736   0.09838   0.10123   0.10625   0.11186
 Alpha virt. eigenvalues --    0.11542   0.12102   0.12987   0.13632   0.13844
 Alpha virt. eigenvalues --    0.14002   0.14354   0.14754   0.15218   0.15591
 Alpha virt. eigenvalues --    0.16028   0.16589   0.17072   0.17745   0.18382
 Alpha virt. eigenvalues --    0.19162   0.19687   0.19992   0.20178   0.20714
 Alpha virt. eigenvalues --    0.21705   0.22625   0.23080   0.24283   0.24828
 Alpha virt. eigenvalues --    0.25316   0.25630   0.26248   0.26800   0.28294
 Alpha virt. eigenvalues --    0.29419   0.29936   0.30876   0.31533   0.32611
 Alpha virt. eigenvalues --    0.33223   0.33992   0.34224   0.36126   0.36579
 Alpha virt. eigenvalues --    0.36994   0.37748   0.38369   0.39749   0.40106
 Alpha virt. eigenvalues --    0.41333   0.42036   0.42336   0.43494   0.44433
 Alpha virt. eigenvalues --    0.44633   0.45978   0.46138   0.46893   0.48477
 Alpha virt. eigenvalues --    0.49683   0.49839   0.50826   0.51619   0.52376
 Alpha virt. eigenvalues --    0.53737   0.54472   0.55084   0.55759   0.56136
 Alpha virt. eigenvalues --    0.57081   0.57541   0.57818   0.58509   0.59146
 Alpha virt. eigenvalues --    0.59811   0.60115   0.60483   0.60729   0.61071
 Alpha virt. eigenvalues --    0.61484   0.61899   0.62369   0.62507   0.63328
 Alpha virt. eigenvalues --    0.63528   0.63755   0.64241   0.64627   0.65847
 Alpha virt. eigenvalues --    0.66635   0.66924   0.67474   0.67897   0.68451
 Alpha virt. eigenvalues --    0.69290   0.69679   0.69978   0.70019   0.70656
 Alpha virt. eigenvalues --    0.71797   0.72671   0.72913   0.73651   0.74456
 Alpha virt. eigenvalues --    0.76381   0.76912   0.77468   0.77633   0.81956
 Alpha virt. eigenvalues --    0.83048   0.84026   0.86151   0.87065   0.87620
 Alpha virt. eigenvalues --    0.88436   0.90471   0.91278   0.93395   0.93827
 Alpha virt. eigenvalues --    0.94986   0.95939   0.96410   0.97520   1.00359
 Alpha virt. eigenvalues --    1.00967   1.03041   1.04998   1.06069   1.09775
 Alpha virt. eigenvalues --    1.13757   1.14293   1.16656   1.17459   1.18936
 Alpha virt. eigenvalues --    1.22405   1.22997   1.25952   1.26960   1.27334
 Alpha virt. eigenvalues --    1.29159   1.29418   1.31519   1.31897   1.33235
 Alpha virt. eigenvalues --    1.34324   1.37902   1.39190   1.40020   1.41556
 Alpha virt. eigenvalues --    1.42394   1.43355   1.46583   1.47479   1.48447
 Alpha virt. eigenvalues --    1.49521   1.50550   1.51939   1.52748   1.53558
 Alpha virt. eigenvalues --    1.54355   1.54919   1.55412   1.57625   1.57860
 Alpha virt. eigenvalues --    1.59292   1.59486   1.59891   1.60474   1.60878
 Alpha virt. eigenvalues --    1.60948   1.61301   1.61997   1.62668   1.63575
 Alpha virt. eigenvalues --    1.64329   1.65001   1.66390   1.67871   1.68230
 Alpha virt. eigenvalues --    1.69154   1.69972   1.71525   1.72978   1.73587
 Alpha virt. eigenvalues --    1.73955   1.77411   1.78536   1.80003   1.80668
 Alpha virt. eigenvalues --    1.81463   1.81532   1.82992   1.84002   1.88050
 Alpha virt. eigenvalues --    1.89220   1.90979   1.92151   1.96272   1.97987
 Alpha virt. eigenvalues --    1.99020   2.04334   2.06359   2.07656   2.12891
 Alpha virt. eigenvalues --    2.16007   2.17088   2.21924   2.23098   2.24892
 Alpha virt. eigenvalues --    2.29641   2.32219   2.34011   2.35135   2.40152
 Alpha virt. eigenvalues --    2.41049   2.41849   2.42262   2.42728   2.43450
 Alpha virt. eigenvalues --    2.44152   2.44932   2.45767   2.46688   2.47308
 Alpha virt. eigenvalues --    2.47573   2.48479   2.49691   2.50345   2.51606
 Alpha virt. eigenvalues --    2.52513   2.52658   2.58578   2.59021   2.59728
 Alpha virt. eigenvalues --    2.61249   2.63402   2.67525   2.72223   2.81233
 Alpha virt. eigenvalues --    2.81907   2.86722   2.88523   2.90595   2.91252
 Alpha virt. eigenvalues --    2.92427   2.93476   2.95240   2.96095   2.97425
 Alpha virt. eigenvalues --    2.99020   2.99922   3.00569   3.01941   3.04874
 Alpha virt. eigenvalues --    3.08142   3.11064   3.12218   3.13767   3.14826
 Alpha virt. eigenvalues --    3.16017   3.17043   3.17386   3.19405   3.21331
 Alpha virt. eigenvalues --    3.22190   3.22450   3.22856   3.23479   3.24515
 Alpha virt. eigenvalues --    3.25590   3.27322   3.27564   3.29029   3.29301
 Alpha virt. eigenvalues --    3.32916   3.34969   3.36247   3.37494   3.38540
 Alpha virt. eigenvalues --    3.42776   3.51005   3.57320   3.59548   3.63718
 Alpha virt. eigenvalues --    3.78432   3.88246   3.88789   3.99244   4.04493
 Alpha virt. eigenvalues --    4.09728   4.13392   4.19064   4.22382   4.26622
 Alpha virt. eigenvalues --    4.93618   5.00703   5.02142   5.11255   5.15310
 Alpha virt. eigenvalues --    5.23649   5.52182   5.56578   5.76838   5.85329
 Alpha virt. eigenvalues --   11.52339  11.53203  11.56518  23.41688  23.49818
 Alpha virt. eigenvalues --   23.54346  23.54491  23.56790  23.60528  23.70357
 Alpha virt. eigenvalues --   23.72750  23.79876  23.80197  23.83144  23.85436
 Alpha virt. eigenvalues --   23.88741  24.29440  49.98609  50.06101  50.13475
 Alpha virt. eigenvalues --  141.27594
          Condensed to atoms (all electrons):
               1          2          3          4          5          6
     1  C    5.202644   0.288335  -0.055296  -0.003207  -0.049550   0.381207
     2  C    0.288335   5.499572   0.328566  -0.091006  -0.009286  -0.039857
     3  C   -0.055296   0.328566   5.196745   0.235319  -0.017903  -0.016811
     4  C   -0.003207  -0.091006   0.235319   5.870156   0.244056   0.002461
     5  C   -0.049550  -0.009286  -0.017903   0.244056   4.388333  -0.000969
     6  H    0.381207  -0.039857  -0.016811   0.002461  -0.000969   0.492174
     7  H   -0.049311   0.410100  -0.059580  -0.007256   0.001083   0.007940
     8  H    0.001116  -0.006843  -0.029553   0.359672  -0.027706   0.000006
     9  H   -0.000686   0.007315  -0.032756   0.364634  -0.025452   0.000177
    10  O    0.214067  -0.033696   0.007890  -0.108863   0.345682  -0.035569
    11  O    0.002451  -0.000326   0.003845  -0.093730   0.668510  -0.000081
    12  C    0.326863  -0.069719   0.009767  -0.002302   0.001912  -0.049938
    13  C   -0.069964   0.007322  -0.000140   0.000044  -0.000011  -0.005714
    14  C   -0.067481   0.294016  -0.056989   0.007794   0.000083  -0.001670
    15  O    0.004152  -0.048272   0.218483  -0.023332   0.002030  -0.000080
    16  Si   0.002276  -0.010236  -0.043874  -0.004960   0.001471  -0.000187
    17  C   -0.000002  -0.000143   0.002210  -0.000084   0.000002   0.000000
    18  C    0.000007  -0.000287   0.000016  -0.001772   0.000000   0.000000
    19  C   -0.000073  -0.000379   0.000412  -0.002324  -0.000036  -0.000003
    20  H    0.000000   0.000003  -0.000038   0.000118   0.000001   0.000000
    21  H    0.000002  -0.000037   0.000498  -0.000309  -0.000022   0.000000
    22  H    0.000005  -0.000021  -0.000016   0.001042  -0.000012   0.000000
    23  H   -0.000001   0.000157  -0.000070   0.000061   0.000002   0.000000
    24  H   -0.000084  -0.000123   0.000455   0.000039   0.000009  -0.000001
    25  H   -0.000061   0.000063   0.000143   0.000246   0.000006  -0.000001
    26  H    0.000000  -0.000001  -0.000058   0.000001   0.000000   0.000000
    27  H   -0.000001   0.000021  -0.000061  -0.000016   0.000000   0.000000
    28  H    0.000001  -0.000019  -0.000116  -0.000034   0.000000   0.000000
    29  H    0.006126  -0.035864  -0.008083   0.000682  -0.000095  -0.000079
    30  H   -0.005185  -0.035039   0.007137  -0.000266  -0.000004  -0.000815
    31  H   -0.005514  -0.038510  -0.009128  -0.000229   0.000025   0.005928
    32  H   -0.045358  -0.006469  -0.000952   0.000231  -0.000060   0.008250
    33  H   -0.043661  -0.005670  -0.000189   0.000124   0.000008  -0.000220
    34  H   -0.011713   0.000470  -0.000070   0.000382   0.000868   0.000243
    35  H   -0.004012  -0.000111  -0.000004  -0.000004  -0.000094   0.004790
    36  H    0.008027  -0.000236   0.000011  -0.000001   0.000001  -0.000257
    37  C   -0.000696  -0.093059   0.268884  -0.106613  -0.000080   0.007317
    38  C   -0.000731   0.010053  -0.057867  -0.013663   0.000537   0.000084
    39  C   -0.000027  -0.000006  -0.002215  -0.000516   0.000428   0.000026
    40  H    0.003707  -0.009625  -0.023518  -0.003730   0.001910  -0.002793
    41  H   -0.000472  -0.008407  -0.045959   0.007219  -0.000314  -0.000149
    42  H    0.000008  -0.000280  -0.002870   0.000483   0.000033  -0.000004
    43  H    0.000000   0.000016  -0.000291   0.000060  -0.000007  -0.000001
    44  H   -0.000021  -0.000022  -0.000220  -0.000049   0.000468   0.000060
               7          8          9         10         11         12
     1  C   -0.049311   0.001116  -0.000686   0.214067   0.002451   0.326863
     2  C    0.410100  -0.006843   0.007315  -0.033696  -0.000326  -0.069719
     3  C   -0.059580  -0.029553  -0.032756   0.007890   0.003845   0.009767
     4  C   -0.007256   0.359672   0.364634  -0.108863  -0.093730  -0.002302
     5  C    0.001083  -0.027706  -0.025452   0.345682   0.668510   0.001912
     6  H    0.007940   0.000006   0.000177  -0.035569  -0.000081  -0.049938
     7  H    0.477595   0.001778   0.000198   0.002146  -0.000109  -0.008343
     8  H    0.001778   0.420514  -0.013314   0.002542   0.002344  -0.000003
     9  H    0.000198  -0.013314   0.399602   0.004015   0.008784   0.000046
    10  O    0.002146   0.002542   0.004015   8.047368  -0.077978  -0.054114
    11  O   -0.000109   0.002344   0.008784  -0.077978   7.869529  -0.000151
    12  C   -0.008343  -0.000003   0.000046  -0.054114  -0.000151   5.311119
    13  C   -0.000133   0.000004  -0.000003  -0.006081  -0.000018   0.317326
    14  C   -0.036590   0.000176  -0.000122   0.003242   0.000004  -0.003903
    15  O   -0.001463  -0.005659  -0.000241  -0.000019  -0.000019  -0.000067
    16  Si  -0.001654   0.003797  -0.003122  -0.000448  -0.000495  -0.000219
    17  C   -0.000050  -0.000040  -0.000027   0.000000   0.000000   0.000000
    18  C   -0.000148   0.000145  -0.001569  -0.000001   0.000001   0.000000
    19  C   -0.002558   0.003071   0.000196   0.000002   0.000002   0.000002
    20  H    0.000004  -0.000039   0.000129   0.000000   0.000000   0.000000
    21  H    0.000001   0.000005   0.000215   0.000000   0.000001   0.000000
    22  H   -0.000034   0.001201  -0.000393   0.000000  -0.000026   0.000000
    23  H    0.000372  -0.000050  -0.000004   0.000000   0.000000   0.000000
    24  H   -0.000274   0.004669  -0.000001  -0.000005   0.000001   0.000029
    25  H   -0.000653  -0.000387   0.000005  -0.000002   0.000000   0.000031
    26  H   -0.000002   0.000009  -0.000002   0.000000   0.000000   0.000000
    27  H   -0.000011  -0.000006  -0.000003   0.000000   0.000000   0.000000
    28  H   -0.000001   0.000000  -0.000013   0.000000   0.000000   0.000000
    29  H   -0.002934   0.000051  -0.000032  -0.000107   0.000000   0.000079
    30  H   -0.008281  -0.000024   0.000014  -0.000022   0.000000   0.001489
    31  H    0.007050  -0.000016   0.000017   0.000048   0.000001  -0.000500
    32  H    0.006649   0.000077   0.000015   0.002844  -0.000127   0.387393
    33  H    0.000077  -0.000021  -0.000001   0.003799   0.000007   0.388535
    34  H    0.000008  -0.000023  -0.000007   0.013115   0.000267  -0.038590
    35  H    0.000021   0.000001   0.000000  -0.000346  -0.000003  -0.040854
    36  H   -0.000031   0.000000   0.000000  -0.000161   0.000000  -0.037603
    37  C    0.009250   0.006185  -0.008072  -0.003868   0.000366  -0.000358
    38  C   -0.000239  -0.000123   0.009381   0.000084  -0.000134   0.000009
    39  C   -0.000005   0.000008   0.004178  -0.000034  -0.000020   0.000000
    40  H   -0.000340   0.000186  -0.000583   0.003934  -0.000539   0.000920
    41  H   -0.000205  -0.000142   0.000326   0.000077   0.000003  -0.000081
    42  H    0.000007   0.000049  -0.000243  -0.000001   0.000003   0.000001
    43  H   -0.000001  -0.000005   0.000143   0.000000  -0.000001   0.000000
    44  H    0.000006   0.000008  -0.000024  -0.000113   0.000363  -0.000001
              13         14         15         16         17         18
     1  C   -0.069964  -0.067481   0.004152   0.002276  -0.000002   0.000007
     2  C    0.007322   0.294016  -0.048272  -0.010236  -0.000143  -0.000287
     3  C   -0.000140  -0.056989   0.218483  -0.043874   0.002210   0.000016
     4  C    0.000044   0.007794  -0.023332  -0.004960  -0.000084  -0.001772
     5  C   -0.000011   0.000083   0.002030   0.001471   0.000002   0.000000
     6  H   -0.005714  -0.001670  -0.000080  -0.000187   0.000000   0.000000
     7  H   -0.000133  -0.036590  -0.001463  -0.001654  -0.000050  -0.000148
     8  H    0.000004   0.000176  -0.005659   0.003797  -0.000040   0.000145
     9  H   -0.000003  -0.000122  -0.000241  -0.003122  -0.000027  -0.001569
    10  O   -0.006081   0.003242  -0.000019  -0.000448   0.000000  -0.000001
    11  O   -0.000018   0.000004  -0.000019  -0.000495   0.000000   0.000001
    12  C    0.317326  -0.003903  -0.000067  -0.000219   0.000000   0.000000
    13  C    5.337822  -0.000344   0.000001   0.000015   0.000000   0.000000
    14  C   -0.000344   5.397114  -0.007823  -0.001197  -0.000161   0.000004
    15  O    0.000001  -0.007823   8.291302   0.345125  -0.029549  -0.024027
    16  Si   0.000015  -0.001197   0.345125  11.508285   0.336396   0.318551
    17  C    0.000000  -0.000161  -0.029549   0.336396   5.721243  -0.045931
    18  C    0.000000   0.000004  -0.024027   0.318551  -0.045931   5.762097
    19  C    0.000000   0.000648  -0.024004   0.307190  -0.044204  -0.054415
    20  H    0.000000   0.000000   0.000943  -0.012038  -0.000204   0.361767
    21  H    0.000000   0.000001  -0.002311  -0.025147  -0.000397   0.370896
    22  H    0.000000   0.000001  -0.001327  -0.026775   0.002226   0.371491
    23  H    0.000000  -0.000017   0.000846  -0.010500  -0.000517   0.000275
    24  H   -0.000001   0.000109  -0.001404  -0.028730   0.002360  -0.000971
    25  H   -0.000001   0.000374  -0.002053  -0.026661  -0.000440   0.002131
    26  H    0.000000  -0.000003   0.001186  -0.014579   0.361207   0.000668
    27  H    0.000000   0.000161  -0.001951  -0.025349   0.369997   0.002078
    28  H    0.000000  -0.000010  -0.001567  -0.023516   0.370417  -0.000526
    29  H    0.000016   0.383472   0.010283   0.003079   0.000243   0.000056
    30  H    0.000057   0.391056  -0.000008  -0.000306  -0.000001   0.000001
    31  H   -0.000110   0.386261  -0.000066  -0.000046   0.000004   0.000000
    32  H   -0.040346   0.001021  -0.000008  -0.000098   0.000000   0.000000
    33  H   -0.037204   0.001706  -0.000006  -0.000012   0.000000   0.000000
    34  H    0.384398  -0.000074   0.000000   0.000003   0.000000   0.000000
    35  H    0.385210   0.000043   0.000000   0.000000   0.000000   0.000000
    36  H    0.392098   0.000001   0.000000  -0.000001   0.000000   0.000000
    37  C   -0.000015  -0.008045  -0.079889   0.000413   0.000048   0.000003
    38  C   -0.000001  -0.000348   0.008489   0.001269  -0.000097  -0.000195
    39  C    0.000000   0.000006   0.000981   0.000616  -0.000002  -0.000024
    40  H    0.000002   0.000619   0.003351  -0.000009   0.000003   0.000004
    41  H    0.000002   0.002519   0.002350  -0.000013  -0.000046   0.000020
    42  H    0.000000  -0.000002   0.003824   0.000785   0.000149   0.000361
    43  H    0.000000   0.000000   0.000012   0.000015   0.000000   0.000004
    44  H    0.000000  -0.000003  -0.000002  -0.000005   0.000000   0.000000
              19         20         21         22         23         24
     1  C   -0.000073   0.000000   0.000002   0.000005  -0.000001  -0.000084
     2  C   -0.000379   0.000003  -0.000037  -0.000021   0.000157  -0.000123
     3  C    0.000412  -0.000038   0.000498  -0.000016  -0.000070   0.000455
     4  C   -0.002324   0.000118  -0.000309   0.001042   0.000061   0.000039
     5  C   -0.000036   0.000001  -0.000022  -0.000012   0.000002   0.000009
     6  H   -0.000003   0.000000   0.000000   0.000000   0.000000  -0.000001
     7  H   -0.002558   0.000004   0.000001  -0.000034   0.000372  -0.000274
     8  H    0.003071  -0.000039   0.000005   0.001201  -0.000050   0.004669
     9  H    0.000196   0.000129   0.000215  -0.000393  -0.000004  -0.000001
    10  O    0.000002   0.000000   0.000000   0.000000   0.000000  -0.000005
    11  O    0.000002   0.000000   0.000001  -0.000026   0.000000   0.000001
    12  C    0.000002   0.000000   0.000000   0.000000   0.000000   0.000029
    13  C    0.000000   0.000000   0.000000   0.000000   0.000000  -0.000001
    14  C    0.000648   0.000000   0.000001   0.000001  -0.000017   0.000109
    15  O   -0.024004   0.000943  -0.002311  -0.001327   0.000846  -0.001404
    16  Si   0.307190  -0.012038  -0.025147  -0.026775  -0.010500  -0.028730
    17  C   -0.044204  -0.000204  -0.000397   0.002226  -0.000517   0.002360
    18  C   -0.054415   0.361767   0.370896   0.371491   0.000275  -0.000971
    19  C    5.788426   0.000625   0.001961  -0.001193   0.362710   0.368840
    20  H    0.000625   0.454911  -0.021325  -0.022483   0.000472   0.000055
    21  H    0.001961  -0.021325   0.448983  -0.019336  -0.000042  -0.000043
    22  H   -0.001193  -0.022483  -0.019336   0.449338   0.000040   0.000720
    23  H    0.362710   0.000472  -0.000042   0.000040   0.444930  -0.021142
    24  H    0.368840   0.000055  -0.000043   0.000720  -0.021142   0.447738
    25  H    0.371237  -0.000049  -0.000091  -0.000030  -0.021693  -0.019545
    26  H    0.000255   0.000687  -0.000005  -0.000061   0.000639  -0.000077
    27  H   -0.000651  -0.000050  -0.000075  -0.000093  -0.000074  -0.000073
    28  H    0.002128  -0.000103   0.001086  -0.000073  -0.000070  -0.000088
    29  H   -0.000109   0.000000   0.000003   0.000001   0.000006  -0.000019
    30  H    0.000108   0.000000   0.000000   0.000000  -0.000004   0.000015
    31  H    0.000005   0.000000   0.000000   0.000000   0.000000  -0.000003
    32  H    0.000033   0.000000   0.000000   0.000000  -0.000002   0.000039
    33  H   -0.000003   0.000000   0.000000   0.000000   0.000000   0.000000
    34  H    0.000000   0.000000   0.000000   0.000000   0.000000   0.000000
    35  H    0.000000   0.000000   0.000000   0.000000   0.000000   0.000000
    36  H    0.000000   0.000000   0.000000   0.000000   0.000000   0.000000
    37  C   -0.000343   0.000000   0.000137  -0.000010   0.000006  -0.000076
    38  C    0.000031   0.000007   0.000454  -0.000052   0.000000   0.000009
    39  C    0.000001   0.000000   0.000061  -0.000014   0.000000   0.000000
    40  H    0.000011   0.000000   0.000002   0.000003   0.000000   0.000003
    41  H    0.000013   0.000000   0.000009   0.000000   0.000000   0.000001
    42  H    0.000021  -0.000001   0.000730  -0.000025   0.000000   0.000001
    43  H    0.000000   0.000000   0.000001   0.000002   0.000000   0.000000
    44  H    0.000000   0.000000   0.000001   0.000000   0.000000   0.000000
              25         26         27         28         29         30
     1  C   -0.000061   0.000000  -0.000001   0.000001   0.006126  -0.005185
     2  C    0.000063  -0.000001   0.000021  -0.000019  -0.035864  -0.035039
     3  C    0.000143  -0.000058  -0.000061  -0.000116  -0.008083   0.007137
     4  C    0.000246   0.000001  -0.000016  -0.000034   0.000682  -0.000266
     5  C    0.000006   0.000000   0.000000   0.000000  -0.000095  -0.000004
     6  H   -0.000001   0.000000   0.000000   0.000000  -0.000079  -0.000815
     7  H   -0.000653  -0.000002  -0.000011  -0.000001  -0.002934  -0.008281
     8  H   -0.000387   0.000009  -0.000006   0.000000   0.000051  -0.000024
     9  H    0.000005  -0.000002  -0.000003  -0.000013  -0.000032   0.000014
    10  O   -0.000002   0.000000   0.000000   0.000000  -0.000107  -0.000022
    11  O    0.000000   0.000000   0.000000   0.000000   0.000000   0.000000
    12  C    0.000031   0.000000   0.000000   0.000000   0.000079   0.001489
    13  C   -0.000001   0.000000   0.000000   0.000000   0.000016   0.000057
    14  C    0.000374  -0.000003   0.000161  -0.000010   0.383472   0.391056
    15  O   -0.002053   0.001186  -0.001951  -0.001567   0.010283  -0.000008
    16  Si  -0.026661  -0.014579  -0.025349  -0.023516   0.003079  -0.000306
    17  C   -0.000440   0.361207   0.369997   0.370417   0.000243  -0.000001
    18  C    0.002131   0.000668   0.002078  -0.000526   0.000056   0.000001
    19  C    0.371237   0.000255  -0.000651   0.002128  -0.000109   0.000108
    20  H   -0.000049   0.000687  -0.000050  -0.000103   0.000000   0.000000
    21  H   -0.000091  -0.000005  -0.000075   0.001086   0.000003   0.000000
    22  H   -0.000030  -0.000061  -0.000093  -0.000073   0.000001   0.000000
    23  H   -0.021693   0.000639  -0.000074  -0.000070   0.000006  -0.000004
    24  H   -0.019545  -0.000077  -0.000073  -0.000088  -0.000019   0.000015
    25  H    0.450640  -0.000045   0.001234  -0.000068   0.000205   0.000219
    26  H   -0.000045   0.460508  -0.021778  -0.021548  -0.000003   0.000000
    27  H    0.001234  -0.021778   0.453589  -0.019299   0.000952  -0.000003
    28  H   -0.000068  -0.021548  -0.019299   0.452111  -0.000033  -0.000001
    29  H    0.000205  -0.000003   0.000952  -0.000033   0.427658  -0.022780
    30  H    0.000219   0.000000  -0.000003  -0.000001  -0.022780   0.455706
    31  H   -0.000008   0.000000  -0.000012   0.000000  -0.024524  -0.026691
    32  H    0.000013   0.000000   0.000000   0.000000  -0.000082   0.000182
    33  H    0.000000   0.000000   0.000000   0.000000   0.000372   0.001272
    34  H    0.000000   0.000000   0.000000   0.000000   0.000004  -0.000018
    35  H    0.000000   0.000000   0.000000   0.000000  -0.000005   0.000041
    36  H    0.000000   0.000000   0.000000   0.000000  -0.000001   0.000005
    37  C   -0.000081   0.000003  -0.000002   0.000100  -0.000997  -0.000102
    38  C    0.000006  -0.000001   0.000005  -0.000029  -0.000177   0.000016
    39  C    0.000000   0.000000   0.000000  -0.000004   0.000004   0.000000
    40  H    0.000001   0.000000  -0.000001  -0.000001   0.000051  -0.000055
    41  H    0.000002   0.000001  -0.000016  -0.000015   0.000767   0.000263
    42  H    0.000000  -0.000010  -0.000024   0.000259   0.000014  -0.000001
    43  H    0.000000   0.000000   0.000000  -0.000001   0.000000   0.000000
    44  H    0.000000   0.000000   0.000000   0.000000   0.000000   0.000000
              31         32         33         34         35         36
     1  C   -0.005514  -0.045358  -0.043661  -0.011713  -0.004012   0.008027
     2  C   -0.038510  -0.006469  -0.005670   0.000470  -0.000111  -0.000236
     3  C   -0.009128  -0.000952  -0.000189  -0.000070  -0.000004   0.000011
     4  C   -0.000229   0.000231   0.000124   0.000382  -0.000004  -0.000001
     5  C    0.000025  -0.000060   0.000008   0.000868  -0.000094   0.000001
     6  H    0.005928   0.008250  -0.000220   0.000243   0.004790  -0.000257
     7  H    0.007050   0.006649   0.000077   0.000008   0.000021  -0.000031
     8  H   -0.000016   0.000077  -0.000021  -0.000023   0.000001   0.000000
     9  H    0.000017   0.000015  -0.000001  -0.000007   0.000000   0.000000
    10  O    0.000048   0.002844   0.003799   0.013115  -0.000346  -0.000161
    11  O    0.000001  -0.000127   0.000007   0.000267  -0.000003   0.000000
    12  C   -0.000500   0.387393   0.388535  -0.038590  -0.040854  -0.037603
    13  C   -0.000110  -0.040346  -0.037204   0.384398   0.385210   0.392098
    14  C    0.386261   0.001021   0.001706  -0.000074   0.000043   0.000001
    15  O   -0.000066  -0.000008  -0.000006   0.000000   0.000000   0.000000
    16  Si  -0.000046  -0.000098  -0.000012   0.000003   0.000000  -0.000001
    17  C    0.000004   0.000000   0.000000   0.000000   0.000000   0.000000
    18  C    0.000000   0.000000   0.000000   0.000000   0.000000   0.000000
    19  C    0.000005   0.000033  -0.000003   0.000000   0.000000   0.000000
    20  H    0.000000   0.000000   0.000000   0.000000   0.000000   0.000000
    21  H    0.000000   0.000000   0.000000   0.000000   0.000000   0.000000
    22  H    0.000000   0.000000   0.000000   0.000000   0.000000   0.000000
    23  H    0.000000  -0.000002   0.000000   0.000000   0.000000   0.000000
    24  H   -0.000003   0.000039   0.000000   0.000000   0.000000   0.000000
    25  H   -0.000008   0.000013   0.000000   0.000000   0.000000   0.000000
    26  H    0.000000   0.000000   0.000000   0.000000   0.000000   0.000000
    27  H   -0.000012   0.000000   0.000000   0.000000   0.000000   0.000000
    28  H    0.000000   0.000000   0.000000   0.000000   0.000000   0.000000
    29  H   -0.024524  -0.000082   0.000372   0.000004  -0.000005  -0.000001
    30  H   -0.026691   0.000182   0.001272  -0.000018   0.000041   0.000005
    31  H    0.469465   0.000053   0.000186   0.000001  -0.000012   0.000002
    32  H    0.000053   0.485138  -0.025795  -0.004143   0.006863  -0.004745
    33  H    0.000186  -0.025795   0.477472   0.006968  -0.004730  -0.004737
    34  H    0.000001  -0.004143   0.006968   0.459996  -0.027415  -0.025518
    35  H   -0.000012   0.006863  -0.004730  -0.027415   0.485146  -0.027393
    36  H    0.000002  -0.004745  -0.004737  -0.025518  -0.027393   0.471163
    37  C    0.003953   0.000040   0.000002  -0.000002  -0.000011   0.000000
    38  C    0.000108   0.000000   0.000000   0.000000   0.000000   0.000000
    39  C   -0.000009   0.000000   0.000000   0.000000   0.000000   0.000000
    40  H   -0.000300  -0.000056  -0.000044  -0.000008  -0.000023   0.000002
    41  H    0.000130   0.000001  -0.000008   0.000000   0.000001   0.000000
    42  H    0.000008   0.000000   0.000000   0.000000   0.000000   0.000000
    43  H    0.000000   0.000000   0.000000   0.000000   0.000000   0.000000
    44  H    0.000004   0.000000   0.000000   0.000000   0.000000   0.000000
              37         38         39         40         41         42
     1  C   -0.000696  -0.000731  -0.000027   0.003707  -0.000472   0.000008
     2  C   -0.093059   0.010053  -0.000006  -0.009625  -0.008407  -0.000280
     3  C    0.268884  -0.057867  -0.002215  -0.023518  -0.045959  -0.002870
     4  C   -0.106613  -0.013663  -0.000516  -0.003730   0.007219   0.000483
     5  C   -0.000080   0.000537   0.000428   0.001910  -0.000314   0.000033
     6  H    0.007317   0.000084   0.000026  -0.002793  -0.000149  -0.000004
     7  H    0.009250  -0.000239  -0.000005  -0.000340  -0.000205   0.000007
     8  H    0.006185  -0.000123   0.000008   0.000186  -0.000142   0.000049
     9  H   -0.008072   0.009381   0.004178  -0.000583   0.000326  -0.000243
    10  O   -0.003868   0.000084  -0.000034   0.003934   0.000077  -0.000001
    11  O    0.000366  -0.000134  -0.000020  -0.000539   0.000003   0.000003
    12  C   -0.000358   0.000009   0.000000   0.000920  -0.000081   0.000001
    13  C   -0.000015  -0.000001   0.000000   0.000002   0.000002   0.000000
    14  C   -0.008045  -0.000348   0.000006   0.000619   0.002519  -0.000002
    15  O   -0.079889   0.008489   0.000981   0.003351   0.002350   0.003824
    16  Si   0.000413   0.001269   0.000616  -0.000009  -0.000013   0.000785
    17  C    0.000048  -0.000097  -0.000002   0.000003  -0.000046   0.000149
    18  C    0.000003  -0.000195  -0.000024   0.000004   0.000020   0.000361
    19  C   -0.000343   0.000031   0.000001   0.000011   0.000013   0.000021
    20  H    0.000000   0.000007   0.000000   0.000000   0.000000  -0.000001
    21  H    0.000137   0.000454   0.000061   0.000002   0.000009   0.000730
    22  H   -0.000010  -0.000052  -0.000014   0.000003   0.000000  -0.000025
    23  H    0.000006   0.000000   0.000000   0.000000   0.000000   0.000000
    24  H   -0.000076   0.000009   0.000000   0.000003   0.000001   0.000001
    25  H   -0.000081   0.000006   0.000000   0.000001   0.000002   0.000000
    26  H    0.000003  -0.000001   0.000000   0.000000   0.000001  -0.000010
    27  H   -0.000002   0.000005   0.000000  -0.000001  -0.000016  -0.000024
    28  H    0.000100  -0.000029  -0.000004  -0.000001  -0.000015   0.000259
    29  H   -0.000997  -0.000177   0.000004   0.000051   0.000767   0.000014
    30  H   -0.000102   0.000016   0.000000  -0.000055   0.000263  -0.000001
    31  H    0.003953   0.000108  -0.000009  -0.000300   0.000130   0.000008
    32  H    0.000040   0.000000   0.000000  -0.000056   0.000001   0.000000
    33  H    0.000002   0.000000   0.000000  -0.000044  -0.000008   0.000000
    34  H   -0.000002   0.000000   0.000000  -0.000008   0.000000   0.000000
    35  H   -0.000011   0.000000   0.000000  -0.000023   0.000001   0.000000
    36  H    0.000000   0.000000   0.000000   0.000002   0.000000   0.000000
    37  C    5.507435   0.328367  -0.062245   0.380090   0.393539  -0.045123
    38  C    0.328367   5.056406   0.616236  -0.048944  -0.037446   0.396498
    39  C   -0.062245   0.616236   5.151288   0.002366   0.000481  -0.040626
    40  H    0.380090  -0.048944   0.002366   0.454545  -0.019590   0.005153
    41  H    0.393539  -0.037446   0.000481  -0.019590   0.445705  -0.001709
    42  H   -0.045123   0.396498  -0.040626   0.005153  -0.001709   0.459298
    43  H    0.006283  -0.039310   0.392798   0.000098  -0.000328  -0.007878
    44  H   -0.008614  -0.038887   0.386483   0.004533   0.000131   0.005843
              43         44
     1  C    0.000000  -0.000021
     2  C    0.000016  -0.000022
     3  C   -0.000291  -0.000220
     4  C    0.000060  -0.000049
     5  C   -0.000007   0.000468
     6  H   -0.000001   0.000060
     7  H   -0.000001   0.000006
     8  H   -0.000005   0.000008
     9  H    0.000143  -0.000024
    10  O    0.000000  -0.000113
    11  O   -0.000001   0.000363
    12  C    0.000000  -0.000001
    13  C    0.000000   0.000000
    14  C    0.000000  -0.000003
    15  O    0.000012  -0.000002
    16  Si   0.000015  -0.000005
    17  C    0.000000   0.000000
    18  C    0.000004   0.000000
    19  C    0.000000   0.000000
    20  H    0.000000   0.000000
    21  H    0.000001   0.000001
    22  H    0.000002   0.000000
    23  H    0.000000   0.000000
    24  H    0.000000   0.000000
    25  H    0.000000   0.000000
    26  H    0.000000   0.000000
    27  H    0.000000   0.000000
    28  H   -0.000001   0.000000
    29  H    0.000000   0.000000
    30  H    0.000000   0.000000
    31  H    0.000000   0.000004
    32  H    0.000000   0.000000
    33  H    0.000000   0.000000
    34  H    0.000000   0.000000
    35  H    0.000000   0.000000
    36  H    0.000000   0.000000
    37  C    0.006283  -0.008614
    38  C   -0.039310  -0.038887
    39  C    0.392798   0.386483
    40  H    0.000098   0.004533
    41  H   -0.000328   0.000131
    42  H   -0.007878   0.005843
    43  H    0.456161  -0.033777
    44  H   -0.033777   0.460717
 Mulliken charges:
               1
     1  C   -0.027887
     2  C   -0.302462
     3  C    0.184248
     4  C   -0.630557
     5  C    0.474141
     6  H    0.244537
     7  H    0.255920
     8  H    0.276338
     9  H    0.287278
    10  O   -0.329423
    11  O   -0.382723
    12  C   -0.438771
    13  C   -0.664231
    14  C   -0.685650
    15  O   -0.638210
    16  Si   1.430891
    17  C   -1.044608
    18  C   -1.060714
    19  C   -1.077634
    20  H    0.236606
    21  H    0.244095
    22  H    0.245905
    23  H    0.243669
    24  H    0.247567
    25  H    0.245310
    26  H    0.233009
    27  H    0.241511
    28  H    0.241029
    29  H    0.261800
    30  H    0.242022
    31  H    0.232430
    32  H    0.229400
    33  H    0.241774
    34  H    0.240856
    35  H    0.222901
    36  H    0.229375
    37  C   -0.494121
    38  C   -0.189807
    39  C   -0.450215
    40  H    0.248665
    41  H    0.261338
    42  H    0.225270
    43  H    0.226007
    44  H    0.223123
 Sum of Mulliken charges =   0.00000
 Mulliken charges with hydrogens summed into heavy atoms:
               1
     1  C    0.216650
     2  C   -0.046542
     3  C    0.184248
     4  C   -0.066942
     5  C    0.474141
    10  O   -0.329423
    11  O   -0.382723
    12  C    0.032402
    13  C    0.028900
    14  C    0.050602
    15  O   -0.638210
    16  Si   1.430891
    17  C   -0.329059
    18  C   -0.334108
    19  C   -0.341088
    37  C    0.015881
    38  C    0.035463
    39  C   -0.001085
 Electronic spatial extent (au):  <R**2>=           5546.8387
 Charge=              0.0000 electrons
 Dipole moment (field-independent basis, Debye):
    X=              2.2500    Y=             -3.9593    Z=             -2.7841  Tot=              5.3375
 Quadrupole moment (field-independent basis, Debye-Ang):
   XX=           -119.7251   YY=           -120.1535   ZZ=           -126.6182
   XY=              7.4035   XZ=             12.5146   YZ=             -6.8492
 Traceless Quadrupole moment (field-independent basis, Debye-Ang):
   XX=              2.4405   YY=              2.0121   ZZ=             -4.4526
   XY=              7.4035   XZ=             12.5146   YZ=             -6.8492
 Octapole moment (field-independent basis, Debye-Ang**2):
  XXX=             17.3147  YYY=             -1.1468  ZZZ=             -7.6261  XYY=              5.4730
  XXY=            -22.8733  XXZ=            -15.1321  XZZ=              9.4591  YZZ=            -25.1636
  YYZ=            -13.0689  XYZ=             10.8518
 Hexadecapole moment (field-independent basis, Debye-Ang**3):
 XXXX=          -4298.0872 YYYY=          -2036.1805 ZZZZ=          -1202.0079 XXXY=             29.2696
 XXXZ=             69.2742 YYYX=             34.7556 YYYZ=              5.7543 ZZZX=             26.4058
 ZZZY=             -7.9488 XXYY=          -1043.4724 XXZZ=           -946.4402 YYZZ=           -607.7759
 XXYZ=            -58.3456 YYXZ=             22.3897 ZZXY=             27.1235
 N-N= 1.622791180622D+03 E-N=-5.740727736068D+03  KE= 1.060535403595D+03
 1\1\GINC-SWANNODE-0-15\SP\RmPW1PW91\6-311G(d)\C14H26O3Si1\KE291\06-Feb
 -2019\0\\# mPW1PW91/6-311g(d) geom=checkpoint nmr=giao scrf=(solvent=c
 hloroform)\\P_ng_2ginp018\\0,1\C,0,-0.0445666594,0.2281380676,0.956220
 5275\C,0,-0.9849953729,1.3179151687,0.4142610512\C,0,-2.2423108443,1.4
 808854711,1.3153564252\C,0,-1.7427153169,1.8307201876,2.7239960843\C,0
 ,-0.6929273409,0.8866450325,3.276301031\H,0,-0.4711532831,-0.757119808
 8,0.72744936\H,0,-0.4542660619,2.2778356491,0.472956312\H,0,-1.2738140
 349,2.8220893566,2.7096788033\H,0,-2.559958148,1.8660453758,3.44630618
 68\O,0,0.1127160228,0.2390571006,2.4103376721\O,0,-0.5113493257,0.7337
 673473,4.4661252512\C,0,1.3744876497,0.2976560724,0.3864838851\C,0,2.2
 834901846,-0.8430411259,0.853945962\C,0,-1.3256573463,1.0551973662,-1.
 0609867235\O,0,-3.0740203771,2.5090697835,0.7849788106\Si,0,-3.1754992
 207,4.1848821312,0.9037387546\C,0,-4.4036245866,4.6449959066,-0.444577
 486\C,0,-3.8439518575,4.7063349978,2.589048579\C,0,-1.5200239087,5.034
 3250946,0.5775067674\H,0,-4.0442404989,5.7842086615,2.5968722313\H,0,-
 4.784728426,4.1927320647,2.8138689388\H,0,-3.1446916629,4.4962659342,3
 .4043354796\H,0,-1.6612329235,6.1216719593,0.5795135738\H,0,-0.7629890
 749,4.8065604604,1.3352268377\H,0,-1.1124479273,4.7571309935,-0.400432
 1667\H,0,-4.5837245892,5.7257539814,-0.4563531541\H,0,-4.0316899837,4.
 3563760322,-1.4331709938\H,0,-5.3666580847,4.147371945,-0.2902685192\H
 ,0,-2.1227440268,1.7280741909,-1.3831803407\H,0,-0.459514838,1.2270398
 155,-1.7045599357\H,0,-1.6618705387,0.0263392993,-1.2260225725\H,0,1.8
 086194788,1.2666289691,0.6632706279\H,0,1.304301922,0.2830714798,-0.70
 61769431\H,0,2.3941689335,-0.8397264607,1.9409617655\H,0,1.8771160284,
 -1.8170780853,0.5591317029\H,0,3.2785969403,-0.7486646731,0.4090295471
 \C,0,-3.1154273395,0.1968052145,1.3448894476\C,0,-4.3613696564,0.32364
 65881,2.1786219649\C,0,-4.6610618804,-0.4510523134,3.2225563919\H,0,-2
 .5203613546,-0.6491466479,1.7065823644\H,0,-3.4007480538,-0.0259081581
 ,0.3097867597\H,0,-5.0527226564,1.1079987495,1.8767693445\H,0,-5.58382
 5764,-0.3227516399,3.7809895887\H,0,-3.9968341954,-1.2453945353,3.5558
 468057\\Version=EM64L-G09RevD.01\State=1-A\HF=-1064.3851413\RMSD=9.715
 e-09\Dipole=-0.2583825,0.7827968,-1.9313874\Quadrupole=1.67864,6.10635
 61,-7.7849962,0.3600475,-8.5974699,5.1614561\PG=C01 [X(C14H26O3Si1)]\\
 @


 THE CAUTIOUS SELDOM ERR...CONFUCIUS                   
 Job cpu time:       0 days  0 hours 47 minutes 19.5 seconds.
 File lengths (MBytes):  RWF=    244 Int=      0 D2E=      0 Chk=     19 Scr=      1
 Normal termination of Gaussian 09 at Wed Feb  6 17:04:56 2019.
