 Entering Gaussian System, Link 0=/usr/local/shared/gaussian/em64t/09-D01/g09/g09
 Initial command:
 /usr/local/shared/gaussian/em64t/09-D01/g09/l1.exe "/scratch/ke291/P_ng_correct1ginp007/Gau-18881.inp" -scrdir="/scratch/ke291/P_ng_correct1ginp007/"
 Entering Link 1 = /usr/local/shared/gaussian/em64t/09-D01/g09/l1.exe PID=     18885.
  
 Copyright (c) 1988,1990,1992,1993,1995,1998,2003,2009,2013,
            Gaussian, Inc.  All Rights Reserved.
  
 This is part of the Gaussian(R) 09 program.  It is based on
 the Gaussian(R) 03 system (copyright 2003, Gaussian, Inc.),
 the Gaussian(R) 98 system (copyright 1998, Gaussian, Inc.),
 the Gaussian(R) 94 system (copyright 1995, Gaussian, Inc.),
 the Gaussian 92(TM) system (copyright 1992, Gaussian, Inc.),
 the Gaussian 90(TM) system (copyright 1990, Gaussian, Inc.),
 the Gaussian 88(TM) system (copyright 1988, Gaussian, Inc.),
 the Gaussian 86(TM) system (copyright 1986, Carnegie Mellon
 University), and the Gaussian 82(TM) system (copyright 1983,
 Carnegie Mellon University). Gaussian is a federally registered
 trademark of Gaussian, Inc.
  
 This software contains proprietary and confidential information,
 including trade secrets, belonging to Gaussian, Inc.
  
 This software is provided under written license and may be
 used, copied, transmitted, or stored only in accord with that
 written license.
  
 The following legend is applicable only to US Government
 contracts under FAR:
  
                    RESTRICTED RIGHTS LEGEND
  
 Use, reproduction and disclosure by the US Government is
 subject to restrictions as set forth in subparagraphs (a)
 and (c) of the Commercial Computer Software - Restricted
 Rights clause in FAR 52.227-19.
  
 Gaussian, Inc.
 340 Quinnipiac St., Bldg. 40, Wallingford CT 06492
  
  
 ---------------------------------------------------------------
 Warning -- This program may not be used in any manner that
 competes with the business of Gaussian, Inc. or will provide
 assistance to any competitor of Gaussian, Inc.  The licensee
 of this program is prohibited from giving any competitor of
 Gaussian, Inc. access to this program.  By using this program,
 the user acknowledges that Gaussian, Inc. is engaged in the
 business of creating and licensing software in the field of
 computational chemistry and represents and warrants to the
 licensee that it is not a competitor of Gaussian, Inc. and that
 it will not use this program in any manner prohibited above.
 ---------------------------------------------------------------
  

 Cite this work as:
 Gaussian 09, Revision D.01,
 M. J. Frisch, G. W. Trucks, H. B. Schlegel, G. E. Scuseria, 
 M. A. Robb, J. R. Cheeseman, G. Scalmani, V. Barone, B. Mennucci, 
 G. A. Petersson, H. Nakatsuji, M. Caricato, X. Li, H. P. Hratchian, 
 A. F. Izmaylov, J. Bloino, G. Zheng, J. L. Sonnenberg, M. Hada, 
 M. Ehara, K. Toyota, R. Fukuda, J. Hasegawa, M. Ishida, T. Nakajima, 
 Y. Honda, O. Kitao, H. Nakai, T. Vreven, J. A. Montgomery, Jr., 
 J. E. Peralta, F. Ogliaro, M. Bearpark, J. J. Heyd, E. Brothers, 
 K. N. Kudin, V. N. Staroverov, T. Keith, R. Kobayashi, J. Normand, 
 K. Raghavachari, A. Rendell, J. C. Burant, S. S. Iyengar, J. Tomasi, 
 M. Cossi, N. Rega, J. M. Millam, M. Klene, J. E. Knox, J. B. Cross, 
 V. Bakken, C. Adamo, J. Jaramillo, R. Gomperts, R. E. Stratmann, 
 O. Yazyev, A. J. Austin, R. Cammi, C. Pomelli, J. W. Ochterski, 
 R. L. Martin, K. Morokuma, V. G. Zakrzewski, G. A. Voth, 
 P. Salvador, J. J. Dannenberg, S. Dapprich, A. D. Daniels, 
 O. Farkas, J. B. Foresman, J. V. Ortiz, J. Cioslowski, 
 and D. J. Fox, Gaussian, Inc., Wallingford CT, 2013.
 
 ******************************************
 Gaussian 09:  EM64L-G09RevD.01 24-Apr-2013
                 7-Feb-2019 
 ******************************************
 %nprocshared=2
 Will use up to    2 processors via shared memory.
 %mem=6000MB
 %chk=P_ng_correct1ginp007.chk
 ----------------------------------------------------------------------
 # mPW1PW91/6-311g(d) geom=checkpoint nmr=giao scrf=(solvent=chloroform
 )
 ----------------------------------------------------------------------
 1/29=2,38=1/1;
 2/12=2,40=1/2;
 3/5=4,6=6,7=1,11=2,14=-4,16=1,25=1,30=1,70=2201,72=7,74=-7/1,2,8,3;
 4//1;
 5/5=2,38=5,53=7/2;
 8/6=1,10=90,11=11/1;
 10/13=100,45=16/2;
 6/7=2,8=2,9=2,10=2,28=1/1;
 99/9=1/99;
 --------------------
 P_ng_correct1ginp007
 --------------------
 Structure from the checkpoint file:  "P_ng_correct1ginp007.chk"
 Charge =  0 Multiplicity = 1
 Redundant internal coordinates found in file.
 C,0,1.0903911286,-0.118278018,0.8244900851
 C,0,-0.4062270976,-0.2349388645,0.5010171491
 C,0,-1.2288245434,0.8041488753,1.3155477897
 C,0,-0.7122969472,2.1803517462,0.8632071655
 C,0,0.7907309578,2.3558892497,0.9666753242
 H,0,1.2727808143,-0.5248835523,1.8277193819
 H,0,-0.5467035923,0.0575528655,-0.5491312799
 H,0,-0.9730356282,2.3260220662,-0.1916482904
 H,0,-1.166597652,2.9998327897,1.425783706
 O,0,1.5745950624,1.2632165687,0.8825635857
 O,0,1.3148134517,3.444675164,1.0789184693
 C,0,2.002096437,-0.8327277014,-0.1759888194
 C,0,3.4886345779,-0.7674147974,0.1875693778
 C,0,-0.8944208853,-1.6848582001,0.6400985955
 O,0,-2.5926883953,0.6247803673,0.9480438668
 Si,0,-3.973154968,1.5899315087,0.9139274095
 C,0,-5.357629675,0.3558738954,0.6025988259
 C,0,-4.2623601271,2.4991596011,2.5431206906
 C,0,-3.9053590455,2.8381555563,-0.5006939778
 H,0,-4.3045881553,1.8092228322,3.3923892444
 H,0,-3.4905601744,3.2473309931,2.7526519299
 H,0,-5.2219191698,3.0278793092,2.4984102268
 H,0,-3.1714715577,3.6318191285,-0.3295238994
 H,0,-3.6605042233,2.3499390184,-1.450081571
 H,0,-4.8843642707,3.3175551583,-0.618574707
 H,0,-5.1930932077,-0.1926133835,-0.3307163965
 H,0,-5.4293981113,-0.3762254666,1.4136010468
 H,0,-6.3242256398,0.8659192786,0.5248489244
 H,0,-0.4803857137,-2.3130291684,-0.152956544
 H,0,-0.6168944198,-2.1198251725,1.6030656879
 H,0,-1.9820116074,-1.7131755311,0.5539183745
 H,0,1.8343226801,-0.3950562326,-1.1681730818
 H,0,1.6882157188,-1.8798223979,-0.2343669434
 H,0,4.0886784538,-1.3060672316,-0.5519795946
 H,0,3.8416911143,0.2657888884,0.2259615767
 H,0,3.6756911744,-1.2244363273,1.1658297876
 C,0,-1.090426023,0.7019858894,2.8605542767
 C,0,-1.6355469053,-0.5387949397,3.5137129167
 C,0,-1.013862211,-1.2251919931,4.4742225256
 H,0,-1.6338969348,1.5670829349,3.2647610639
 H,0,-0.0432500396,0.8440430052,3.15202163
 H,0,-2.6261897864,-0.8504107996,3.1881279413
 H,0,-1.4722482264,-2.0910154827,4.9430341566
 H,0,-0.0251026368,-0.9446474295,4.8307173727
 Recover connectivity data from disk.
                          Input orientation:                          
 ---------------------------------------------------------------------
 Center     Atomic      Atomic             Coordinates (Angstroms)
 Number     Number       Type             X           Y           Z
 ---------------------------------------------------------------------
      1          6           0        1.090391   -0.118278    0.824490
      2          6           0       -0.406227   -0.234939    0.501017
      3          6           0       -1.228825    0.804149    1.315548
      4          6           0       -0.712297    2.180352    0.863207
      5          6           0        0.790731    2.355889    0.966675
      6          1           0        1.272781   -0.524884    1.827719
      7          1           0       -0.546704    0.057553   -0.549131
      8          1           0       -0.973036    2.326022   -0.191648
      9          1           0       -1.166598    2.999833    1.425784
     10          8           0        1.574595    1.263217    0.882564
     11          8           0        1.314813    3.444675    1.078918
     12          6           0        2.002096   -0.832728   -0.175989
     13          6           0        3.488635   -0.767415    0.187569
     14          6           0       -0.894421   -1.684858    0.640099
     15          8           0       -2.592688    0.624780    0.948044
     16         14           0       -3.973155    1.589932    0.913927
     17          6           0       -5.357630    0.355874    0.602599
     18          6           0       -4.262360    2.499160    2.543121
     19          6           0       -3.905359    2.838156   -0.500694
     20          1           0       -4.304588    1.809223    3.392389
     21          1           0       -3.490560    3.247331    2.752652
     22          1           0       -5.221919    3.027879    2.498410
     23          1           0       -3.171472    3.631819   -0.329524
     24          1           0       -3.660504    2.349939   -1.450082
     25          1           0       -4.884364    3.317555   -0.618575
     26          1           0       -5.193093   -0.192613   -0.330716
     27          1           0       -5.429398   -0.376225    1.413601
     28          1           0       -6.324226    0.865919    0.524849
     29          1           0       -0.480386   -2.313029   -0.152957
     30          1           0       -0.616894   -2.119825    1.603066
     31          1           0       -1.982012   -1.713176    0.553918
     32          1           0        1.834323   -0.395056   -1.168173
     33          1           0        1.688216   -1.879822   -0.234367
     34          1           0        4.088678   -1.306067   -0.551980
     35          1           0        3.841691    0.265789    0.225962
     36          1           0        3.675691   -1.224436    1.165830
     37          6           0       -1.090426    0.701986    2.860554
     38          6           0       -1.635547   -0.538795    3.513713
     39          6           0       -1.013862   -1.225192    4.474223
     40          1           0       -1.633897    1.567083    3.264761
     41          1           0       -0.043250    0.844043    3.152022
     42          1           0       -2.626190   -0.850411    3.188128
     43          1           0       -1.472248   -2.091015    4.943034
     44          1           0       -0.025103   -0.944647    4.830717
 ---------------------------------------------------------------------
                    Distance matrix (angstroms):
                    1          2          3          4          5
     1  C    0.000000
     2  C    1.535614   0.000000
     3  C    2.543771   1.555580   0.000000
     4  C    2.921452   2.461400   1.537969   0.000000
     5  C    2.496301   2.891701   2.570645   1.516777   0.000000
     6  H    1.097754   2.159462   2.878659   3.491291   3.045098
     7  H    2.144255   1.099135   2.121255   2.555073   3.060842
     8  H    3.356318   2.712854   2.157120   1.096323   2.110327
     9  H    3.895917   3.449218   2.199330   1.092900   2.111061
    10  O    1.465044   2.512708   2.873566   2.464018   1.347387
    11  O    3.579069   4.103110   3.674026   2.398796   1.213555
    12  C    1.530556   2.572102   3.917001   4.186467   3.597272
    13  C    2.564882   3.943568   5.098683   5.176257   4.200085
    14  C    2.535282   1.536211   2.600618   3.875925   4.390220
    15  O    3.759319   2.391561   1.423853   2.441899   3.800607
    16  Si   5.344668   4.027856   2.882725   3.314267   4.825358
    17  C    6.469237   4.987561   4.213820   4.997575   6.475720
    18  C    6.201340   5.149295   3.685422   3.940393   5.295228
    19  C    5.954337   4.763534   3.820962   3.533918   4.943583
    20  H    6.278150   5.266484   3.844966   4.408974   5.669675
    21  H    6.002520   5.168092   3.626273   3.525222   4.723752
    22  H    7.248833   6.150321   4.721117   4.871230   6.240973
    23  H    5.792966   4.825784   3.804715   3.094657   4.359722
    24  H    5.816939   4.591154   3.993900   3.751265   5.065002
    25  H    7.041668   5.824724   4.839526   4.571111   5.970304
    26  H    6.389226   4.858771   4.406716   5.209026   6.632062
    27  H    6.551430   5.107349   4.364369   5.393521   6.808392
    28  H    7.485651   6.019565   5.156756   5.773730   7.282707
    29  H    2.870483   2.179826   3.526112   4.612683   4.966700
    30  H    2.743573   2.193556   3.001125   4.364403   4.734810
    31  H    3.472257   2.161268   2.735743   4.106993   4.941230
    32  H    2.144935   2.798553   4.121873   4.152650   3.635156
    33  H    2.140470   2.762811   4.256179   4.842741   4.493243
    34  H    3.506457   4.739229   6.018015   6.099773   5.156811
    35  H    2.841724   4.286163   5.214131   4.981008   3.771675
    36  H    2.832645   4.252427   5.309600   5.562248   4.602324
    37  C    3.094245   2.629329   1.554553   2.513552   3.140211
    38  C    3.852206   3.268010   2.607844   3.907855   4.555592
    39  C    4.355880   4.139587   3.760540   4.972736   5.327625
    40  H    4.027047   3.520332   2.132038   2.644410   3.432526
    41  H    2.761993   2.885096   2.186279   2.733499   2.785129
    42  H    4.464950   3.539436   2.862997   4.272442   5.185611
    43  H    5.236527   4.930815   4.647568   5.955425   6.380240
    44  H    4.239937   4.404003   4.106538   5.096959   5.146839
                    6          7          8          9         10
     6  H    0.000000
     7  H    3.049455   0.000000
     8  H    4.153216   2.335702   0.000000
     9  H    4.305316   3.597439   1.762831   0.000000
    10  O    2.044924   2.829007   2.962078   3.290146   0.000000
    11  O    4.039785   4.193851   2.846046   2.544720   2.205630
    12  C    2.154418   2.725475   4.339281   5.224444   2.386687
    13  C    2.767476   4.184167   5.442395   6.115269   2.875766
    14  C    2.729972   2.138030   4.096968   4.757910   3.853047
    15  O    4.127640   2.597948   2.610823   2.811200   4.216413
    16  Si   5.729511   4.028560   3.280982   3.182229   5.557451
    17  C    6.799926   4.955854   4.872061   5.023236   6.996956
    18  C    6.347789   5.415678   4.281191   3.329093   6.193145
    19  C    6.598839   4.360581   2.992710   3.352353   5.867174
    20  H    6.245261   5.720632   4.920533   3.889997   6.415773
    21  H    6.146098   5.453691   3.981915   2.687496   5.752368
    22  H    7.433241   6.322024   5.077601   4.194871   7.205387
    23  H    6.456257   4.439934   2.560710   2.738618   5.441009
    24  H    6.583759   3.970202   2.967611   3.861675   5.833392
    25  H    7.658925   5.426577   4.057573   4.254661   6.942037
    26  H    6.824718   4.658243   4.916477   5.430439   7.028022
    27  H    6.716606   5.280264   5.453268   5.437774   7.212884
    28  H    7.832389   5.931834   5.592898   5.653883   7.916892
    29  H    3.192826   2.404373   4.665297   5.584784   4.252621
    30  H    2.482978   3.062328   4.807639   5.152135   4.094719
    31  H    3.691650   2.532253   4.229541   4.861841   4.649341
    32  H    3.050829   2.501470   4.029780   5.221054   2.650066
    33  H    2.502128   2.974452   4.977269   5.892121   3.337535
    34  H    3.768620   4.831794   6.240422   7.076033   3.870368
    35  H    3.128912   4.461181   5.253623   5.830740   2.562365
    36  H    2.588716   4.734259   6.004928   6.431157   3.268526
    37  C    2.855994   3.512390   3.459366   2.710068   3.365972
    38  C    3.361717   4.248284   4.730306   4.135366   4.524953
    39  C    3.566952   5.205550   5.863714   5.212211   5.078612
    40  H    3.858781   4.243400   3.599929   2.377599   4.007695
    41  H    2.315097   3.817141   3.773711   2.981482   2.818434
    42  H    4.142300   4.372158   4.923975   4.478911   5.237331
    43  H    4.437695   5.969662   6.791495   6.195257   6.084534
    44  H    3.298287   5.497203   6.067950   5.334370   4.798084
                   11         12         13         14         15
    11  O    0.000000
    12  C    4.510358   0.000000
    13  C    4.823039   1.531743   0.000000
    14  C    5.602267   3.127609   4.500851   0.000000
    15  O    4.820530   4.949730   6.284824   2.883292   0.000000
    16  Si   5.606238   6.539176   7.858943   4.503092   1.684746
    17  C    7.368112   7.495635   8.926949   4.907772   2.799383
    18  C    5.843180   7.598582   8.734818   5.698290   2.974117
    19  C    5.487553   6.962675   8.254998   5.552010   2.953130
    20  H    6.293213   7.712814   8.811598   5.604725   3.210659
    21  H    5.092342   7.442654   8.450266   5.960647   3.307651
    22  H    6.702056   8.616443   9.778445   6.662616   3.884762
    23  H    4.705899   6.835317   7.998604   5.864485   3.318049
    24  H    5.687537   6.619496   7.969315   5.319742   3.141243
    25  H    6.428643   8.052582   9.351147   6.521353   3.867442
    26  H    7.587476   7.225264   8.716158   4.652726   3.010891
    27  H    7.758588   7.613298   9.010410   4.782974   3.043958
    28  H    8.081577   8.526677   9.953580   6.000211   3.763192
    29  H    6.155600   2.890422   4.272939   1.093142   3.782162
    30  H    5.913534   3.417714   4.548408   1.092485   3.444659
    31  H    6.143949   4.145005   5.563870   1.091367   2.448326
    32  H    4.479157   1.097330   2.171045   3.518448   5.011673
    33  H    5.496765   1.094686   2.158006   2.733626   5.098752
    34  H    5.737919   2.172382   1.094135   5.137685   7.114696
    35  H    4.149453   2.180003   1.092535   5.138802   6.484714
    36  H    5.232772   2.180558   1.095834   4.623235   6.539084
    37  C    4.059772   4.597786   5.501980   3.265864   2.433197
    38  C    5.522761   5.189677   6.113324   3.181256   2.975346
    39  C    6.225631   5.556483   6.233573   3.863427   4.283576
    40  H    4.122882   5.551423   6.415553   4.243913   2.678506
    41  H    3.592406   4.250959   4.884566   3.664641   3.377163
    42  H    6.199035   5.721768   6.811851   3.191830   2.682403
    43  H    7.303627   6.313379   6.998337   4.360516   4.958919
    44  H    5.927691   5.402700   5.825511   4.343376   4.912306
                   16         17         18         19         20
    16  Si   0.000000
    17  C    1.880583   0.000000
    18  C    1.888016   3.091749   0.000000
    19  C    1.887806   3.080271   3.083371   0.000000
    20  H    2.510121   3.317235   1.095013   4.046503   0.000000
    21  H    2.522058   4.058226   1.095143   3.305109   1.772022
    22  H    2.477437   3.279044   1.096493   3.280846   1.767998
    23  H    2.521542   4.047216   3.274911   1.094437   4.296330
    24  H    2.502779   3.327165   4.041059   1.095284   4.914951
    25  H    2.482650   3.238333   3.324602   1.096436   4.324238
    26  H    2.492961   1.094983   4.046090   3.297380   4.319526
    27  H    2.497217   1.094918   3.302368   4.039736   3.155469
    28  H    2.490604   1.095673   3.315446   3.285174   3.632017
    29  H    5.345164   5.610830   6.687998   6.195649   6.647327
    30  H    5.049920   5.441010   5.958871   6.310418   5.677868
    31  H    3.873600   3.959562   5.186587   5.052335   5.085132
    32  H    6.480904   7.444710   7.701930   6.621415   7.958882
    33  H    6.738612   7.439273   7.892989   7.322453   7.916825
    34  H    8.690734   9.660633   9.685001   9.004546   9.783149
    35  H    7.956034   9.207468   8.719680   8.195235   8.875264
    36  H    8.154077   9.187791   8.875514   8.760952   8.823010
    37  C    3.589976   4.840164   3.659476   4.876993   3.440881
    38  C    4.093259   4.809253   4.131751   5.715882   3.556921
    39  C    5.418306   6.029723   5.305911   7.044242   4.605097
    40  H    3.316484   4.735010   2.880686   4.577534   2.684681
    41  H    4.583620   5.914431   4.572861   5.677561   4.375883
    42  H    3.597440   3.949791   3.783214   5.371145   3.151570
    43  H    6.003133   6.318452   5.883368   7.736338   5.063448
    44  H    6.111665   6.928505   5.920072   7.601969   5.288344
                   21         22         23         24         25
    21  H    0.000000
    22  H    1.763633   0.000000
    23  H    3.122412   3.544896   0.000000
    24  H    4.300833   4.299792   1.771445   0.000000
    25  H    3.648670   3.148563   1.765308   1.767913   0.000000
    26  H    4.923312   4.286766   4.325880   3.172756   3.535457
    27  H    4.322304   3.578797   4.919465   4.331470   4.250978
    28  H    4.320172   3.127954   4.280188   3.632916   3.064496
    29  H    6.958543   7.618214   6.527966   5.791283   7.163470
    30  H    6.195633   6.964679   6.583478   6.209997   7.260309
    31  H    5.631765   6.062644   5.546553   4.831382   5.925086
    32  H    7.549452   8.657417   6.478969   6.148788   7.695862
    33  H    7.875894   8.905255   7.348728   6.926590   8.388037
    34  H    9.439220  10.713319   8.783051   8.615266  10.094445
    35  H    8.308770   9.743829   7.798921   7.964656   9.282810
    36  H    8.594758   9.951152   8.526602   8.569651   9.853341
    37  C    3.500153   4.755015   4.805338   5.282294   5.774037
    38  C    4.284278   5.158883   5.875675   6.089704   6.519360
    39  C    5.394562   6.300809   7.163925   7.408350   7.845631
    40  H    2.555912   3.949066   4.421103   5.191314   5.358170
    41  H    4.221284   5.658177   5.447809   6.044138   6.616045
    42  H    4.210494   4.717484   5.723774   5.729313   6.079661
    43  H    6.113043   6.799949   7.964802   8.085943   8.475061
    44  H    5.822408   6.944604   7.581014   7.969873   8.454205
                   26         27         28         29         30
    26  H    0.000000
    27  H    1.769801   0.000000
    28  H    1.769730   1.770175   0.000000
    29  H    5.170819   5.540581   6.686972   0.000000
    30  H    5.328720   5.122131   6.530762   1.771885   0.000000
    31  H    3.661384   3.796177   5.050485   1.764760   1.769073
    32  H    7.080035   7.708927   8.427235   3.172879   4.082041
    33  H    7.085786   7.459023   8.503806   2.212946   2.957582
    34  H    9.350937   9.763293  10.691382   4.695694   5.239164
    35  H    9.063518   9.368872  10.188000   5.047200   5.240854
    36  H    9.053157   9.147869  10.236151   4.494130   4.406721
    37  C    5.274125   4.699244   5.733677   4.306241   3.125400
    38  C    5.249344   4.339378   5.735001   4.234002   2.681023
    39  C    6.451328   5.439219   6.940480   4.783176   3.033396
    40  H    5.356479   4.648556   5.477037   5.297797   4.169990
    41  H    6.302778   5.789797   6.808316   4.591413   3.393059
    42  H    4.404992   3.351384   4.869734   4.231616   2.856764
    43  H    6.727634   5.572830   7.197604   5.196364   3.447876
    44  H    7.342621   6.419205   7.842041   5.188136   3.485541
                   31         32         33         34         35
    31  H    0.000000
    32  H    4.389470   0.000000
    33  H    3.757623   1.760077   0.000000
    34  H    6.184014   2.508337   2.488432   0.000000
    35  H    6.159494   2.531769   3.074574   1.771137   0.000000
    36  H    5.711646   3.086435   2.517964   1.768641   1.769655
    37  C    3.456660   5.097872   4.895418   6.519263   5.608665
    38  C    3.203060   5.829298   5.185929   7.062954   6.438696
    39  C    4.067459   6.374787   5.468142   7.162763   6.621718
    40  H    4.269654   5.960658   5.929712   7.454554   6.396072
    41  H    4.128959   4.870804   4.678145   5.951087   4.897854
    42  H    2.845767   6.251470   5.602433   7.699707   7.200959
    43  H    4.434745   7.152380   6.069482   7.857177   7.486204
    44  H    4.765620   6.304459   5.428176   6.784338   6.133598
                   36         37         38         39         40
    36  H    0.000000
    37  C    5.412861   0.000000
    38  C    5.847385   1.504430   0.000000
    39  C    5.739109   2.514717   1.334246   0.000000
    40  H    6.355298   1.098698   2.120543   3.105485   0.000000
    41  H    4.696178   1.096226   2.139736   2.640461   1.750901
    42  H    6.628973   2.208124   1.088340   2.096211   2.614344
    43  H    6.443564   3.504764   2.116368   1.086072   4.027954
    44  H    5.215895   2.779902   2.119610   1.087860   3.368861
                   41         42         43         44
    41  H    0.000000
    42  H    3.089345   0.000000
    43  H    3.723484   2.439339   0.000000
    44  H    2.453113   3.077765   1.849596   0.000000
 Stoichiometry    C14H26O3Si
 Framework group  C1[X(C14H26O3Si)]
 Deg. of freedom   126
 Full point group                 C1      NOp   1
 Largest Abelian subgroup         C1      NOp   1
 Largest concise Abelian subgroup C1      NOp   1
                         Standard orientation:                         
 ---------------------------------------------------------------------
 Center     Atomic      Atomic             Coordinates (Angstroms)
 Number     Number       Type             X           Y           Z
 ---------------------------------------------------------------------
      1          6           0        2.401382    0.141586    0.350229
      2          6           0        1.005188    0.323085    0.963265
      3          6           0       -0.101476    0.039970   -0.092657
      4          6           0        0.091038   -1.429596   -0.503339
      5          6           0        1.494104   -1.778461   -0.961937
      6          1           0        2.608591    0.982648   -0.324117
      7          1           0        0.869765   -0.455821    1.726850
      8          1           0       -0.124280   -2.068795    0.360946
      9          1           0       -0.588235   -1.729002   -1.305446
     10          8           0        2.526224   -1.054107   -0.487078
     11          8           0        1.725679   -2.709838   -1.704652
     12          6           0        3.527256    0.041342    1.382199
     13          6           0        4.923558   -0.074510    0.763204
     14          6           0        0.879731    1.681423    1.669750
     15          8           0       -1.350874    0.226978    0.564145
     16         14           0       -2.920401   -0.352249    0.365523
     17          6           0       -3.934522    0.741181    1.511195
     18          6           0       -3.535471   -0.184530   -1.411600
     19          6           0       -3.064130   -2.152706    0.914619
     20          1           0       -3.465259    0.847450   -1.770961
     21          1           0       -2.987400   -0.824704   -2.110982
     22          1           0       -4.590082   -0.480719   -1.460224
     23          1           0       -2.561252   -2.844493    0.231731
     24          1           0       -2.642131   -2.298034    1.914841
     25          1           0       -4.120395   -2.443820    0.956195
     26          1           0       -3.576485    0.668153    2.543409
     27          1           0       -3.879883    1.792699    1.210913
     28          1           0       -4.989077    0.444007    1.501157
     29          1           0        1.488935    1.706303    2.577060
     30          1           0        1.188667    2.508061    1.025739
     31          1           0       -0.158993    1.846133    1.961305
     32          1           0        3.325789   -0.822046    2.028810
     33          1           0        3.484982    0.930789    2.018936
     34          1           0        5.686947   -0.127166    1.545250
     35          1           0        5.008499   -0.969885    0.142945
     36          1           0        5.149382    0.794133    0.134462
     37          6           0       -0.048861    0.926093   -1.368845
     38          6           0       -0.316103    2.395794   -1.190327
     39          6           0        0.387534    3.369928   -1.770127
     40          1           0       -0.814663    0.519685   -2.043765
     41          1           0        0.908723    0.783885   -1.883160
     42          1           0       -1.175027    2.650365   -0.572324
     43          1           0        0.124737    4.415891   -1.641861
     44          1           0        1.250143    3.157910   -2.398135
 ---------------------------------------------------------------------
 Rotational constants (GHZ):      0.5275455      0.2485278      0.2216604
 Standard basis: 6-311G(d) (5D, 7F)
 There are   428 symmetry adapted cartesian basis functions of A   symmetry.
 There are   410 symmetry adapted basis functions of A   symmetry.
   410 basis functions,   720 primitive gaussians,   428 cartesian basis functions
    74 alpha electrons       74 beta electrons
       nuclear repulsion energy      1616.9435717841 Hartrees.
 NAtoms=   44 NActive=   44 NUniq=   44 SFac= 1.00D+00 NAtFMM=   60 NAOKFM=F Big=F
 Integral buffers will be    131072 words long.
 Raffenetti 2 integral format.
 Two-electron integral symmetry is turned on.
 ------------------------------------------------------------------------------
 Polarizable Continuum Model (PCM)
 =================================
 Model                : PCM (using non-symmetric T matrix).
 Atomic radii         : UFF (Universal Force Field).
 Polarization charges : Total charges.
 Charge compensation  : None.
 Solution method      : On-the-fly selection.
 Cavity type          : Scaled VdW (van der Waals Surface) (Alpha=1.100).
 Cavity algorithm     : GePol (No added spheres)
                        Default sphere list used, NSphG=   44.
                        Lebedev-Laikov grids with approx.  5.0 points / Ang**2.
                        Smoothing algorithm: Karplus/York (Gamma=1.0000).
                        Polarization charges: spherical gaussians, with
                                              point-specific exponents (IZeta= 3).
                        Self-potential: point-specific (ISelfS= 7).
                        Self-field    : sphere-specific E.n sum rule (ISelfD= 2).
 Solvent              : Chloroform, Eps=   4.711300 Eps(inf)=   2.090627
 ------------------------------------------------------------------------------
 One-electron integrals computed using PRISM.
 NBasis=   410 RedAO= T EigKep=  1.12D-03  NBF=   410
 NBsUse=   410 1.00D-06 EigRej= -1.00D+00 NBFU=   410
 ExpMin= 6.54D-02 ExpMax= 6.94D+04 ExpMxC= 2.33D+03 IAcc=2 IRadAn=         4 AccDes= 0.00D+00
 Harris functional with IExCor=  908 and IRadAn=       4 diagonalized for initial guess.
 HarFok:  IExCor=  908 AccDes= 0.00D+00 IRadAn=         4 IDoV= 1 UseB2=F ITyADJ=14
 ICtDFT=  3500011 ScaDFX=  1.000000  1.000000  1.000000  1.000000
 FoFCou: FMM=F IPFlag=           0 FMFlag=      100000 FMFlg1=           0
         NFxFlg=           0 DoJE=T BraDBF=F KetDBF=T FulRan=T
         wScrn=  0.000000 ICntrl=     500 IOpCl=  0 I1Cent=   200000004 NGrid=           0
         NMat0=    1 NMatS0=      1 NMatT0=    0 NMatD0=    1 NMtDS0=    0 NMtDT0=    0
 Petite list used in FoFCou.
 Requested convergence on RMS density matrix=1.00D-08 within 128 cycles.
 Requested convergence on MAX density matrix=1.00D-06.
 Requested convergence on             energy=1.00D-06.
 No special actions if energy rises.
 Inv3:  Mode=1 IEnd=    25631787.
 Iteration    1 A*A^-1 deviation from unit magnitude is 9.33D-15 for     13.
 Iteration    1 A*A^-1 deviation from orthogonality  is 6.88D-15 for   2425    442.
 Iteration    1 A^-1*A deviation from unit magnitude is 1.74D-14 for     13.
 Iteration    1 A^-1*A deviation from orthogonality  is 3.01D-10 for   2309   2308.
 Iteration    2 A*A^-1 deviation from unit magnitude is 2.66D-14 for     13.
 Iteration    2 A*A^-1 deviation from orthogonality  is 9.10D-15 for   2714   1260.
 Iteration    2 A^-1*A deviation from unit magnitude is 1.55D-15 for   1876.
 Iteration    2 A^-1*A deviation from orthogonality  is 9.99D-16 for   2085      8.
 Error on total polarization charges =  0.01145
 SCF Done:  E(RmPW1PW91) =  -1064.38326688     A.U. after   13 cycles
            NFock= 13  Conv=0.33D-08     -V/T= 2.0036
 DoSCS=F DFT=T ScalE2(SS,OS)=  1.000000  1.000000
 Range of M.O.s used for correlation:     1   410
 NBasis=   410 NAE=    74 NBE=    74 NFC=     0 NFV=     0
 NROrb=    410 NOA=    74 NOB=    74 NVA=   336 NVB=   336
 NEqPCM:  Using equilibrium solvation (IEInf=0, Eps=   4.7113, EpsInf=   2.0906)
          Differentiating once with respect to magnetic field using GIAOs.
          Electric field/nuclear overlap derivatives assumed to be zero.
 FoFJK:  IHMeth= 1 ICntrl=    6127 DoSepK=F KAlg= 0 I1Cent=   0 FoldK=F
 IRaf=         1 NMat=   1 IRICut=       1 DoRegI=T DoRafI=F ISym2E= 0.
          There are     3 degrees of freedom in the 1st order CPHF.  IDoFFX=0 NUNeed=     3.
      3 vectors produced by pass  0 Test12= 8.29D-13 3.33D-08 XBig12= 3.62D+01 1.01D+00.
 AX will form     3 AO Fock derivatives at one time.
      3 vectors produced by pass  1 Test12= 8.29D-13 3.33D-08 XBig12= 7.57D-02 1.00D-01.
      3 vectors produced by pass  2 Test12= 8.29D-13 3.33D-08 XBig12= 7.55D-04 1.28D-02.
      3 vectors produced by pass  3 Test12= 8.29D-13 3.33D-08 XBig12= 4.34D-06 7.75D-04.
      3 vectors produced by pass  4 Test12= 8.29D-13 3.33D-08 XBig12= 2.49D-08 6.51D-05.
      3 vectors produced by pass  5 Test12= 8.29D-13 3.33D-08 XBig12= 7.38D-11 1.91D-06.
      2 vectors produced by pass  6 Test12= 8.29D-13 3.33D-08 XBig12= 2.07D-13 1.01D-07.
 InvSVY:  IOpt=1 It=  1 EMax= 1.78D-15
 Solved reduced A of dimension    20 with     3 vectors.
 Calculating GIAO nuclear magnetic shielding tensors.
 SCF GIAO Magnetic shielding tensor (ppm):
      1  C    Isotropic =   100.3972   Anisotropy =    51.8334
   XX=    93.2219   YX=   -12.3465   ZX=    -3.0696
   XY=     1.7196   YY=   118.4377   ZY=    27.0568
   XZ=     3.9783   YZ=    26.6992   ZZ=    89.5320
   Eigenvalues:    72.9804    93.2584   134.9528
      2  C    Isotropic =   137.5247   Anisotropy =    25.2707
   XX=   148.8990   YX=     3.4824   ZX=    10.9124
   XY=     3.9441   YY=   129.0294   ZY=    -2.1688
   XZ=     9.8567   YZ=   -10.5167   ZZ=   134.6456
   Eigenvalues:   121.7591   136.4431   154.3718
      3  C    Isotropic =   108.5394   Anisotropy =    54.8521
   XX=   136.7999   YX=    -3.5046   ZX=   -21.0282
   XY=     0.9045   YY=    85.9250   ZY=     0.1511
   XZ=   -16.3543   YZ=     0.1534   ZZ=   102.8934
   Eigenvalues:    85.8814    94.6294   145.1075
      4  C    Isotropic =   137.1223   Anisotropy =    31.0159
   XX=   137.0216   YX=   -12.9070   ZX=    -2.5485
   XY=    -7.1197   YY=   147.8237   ZY=     5.8138
   XZ=    -4.9660   YZ=    15.6715   ZZ=   126.5215
   Eigenvalues:   122.0317   131.5356   157.7995
      5  C    Isotropic =    13.8081   Anisotropy =    86.8488
   XX=   -62.5591   YX=   -33.1715   ZX=   -11.8450
   XY=   -43.0506   YY=    43.9742   ZY=   -17.6507
   XZ=   -19.2295   YZ=   -17.0514   ZZ=    60.0092
   Eigenvalues:   -77.7427    47.4597    71.7073
      6  H    Isotropic =    28.0298   Anisotropy =     2.0912
   XX=    29.2018   YX=    -0.2466   ZX=     0.6812
   XY=     0.0779   YY=    28.5520   ZY=    -1.4115
   XZ=     0.3383   YZ=    -0.7406   ZZ=    26.3357
   Eigenvalues:    25.8410    28.8245    29.4240
      7  H    Isotropic =    30.2572   Anisotropy =     3.3854
   XX=    30.0787   YX=     0.5849   ZX=     1.5738
   XY=     1.0885   YY=    30.2416   ZY=    -1.7548
   XZ=     1.3304   YZ=    -2.3260   ZZ=    30.4513
   Eigenvalues:    27.3437    30.9138    32.5142
      8  H    Isotropic =    29.5686   Anisotropy =     4.9165
   XX=    31.0449   YX=     0.7168   ZX=    -1.3134
   XY=     1.2074   YY=    31.1981   ZY=    -1.9620
   XZ=    -1.8879   YZ=    -1.0724   ZZ=    26.4627
   Eigenvalues:    25.6997    30.1598    32.8462
      9  H    Isotropic =    29.6420   Anisotropy =     3.9550
   XX=    31.0907   YX=     0.0552   ZX=     0.9230
   XY=    -0.7865   YY=    29.7389   ZY=     3.3594
   XZ=     0.4347   YZ=     3.1281   ZZ=    28.0966
   Eigenvalues:    25.4688    31.1786    32.2787
     10  O    Isotropic =    99.5769   Anisotropy =   188.5961
   XX=   160.4276   YX=    56.2254   ZX=    48.9766
   XY=    64.8233   YY=    43.0405   ZY=  -142.1091
   XZ=    58.2251   YZ=  -165.6402   ZZ=    95.2626
   Eigenvalues:  -110.9922   184.4153   225.3076
     11  O    Isotropic =  -102.8716   Anisotropy =   559.6458
   XX=  -221.8223   YX=   -89.1146   ZX=   -19.1123
   XY=   -76.7432   YY=  -116.6838   ZY=  -291.1647
   XZ=     1.7238   YZ=  -310.3349   ZZ=    29.8914
   Eigenvalues:  -384.2101  -194.6303   270.2256
     12  C    Isotropic =   156.5162   Anisotropy =    24.2895
   XX=   164.2766   YX=     0.5580   ZX=    11.1258
   XY=    -2.0755   YY=   145.6984   ZY=    -4.7800
   XZ=     9.2990   YZ=    -2.4782   ZZ=   159.5735
   Eigenvalues:   144.5886   152.2508   172.7092
     13  C    Isotropic =   175.6890   Anisotropy =    21.5650
   XX=   188.2579   YX=    -0.0599   ZX=    -4.0536
   XY=    -1.6333   YY=   166.3468   ZY=    -6.1343
   XZ=    -7.1045   YZ=    -5.0898   ZZ=   172.4624
   Eigenvalues:   162.4879   174.5135   190.0657
     14  C    Isotropic =   175.2575   Anisotropy =    15.1614
   XX=   168.7834   YX=     0.4109   ZX=     3.1156
   XY=    -3.3582   YY=   184.7768   ZY=     2.4866
   XZ=     1.1662   YZ=     2.7477   ZZ=   172.2124
   Eigenvalues:   167.3960   173.0114   185.3652
     15  O    Isotropic =   246.4650   Anisotropy =    21.2875
   XX=   239.8161   YX=    -2.0400   ZX=     4.1035
   XY=    15.2362   YY=   240.6142   ZY=    -6.5082
   XZ=     7.2500   YZ=    -0.3207   ZZ=   258.9648
   Eigenvalues:   232.0406   246.6978   260.6567
     16  Si   Isotropic =   332.4875   Anisotropy =    42.1812
   XX=   359.1901   YX=    13.2385   ZX=     7.4937
   XY=     0.9209   YY=   323.5169   ZY=     8.1893
   XZ=    -6.3096   YZ=     3.7656   ZZ=   314.7554
   Eigenvalues:   311.5656   325.2886   360.6083
     17  C    Isotropic =   186.8951   Anisotropy =    12.2060
   XX=   190.1172   YX=    -0.9344   ZX=    -3.6716
   XY=    -0.5972   YY=   186.3857   ZY=     7.4486
   XZ=    -3.6628   YZ=     8.0449   ZZ=   184.1822
   Eigenvalues:   177.0483   188.6045   195.0324
     18  C    Isotropic =   185.6920   Anisotropy =     9.6196
   XX=   186.6814   YX=     1.3595   ZX=     3.2597
   XY=     2.8336   YY=   179.8332   ZY=    -2.2682
   XZ=     2.2297   YZ=    -2.5164   ZZ=   190.5614
   Eigenvalues:   178.4464   186.5246   192.1051
     19  C    Isotropic =   184.7487   Anisotropy =    12.2357
   XX=   185.5124   YX=     2.4835   ZX=     0.1865
   XY=     0.7093   YY=   190.8276   ZY=    -5.4323
   XZ=     0.9882   YZ=    -5.0043   ZZ=   177.9062
   Eigenvalues:   175.9376   185.4027   192.9059
     20  H    Isotropic =    31.8766   Anisotropy =     7.4714
   XX=    30.2317   YX=     0.0089   ZX=     1.1500
   XY=     0.1463   YY=    34.6675   ZY=    -3.3529
   XZ=     1.2044   YZ=    -3.8732   ZZ=    30.7305
   Eigenvalues:    28.0659    30.7063    36.8575
     21  H    Isotropic =    31.8733   Anisotropy =     6.9010
   XX=    31.7326   YX=    -1.3711   ZX=    -0.7405
   XY=    -1.5775   YY=    30.1467   ZY=     3.1397
   XZ=    -1.5158   YZ=     3.7656   ZZ=    33.7407
   Eigenvalues:    27.9187    31.2272    36.4740
     22  H    Isotropic =    32.1534   Anisotropy =    10.4962
   XX=    37.9737   YX=     2.1631   ZX=     2.6040
   XY=     2.2915   YY=    28.5587   ZY=     0.4123
   XZ=     2.3274   YZ=     0.4308   ZZ=    29.9277
   Eigenvalues:    28.0454    29.2639    39.1508
     23  H    Isotropic =    31.8670   Anisotropy =     6.8785
   XX=    31.2194   YX=    -0.7214   ZX=    -2.6280
   XY=    -1.4792   YY=    34.3908   ZY=     2.8652
   XZ=    -2.6532   YZ=     2.1529   ZZ=    29.9908
   Eigenvalues:    27.6089    31.5394    36.4526
     24  H    Isotropic =    31.9376   Anisotropy =     7.7770
   XX=    30.1459   YX=     0.2959   ZX=     1.7466
   XY=    -0.2055   YY=    30.4038   ZY=    -3.4734
   XZ=     1.7889   YZ=    -2.7075   ZZ=    35.2633
   Eigenvalues:    28.4350    30.2556    37.1223
     25  H    Isotropic =    32.2008   Anisotropy =    10.3328
   XX=    36.8046   YX=     4.0438   ZX=    -1.1941
   XY=     3.8224   YY=    31.5812   ZY=    -0.8386
   XZ=    -1.0855   YZ=    -0.7521   ZZ=    28.2168
   Eigenvalues:    28.0237    29.4894    39.0894
     26  H    Isotropic =    31.8619   Anisotropy =     8.2784
   XX=    30.0770   YX=    -0.7903   ZX=     0.3500
   XY=    -0.3116   YY=    28.2932   ZY=     1.3412
   XZ=     0.7250   YZ=     0.8723   ZZ=    37.2156
   Eigenvalues:    27.9775    30.2274    37.3808
     27  H    Isotropic =    31.8396   Anisotropy =     8.2866
   XX=    29.7686   YX=    -1.4212   ZX=    -1.2959
   XY=    -0.9333   YY=    37.1685   ZY=    -0.8838
   XZ=    -1.1350   YZ=    -0.1622   ZZ=    28.5818
   Eigenvalues:    27.6999    30.4549    37.3640
     28  H    Isotropic =    32.3279   Anisotropy =    10.2856
   XX=    38.8191   YX=     0.7819   ZX=    -1.8499
   XY=     1.0917   YY=    29.1807   ZY=     0.5185
   XZ=    -1.6188   YZ=     0.5988   ZZ=    28.9839
   Eigenvalues:    28.1618    29.6369    39.1850
     29  H    Isotropic =    31.3749   Anisotropy =     9.9454
   XX=    30.5569   YX=    -0.8377   ZX=     3.8416
   XY=    -0.4104   YY=    28.5491   ZY=     3.3933
   XZ=     3.9288   YZ=     3.2664   ZZ=    35.0188
   Eigenvalues:    25.9226    30.1970    38.0052
     30  H    Isotropic =    31.2046   Anisotropy =     7.7442
   XX=    27.6776   YX=     1.4982   ZX=     1.3749
   XY=     1.6863   YY=    35.2562   ZY=    -2.4969
   XZ=     1.0845   YZ=    -2.2049   ZZ=    30.6800
   Eigenvalues:    26.5865    30.6600    36.3674
     31  H    Isotropic =    30.4419   Anisotropy =     6.5706
   XX=    34.0181   YX=    -0.3038   ZX=    -0.7300
   XY=    -1.0697   YY=    28.3964   ZY=     3.8381
   XZ=    -1.6669   YZ=     3.9312   ZZ=    28.9111
   Eigenvalues:    24.7494    31.7539    34.8223
     32  H    Isotropic =    30.6456   Anisotropy =     5.6385
   XX=    32.0554   YX=    -0.3368   ZX=     0.2680
   XY=    -0.2579   YY=    28.8160   ZY=    -4.0288
   XZ=     0.2569   YZ=    -4.4776   ZZ=    31.0652
   Eigenvalues:    25.5404    31.9917    34.4046
     33  H    Isotropic =    30.2918   Anisotropy =     5.7094
   XX=    32.9742   YX=    -1.3242   ZX=     0.8416
   XY=    -0.9635   YY=    28.5845   ZY=     5.1621
   XZ=     1.1685   YZ=     5.1025   ZZ=    29.3166
   Eigenvalues:    23.5592    33.2181    34.0980
     34  H    Isotropic =    31.0085   Anisotropy =    11.4613
   XX=    36.5324   YX=    -0.6711   ZX=     4.3798
   XY=    -0.9934   YY=    26.1401   ZY=    -0.5896
   XZ=     3.8209   YZ=    -0.3412   ZZ=    30.3529
   Eigenvalues:    26.0666    28.3094    38.6494
     35  H    Isotropic =    30.5085   Anisotropy =     7.7995
   XX=    32.5777   YX=    -2.2500   ZX=    -1.6674
   XY=    -2.0131   YY=    30.7945   ZY=     3.9950
   XZ=    -0.6728   YZ=     4.3399   ZZ=    28.1533
   Eigenvalues:    25.0877    30.7297    35.7082
     36  H    Isotropic =    31.1946   Anisotropy =     8.9965
   XX=    32.8682   YX=     2.9286   ZX=    -2.8772
   XY=     2.5999   YY=    31.2909   ZY=    -3.1853
   XZ=    -2.1007   YZ=    -3.8677   ZZ=    29.4247
   Eigenvalues:    26.6909    29.7006    37.1923
     37  C    Isotropic =   142.9187   Anisotropy =    30.9638
   XX=   126.5313   YX=    -3.5123   ZX=    -0.3531
   XY=    -2.2508   YY=   159.2895   ZY=   -10.5429
   XZ=     0.4630   YZ=    -7.7223   ZZ=   142.9352
   Eigenvalues:   126.2413   138.9535   163.5612
     38  C    Isotropic =    43.4898   Anisotropy =   184.6076
   XX=    33.7093   YX=    52.9402   ZX=    94.4949
   XY=    56.0929   YY=    -4.0788   ZY=   -34.8259
   XZ=    92.2022   YZ=   -32.9647   ZZ=   100.8390
   Eigenvalues:   -83.6097    47.5177   166.5616
     39  C    Isotropic =    68.6730   Anisotropy =   138.1184
   XX=    66.3992   YX=    51.1829   ZX=    66.8135
   XY=    55.8127   YY=    25.5273   ZY=   -34.4157
   XZ=    65.8811   YZ=   -42.2854   ZZ=   114.0924
   Eigenvalues:   -43.2502    88.5173   160.7519
     40  H    Isotropic =    29.5997   Anisotropy =     5.0589
   XX=    29.9380   YX=     2.3929   ZX=     1.6730
   XY=     2.0136   YY=    28.7383   ZY=    -0.8504
   XZ=     3.0939   YZ=     0.5981   ZZ=    30.1228
   Eigenvalues:    26.3055    29.5213    32.9723
     41  H    Isotropic =    29.6433   Anisotropy =     4.8736
   XX=    29.6542   YX=     0.3790   ZX=    -1.8708
   XY=    -1.1261   YY=    28.6817   ZY=    -1.6142
   XZ=    -1.6995   YZ=    -3.4783   ZZ=    30.5942
   Eigenvalues:    26.3435    29.6941    32.8924
     42  H    Isotropic =    25.5050   Anisotropy =     7.4562
   XX=    24.1980   YX=     1.0379   ZX=     1.0139
   XY=     2.0587   YY=    28.8901   ZY=    -3.3107
   XZ=     1.2112   YZ=    -2.9821   ZZ=    23.4269
   Eigenvalues:    21.0842    24.9550    30.4758
     43  H    Isotropic =    26.9020   Anisotropy =     6.9265
   XX=    25.4527   YX=     2.7783   ZX=    -0.0820
   XY=     1.0405   YY=    29.4216   ZY=    -1.9513
   XZ=     0.2637   YZ=    -3.9415   ZZ=    25.8317
   Eigenvalues:    23.5252    25.6611    31.5196
     44  H    Isotropic =    26.8034   Anisotropy =     7.0432
   XX=    25.8715   YX=     1.2659   ZX=    -0.1797
   XY=     3.8418   YY=    27.7367   ZY=    -4.2499
   XZ=    -0.3430   YZ=    -2.4972   ZZ=    26.8020
   Eigenvalues:    22.9373    25.9741    31.4989
 End of Minotr F.D. properties file   721 does not exist.
 End of Minotr F.D. properties file   722 does not exist.
 End of Minotr F.D. properties file   788 does not exist.

 **********************************************************************

            Population analysis using the SCF density.

 **********************************************************************

 Orbital symmetries:
       Occupied  (A) (A) (A) (A) (A) (A) (A) (A) (A) (A) (A) (A)
                 (A) (A) (A) (A) (A) (A) (A) (A) (A) (A) (A) (A)
                 (A) (A) (A) (A) (A) (A) (A) (A) (A) (A) (A) (A)
                 (A) (A) (A) (A) (A) (A) (A) (A) (A) (A) (A) (A)
                 (A) (A) (A) (A) (A) (A) (A) (A) (A) (A) (A) (A)
                 (A) (A) (A) (A) (A) (A) (A) (A) (A) (A) (A) (A)
                 (A) (A)
       Virtual   (A) (A) (A) (A) (A) (A) (A) (A) (A) (A) (A) (A)
                 (A) (A) (A) (A) (A) (A) (A) (A) (A) (A) (A) (A)
                 (A) (A) (A) (A) (A) (A) (A) (A) (A) (A) (A) (A)
                 (A) (A) (A) (A) (A) (A) (A) (A) (A) (A) (A) (A)
                 (A) (A) (A) (A) (A) (A) (A) (A) (A) (A) (A) (A)
                 (A) (A) (A) (A) (A) (A) (A) (A) (A) (A) (A) (A)
                 (A) (A) (A) (A) (A) (A) (A) (A) (A) (A) (A) (A)
                 (A) (A) (A) (A) (A) (A) (A) (A) (A) (A) (A) (A)
                 (A) (A) (A) (A) (A) (A) (A) (A) (A) (A) (A) (A)
                 (A) (A) (A) (A) (A) (A) (A) (A) (A) (A) (A) (A)
                 (A) (A) (A) (A) (A) (A) (A) (A) (A) (A) (A) (A)
                 (A) (A) (A) (A) (A) (A) (A) (A) (A) (A) (A) (A)
                 (A) (A) (A) (A) (A) (A) (A) (A) (A) (A) (A) (A)
                 (A) (A) (A) (A) (A) (A) (A) (A) (A) (A) (A) (A)
                 (A) (A) (A) (A) (A) (A) (A) (A) (A) (A) (A) (A)
                 (A) (A) (A) (A) (A) (A) (A) (A) (A) (A) (A) (A)
                 (A) (A) (A) (A) (A) (A) (A) (A) (A) (A) (A) (A)
                 (A) (A) (A) (A) (A) (A) (A) (A) (A) (A) (A) (A)
                 (A) (A) (A) (A) (A) (A) (A) (A) (A) (A) (A) (A)
                 (A) (A) (A) (A) (A) (A) (A) (A) (A) (A) (A) (A)
                 (A) (A) (A) (A) (A) (A) (A) (A) (A) (A) (A) (A)
                 (A) (A) (A) (A) (A) (A) (A) (A) (A) (A) (A) (A)
                 (A) (A) (A) (A) (A) (A) (A) (A) (A) (A) (A) (A)
                 (A) (A) (A) (A) (A) (A) (A) (A) (A) (A) (A) (A)
                 (A) (A) (A) (A) (A) (A) (A) (A) (A) (A) (A) (A)
                 (A) (A) (A) (A) (A) (A) (A) (A) (A) (A) (A) (A)
                 (A) (A) (A) (A) (A) (A) (A) (A) (A) (A) (A) (A)
                 (A) (A) (A) (A) (A) (A) (A) (A) (A) (A) (A) (A)
 The electronic state is 1-A.
 Alpha  occ. eigenvalues --  -66.27511 -19.25936 -19.20828 -19.19620 -10.37073
 Alpha  occ. eigenvalues --  -10.31801 -10.30554 -10.25285 -10.25230 -10.24374
 Alpha  occ. eigenvalues --  -10.24214 -10.23772 -10.22727 -10.22177 -10.22016
 Alpha  occ. eigenvalues --  -10.21073 -10.20883 -10.20735  -5.33245  -3.67135
 Alpha  occ. eigenvalues --   -3.66836  -3.66824  -1.13227  -1.04838  -1.04161
 Alpha  occ. eigenvalues --   -0.85874  -0.83128  -0.80823  -0.77736  -0.73996
 Alpha  occ. eigenvalues --   -0.72736  -0.71688  -0.70367  -0.70225  -0.66602
 Alpha  occ. eigenvalues --   -0.63788  -0.61858  -0.58737  -0.56294  -0.53371
 Alpha  occ. eigenvalues --   -0.52360  -0.50605  -0.49029  -0.48250  -0.47192
 Alpha  occ. eigenvalues --   -0.46663  -0.45317  -0.44748  -0.44126  -0.43759
 Alpha  occ. eigenvalues --   -0.42708  -0.42565  -0.42082  -0.41532  -0.41172
 Alpha  occ. eigenvalues --   -0.40950  -0.40385  -0.40077  -0.39753  -0.38725
 Alpha  occ. eigenvalues --   -0.38526  -0.37938  -0.36992  -0.36515  -0.36029
 Alpha  occ. eigenvalues --   -0.35533  -0.34306  -0.33431  -0.32229  -0.31098
 Alpha  occ. eigenvalues --   -0.30435  -0.29535  -0.28250  -0.26868
 Alpha virt. eigenvalues --    0.00565   0.00968   0.03791   0.05776   0.05912
 Alpha virt. eigenvalues --    0.06527   0.07453   0.07806   0.08179   0.09277
 Alpha virt. eigenvalues --    0.09477   0.09980   0.10242   0.10657   0.11181
 Alpha virt. eigenvalues --    0.11906   0.12910   0.13418   0.13492   0.13769
 Alpha virt. eigenvalues --    0.14333   0.14455   0.14609   0.14883   0.15569
 Alpha virt. eigenvalues --    0.15843   0.16205   0.17026   0.17591   0.17703
 Alpha virt. eigenvalues --    0.18351   0.19040   0.19198   0.19823   0.20913
 Alpha virt. eigenvalues --    0.22145   0.23242   0.23607   0.24205   0.24414
 Alpha virt. eigenvalues --    0.24839   0.25787   0.26865   0.27493   0.28015
 Alpha virt. eigenvalues --    0.29347   0.29451   0.31154   0.31797   0.32143
 Alpha virt. eigenvalues --    0.33124   0.33280   0.34126   0.35105   0.36317
 Alpha virt. eigenvalues --    0.37138   0.37858   0.38324   0.39445   0.40167
 Alpha virt. eigenvalues --    0.40874   0.42563   0.43315   0.43595   0.44278
 Alpha virt. eigenvalues --    0.44958   0.45605   0.47029   0.47677   0.48723
 Alpha virt. eigenvalues --    0.50745   0.50928   0.51293   0.51394   0.52327
 Alpha virt. eigenvalues --    0.53412   0.53835   0.54516   0.55532   0.56566
 Alpha virt. eigenvalues --    0.56880   0.58029   0.58131   0.58608   0.58895
 Alpha virt. eigenvalues --    0.59326   0.59546   0.60300   0.60541   0.61109
 Alpha virt. eigenvalues --    0.61284   0.61782   0.62721   0.62946   0.63185
 Alpha virt. eigenvalues --    0.63594   0.63922   0.64655   0.65154   0.65699
 Alpha virt. eigenvalues --    0.66214   0.66928   0.67382   0.67591   0.68108
 Alpha virt. eigenvalues --    0.68777   0.69034   0.69551   0.70290   0.70510
 Alpha virt. eigenvalues --    0.71743   0.72890   0.73202   0.73461   0.74800
 Alpha virt. eigenvalues --    0.75046   0.77089   0.78237   0.79055   0.81540
 Alpha virt. eigenvalues --    0.82244   0.83723   0.86628   0.87330   0.87752
 Alpha virt. eigenvalues --    0.90230   0.90755   0.91318   0.93023   0.93905
 Alpha virt. eigenvalues --    0.94496   0.96156   0.98069   1.00009   1.00691
 Alpha virt. eigenvalues --    1.02514   1.03704   1.04282   1.05324   1.11454
 Alpha virt. eigenvalues --    1.11900   1.14640   1.17902   1.18335   1.19060
 Alpha virt. eigenvalues --    1.21513   1.22738   1.24882   1.26718   1.27943
 Alpha virt. eigenvalues --    1.28695   1.29984   1.31284   1.31934   1.32394
 Alpha virt. eigenvalues --    1.35260   1.37797   1.38862   1.39920   1.41784
 Alpha virt. eigenvalues --    1.42301   1.44437   1.45690   1.47420   1.48519
 Alpha virt. eigenvalues --    1.49886   1.50715   1.51271   1.52138   1.53274
 Alpha virt. eigenvalues --    1.54485   1.54884   1.56007   1.56620   1.57410
 Alpha virt. eigenvalues --    1.58162   1.59240   1.59357   1.59969   1.60543
 Alpha virt. eigenvalues --    1.61143   1.61397   1.61640   1.63453   1.64147
 Alpha virt. eigenvalues --    1.64418   1.65114   1.66583   1.67470   1.68906
 Alpha virt. eigenvalues --    1.69541   1.71510   1.72735   1.73315   1.75235
 Alpha virt. eigenvalues --    1.75863   1.77738   1.78174   1.80063   1.80192
 Alpha virt. eigenvalues --    1.81485   1.81743   1.82802   1.84638   1.87334
 Alpha virt. eigenvalues --    1.89354   1.89750   1.93776   1.94802   1.98386
 Alpha virt. eigenvalues --    1.98886   2.04107   2.07369   2.09282   2.10920
 Alpha virt. eigenvalues --    2.14671   2.17509   2.22001   2.23064   2.26912
 Alpha virt. eigenvalues --    2.29137   2.31077   2.34746   2.35385   2.40707
 Alpha virt. eigenvalues --    2.41572   2.41952   2.42305   2.42762   2.43036
 Alpha virt. eigenvalues --    2.44074   2.44351   2.45230   2.46406   2.47399
 Alpha virt. eigenvalues --    2.47633   2.48437   2.50856   2.51399   2.51870
 Alpha virt. eigenvalues --    2.53360   2.54445   2.54997   2.58065   2.58673
 Alpha virt. eigenvalues --    2.60707   2.63348   2.66807   2.73089   2.79859
 Alpha virt. eigenvalues --    2.83392   2.86623   2.88554   2.90842   2.91542
 Alpha virt. eigenvalues --    2.92235   2.92649   2.94395   2.96411   2.97557
 Alpha virt. eigenvalues --    2.99040   2.99647   3.02334   3.03915   3.04155
 Alpha virt. eigenvalues --    3.06971   3.09816   3.10945   3.12843   3.15351
 Alpha virt. eigenvalues --    3.16393   3.16676   3.18317   3.18825   3.19190
 Alpha virt. eigenvalues --    3.22122   3.22884   3.23079   3.23940   3.24848
 Alpha virt. eigenvalues --    3.25402   3.26598   3.28436   3.29189   3.30043
 Alpha virt. eigenvalues --    3.34186   3.35108   3.37968   3.38963   3.40358
 Alpha virt. eigenvalues --    3.41749   3.50904   3.58277   3.61254   3.65256
 Alpha virt. eigenvalues --    3.78842   3.87847   3.88482   3.98137   4.04957
 Alpha virt. eigenvalues --    4.09633   4.14076   4.18658   4.22632   4.26612
 Alpha virt. eigenvalues --    4.93682   5.00510   5.01920   5.10610   5.14930
 Alpha virt. eigenvalues --    5.23748   5.52704   5.56233   5.76231   5.85250
 Alpha virt. eigenvalues --   11.52764  11.53372  11.56389  23.41238  23.48545
 Alpha virt. eigenvalues --   23.53974  23.54683  23.56993  23.61068  23.72492
 Alpha virt. eigenvalues --   23.72923  23.77988  23.80012  23.82113  23.87997
 Alpha virt. eigenvalues --   23.88995  24.28863  49.98371  50.05814  50.13258
 Alpha virt. eigenvalues --  141.26990
          Condensed to atoms (all electrons):
               1          2          3          4          5          6
     1  C    5.231188   0.265346  -0.047539  -0.002080  -0.048930   0.375770
     2  C    0.265346   5.549755   0.268523  -0.092321  -0.012325  -0.035307
     3  C   -0.047539   0.268523   5.190449   0.257324  -0.018654  -0.017897
     4  C   -0.002080  -0.092321   0.257324   5.879032   0.237995   0.002670
     5  C   -0.048930  -0.012325  -0.018654   0.237995   4.369799  -0.000877
     6  H    0.375770  -0.035307  -0.017897   0.002670  -0.000877   0.487287
     7  H   -0.048917   0.405451  -0.062891  -0.004523   0.000604   0.007397
     8  H    0.002023  -0.008885  -0.034069   0.369780  -0.022565  -0.000109
     9  H   -0.000985   0.008115  -0.028143   0.356831  -0.024252   0.000252
    10  O    0.208842  -0.029193   0.006863  -0.111970   0.353653  -0.033951
    11  O    0.002439  -0.000299   0.003823  -0.097634   0.672339  -0.000140
    12  C    0.326405  -0.067931   0.009081  -0.002539   0.001739  -0.047116
    13  C   -0.070276   0.006893  -0.000114   0.000057  -0.000024  -0.005956
    14  C   -0.062911   0.292289  -0.051773   0.006478   0.000296  -0.001041
    15  O    0.004041  -0.055297   0.216139  -0.020681   0.002002  -0.000079
    16  Si   0.000472   0.001553  -0.047279  -0.005890   0.001029  -0.000164
    17  C   -0.000001   0.000066   0.002214  -0.000100   0.000001   0.000000
    18  C    0.000009  -0.000165   0.001037  -0.001238   0.000032   0.000001
    19  C   -0.000007  -0.000089   0.001273  -0.000991   0.000034   0.000001
    20  H    0.000003  -0.000075   0.000191   0.000068   0.000005   0.000000
    21  H    0.000006  -0.000057   0.000509   0.000649  -0.000028  -0.000001
    22  H    0.000000   0.000003  -0.000082   0.000040   0.000001   0.000000
    23  H   -0.000004   0.000018   0.000238   0.000919   0.000026   0.000000
    24  H   -0.000011   0.000146   0.000569  -0.000178  -0.000038   0.000000
    25  H    0.000000   0.000004  -0.000071   0.000182   0.000002   0.000000
    26  H   -0.000002   0.000087  -0.000153  -0.000046   0.000000   0.000000
    27  H    0.000000  -0.000003  -0.000090  -0.000019   0.000000   0.000000
    28  H    0.000000   0.000000  -0.000068  -0.000002   0.000000   0.000000
    29  H   -0.007003  -0.033066   0.006455  -0.000369  -0.000007  -0.000374
    30  H   -0.005673  -0.041718  -0.006747  -0.000083  -0.000003   0.005886
    31  H    0.007145  -0.039946  -0.007901   0.000549  -0.000098  -0.000205
    32  H   -0.047232  -0.005140  -0.000920   0.000129   0.000128   0.008178
    33  H   -0.042399  -0.006388  -0.000237   0.000121   0.000004  -0.000533
    34  H    0.008046  -0.000220   0.000012   0.000000   0.000000  -0.000258
    35  H   -0.011553   0.000395  -0.000070   0.000391   0.000841   0.000233
    36  H   -0.003834  -0.000069  -0.000003  -0.000006  -0.000091   0.004769
    37  C    0.002826  -0.086830   0.296235  -0.109879   0.000368   0.006697
    38  C   -0.001011  -0.004620  -0.049385   0.008104  -0.000392  -0.000147
    39  C   -0.000390   0.001296  -0.000215  -0.000013  -0.000029   0.001605
    40  H   -0.000628   0.008788  -0.047736  -0.005304  -0.000255   0.000396
    41  H    0.000085  -0.004880  -0.020356  -0.007035   0.003694  -0.003727
    42  H    0.000094  -0.000521  -0.003280  -0.000109  -0.000016  -0.000037
    43  H    0.000010  -0.000021  -0.000265   0.000013   0.000000   0.000010
    44  H    0.000118  -0.000050   0.000093  -0.000033  -0.000013   0.000474
               7          8          9         10         11         12
     1  C   -0.048917   0.002023  -0.000985   0.208842   0.002439   0.326405
     2  C    0.405451  -0.008885   0.008115  -0.029193  -0.000299  -0.067931
     3  C   -0.062891  -0.034069  -0.028143   0.006863   0.003823   0.009081
     4  C   -0.004523   0.369780   0.356831  -0.111970  -0.097634  -0.002539
     5  C    0.000604  -0.022565  -0.024252   0.353653   0.672339   0.001739
     6  H    0.007397  -0.000109   0.000252  -0.033951  -0.000140  -0.047116
     7  H    0.485583   0.003195   0.000430   0.001367  -0.000164  -0.008451
     8  H    0.003195   0.403836  -0.013744   0.001029   0.000977  -0.000023
     9  H    0.000430  -0.013744   0.419186   0.004806   0.012550   0.000044
    10  O    0.001367   0.001029   0.004806   8.044178  -0.077719  -0.053932
    11  O   -0.000164   0.000977   0.012550  -0.077719   7.868195  -0.000145
    12  C   -0.008451  -0.000023   0.000044  -0.053932  -0.000145   5.308908
    13  C   -0.000186   0.000010  -0.000003  -0.006029  -0.000019   0.318291
    14  C   -0.035047   0.000021  -0.000107   0.003249   0.000004  -0.005434
    15  O    0.002575  -0.001596  -0.002169  -0.000011  -0.000020  -0.000076
    16  Si   0.000493  -0.004584  -0.001279  -0.000342  -0.000903  -0.000005
    17  C   -0.000027  -0.000102  -0.000020   0.000000   0.000000   0.000000
    18  C    0.000039   0.000236   0.002226   0.000000   0.000004   0.000000
    19  C    0.000052  -0.001549  -0.000016   0.000000   0.000007   0.000000
    20  H    0.000008   0.000017  -0.000172   0.000000   0.000000   0.000000
    21  H    0.000001  -0.000044   0.002245   0.000000  -0.000023   0.000000
    22  H    0.000000   0.000002  -0.000006   0.000000   0.000000   0.000000
    23  H   -0.000027  -0.000428   0.000646   0.000001  -0.000002   0.000000
    24  H    0.000099   0.000333   0.000051   0.000001   0.000002   0.000000
    25  H   -0.000002   0.000266   0.000016   0.000000   0.000000   0.000000
    26  H   -0.000016  -0.000025  -0.000007   0.000000   0.000000   0.000000
    27  H    0.000001  -0.000006  -0.000009   0.000000   0.000000   0.000000
    28  H   -0.000002   0.000001  -0.000003   0.000000   0.000000   0.000000
    29  H   -0.007983  -0.000028   0.000014  -0.000012   0.000000   0.001788
    30  H    0.007060  -0.000027   0.000031   0.000022   0.000000  -0.000644
    31  H   -0.002687   0.000062  -0.000036  -0.000107   0.000000  -0.000019
    32  H    0.006142  -0.000049   0.000023   0.002824  -0.000127   0.388488
    33  H    0.000279  -0.000014  -0.000002   0.003780   0.000007   0.388209
    34  H   -0.000029   0.000000   0.000000  -0.000150   0.000000  -0.037876
    35  H    0.000029  -0.000015  -0.000009   0.013075   0.000272  -0.038633
    36  H    0.000018   0.000000   0.000000  -0.000367  -0.000003  -0.040929
    37  C    0.009514   0.007561  -0.004999  -0.005183   0.000170  -0.000513
    38  C   -0.000607  -0.000236   0.000082   0.000328  -0.000003   0.000009
    39  C   -0.000050   0.000003  -0.000002  -0.000012   0.000000   0.000008
    40  H   -0.000183  -0.000088   0.003516  -0.000152   0.000007   0.000012
    41  H   -0.000451   0.000135  -0.000540   0.003945  -0.000365   0.000746
    42  H   -0.000081   0.000021  -0.000005   0.000000   0.000000   0.000009
    43  H   -0.000002  -0.000001   0.000000   0.000000   0.000000   0.000000
    44  H    0.000004   0.000002   0.000004  -0.000025   0.000000   0.000001
              13         14         15         16         17         18
     1  C   -0.070276  -0.062911   0.004041   0.000472  -0.000001   0.000009
     2  C    0.006893   0.292289  -0.055297   0.001553   0.000066  -0.000165
     3  C   -0.000114  -0.051773   0.216139  -0.047279   0.002214   0.001037
     4  C    0.000057   0.006478  -0.020681  -0.005890  -0.000100  -0.001238
     5  C   -0.000024   0.000296   0.002002   0.001029   0.000001   0.000032
     6  H   -0.005956  -0.001041  -0.000079  -0.000164   0.000000   0.000001
     7  H   -0.000186  -0.035047   0.002575   0.000493  -0.000027   0.000039
     8  H    0.000010   0.000021  -0.001596  -0.004584  -0.000102   0.000236
     9  H   -0.000003  -0.000107  -0.002169  -0.001279  -0.000020   0.002226
    10  O   -0.006029   0.003249  -0.000011  -0.000342   0.000000   0.000000
    11  O   -0.000019   0.000004  -0.000020  -0.000903   0.000000   0.000004
    12  C    0.318291  -0.005434  -0.000076  -0.000005   0.000000   0.000000
    13  C    5.337413  -0.000264   0.000001   0.000002   0.000000   0.000000
    14  C   -0.000264   5.412174  -0.009262  -0.000527  -0.000001  -0.000020
    15  O    0.000001  -0.009262   8.284065   0.351000  -0.030457  -0.023774
    16  Si   0.000002  -0.000527   0.351000  11.519127   0.334618   0.308695
    17  C    0.000000  -0.000001  -0.030457   0.334618   5.721849  -0.043275
    18  C    0.000000  -0.000020  -0.023774   0.308695  -0.043275   5.788092
    19  C    0.000000   0.000006  -0.025323   0.316832  -0.046594  -0.055316
    20  H    0.000000  -0.000001  -0.002332  -0.028399  -0.000361   0.371286
    21  H    0.000000  -0.000002  -0.001320  -0.027048   0.002379   0.368936
    22  H    0.000000   0.000000   0.000820  -0.010695  -0.000488   0.363024
    23  H    0.000000   0.000001  -0.001249  -0.026456   0.002320  -0.001353
    24  H    0.000000  -0.000002  -0.002270  -0.024169  -0.000399   0.002064
    25  H    0.000000   0.000000   0.000921  -0.011942  -0.000447   0.000556
    26  H    0.000000   0.000051  -0.001828  -0.023340   0.369548   0.002075
    27  H    0.000000   0.000015  -0.001457  -0.025684   0.370383  -0.000673
    28  H    0.000000  -0.000001   0.001205  -0.015019   0.361265   0.000125
    29  H    0.000099   0.388292  -0.000137  -0.000037  -0.000001  -0.000001
    30  H   -0.000141   0.384230  -0.000214  -0.000151   0.000001   0.000002
    31  H    0.000019   0.386023   0.011437   0.000572   0.000054   0.000043
    32  H   -0.040844   0.000966  -0.000016  -0.000035   0.000000   0.000000
    33  H   -0.036899   0.001954  -0.000003  -0.000002   0.000000   0.000000
    34  H    0.392408  -0.000004   0.000000   0.000000   0.000000   0.000000
    35  H    0.384353  -0.000073   0.000000   0.000001   0.000000   0.000000
    36  H    0.384835   0.000037   0.000000   0.000000   0.000000   0.000000
    37  C   -0.000021  -0.003210  -0.068240  -0.014189  -0.000215  -0.001956
    38  C    0.000004  -0.014678   0.003235  -0.000191  -0.000147   0.000580
    39  C    0.000000  -0.003568   0.000788   0.000472  -0.000002  -0.000014
    40  H   -0.000002  -0.000438  -0.002507  -0.001740  -0.000020  -0.001658
    41  H   -0.000008   0.000513   0.003805   0.001644   0.000003  -0.000067
    42  H    0.000000  -0.000125   0.005099   0.002531   0.000376  -0.000006
    43  H    0.000000   0.000052   0.000016   0.000017  -0.000001  -0.000001
    44  H   -0.000001   0.000067  -0.000003  -0.000002   0.000000  -0.000001
              19         20         21         22         23         24
     1  C   -0.000007   0.000003   0.000006   0.000000  -0.000004  -0.000011
     2  C   -0.000089  -0.000075  -0.000057   0.000003   0.000018   0.000146
     3  C    0.001273   0.000191   0.000509  -0.000082   0.000238   0.000569
     4  C   -0.000991   0.000068   0.000649   0.000040   0.000919  -0.000178
     5  C    0.000034   0.000005  -0.000028   0.000001   0.000026  -0.000038
     6  H    0.000001   0.000000  -0.000001   0.000000   0.000000   0.000000
     7  H    0.000052   0.000008   0.000001   0.000000  -0.000027   0.000099
     8  H   -0.001549   0.000017  -0.000044   0.000002  -0.000428   0.000333
     9  H   -0.000016  -0.000172   0.002245  -0.000006   0.000646   0.000051
    10  O    0.000000   0.000000   0.000000   0.000000   0.000001   0.000001
    11  O    0.000007   0.000000  -0.000023   0.000000  -0.000002   0.000002
    12  C    0.000000   0.000000   0.000000   0.000000   0.000000   0.000000
    13  C    0.000000   0.000000   0.000000   0.000000   0.000000   0.000000
    14  C    0.000006  -0.000001  -0.000002   0.000000   0.000001  -0.000002
    15  O   -0.025323  -0.002332  -0.001320   0.000820  -0.001249  -0.002270
    16  Si   0.316832  -0.028399  -0.027048  -0.010695  -0.026456  -0.024169
    17  C   -0.046594  -0.000361   0.002379  -0.000488   0.002320  -0.000399
    18  C   -0.055316   0.371286   0.368936   0.363024  -0.001353   0.002064
    19  C    5.769222   0.002070  -0.000992   0.000232   0.371145   0.369777
    20  H    0.002070   0.448223  -0.019921  -0.021181  -0.000033  -0.000091
    21  H   -0.000992  -0.019921   0.448626  -0.021220   0.000993  -0.000043
    22  H    0.000232  -0.021181  -0.021220   0.444630   0.000033  -0.000042
    23  H    0.371145  -0.000033   0.000993   0.000033   0.450151  -0.020035
    24  H    0.369777  -0.000091  -0.000043  -0.000042  -0.020035   0.450313
    25  H    0.362624  -0.000053   0.000004   0.000435  -0.022169  -0.020844
    26  H   -0.000628  -0.000070  -0.000082  -0.000062  -0.000072   0.001069
    27  H    0.002154   0.001074  -0.000053  -0.000084  -0.000091  -0.000087
    28  H    0.000719  -0.000077  -0.000058   0.000559  -0.000056   0.000008
    29  H    0.000002   0.000000   0.000000   0.000000   0.000000   0.000001
    30  H    0.000000  -0.000001   0.000000   0.000000   0.000000   0.000000
    31  H   -0.000003   0.000001   0.000003   0.000000  -0.000001  -0.000010
    32  H    0.000000   0.000000   0.000000   0.000000   0.000000   0.000000
    33  H    0.000000   0.000000   0.000000   0.000000   0.000000   0.000000
    34  H    0.000000   0.000000   0.000000   0.000000   0.000000   0.000000
    35  H    0.000000   0.000000   0.000000   0.000000   0.000000   0.000000
    36  H    0.000000   0.000000   0.000000   0.000000   0.000000   0.000000
    37  C   -0.000406  -0.000061  -0.000356   0.000240  -0.000084  -0.000045
    38  C    0.000032   0.001346   0.000125  -0.000047   0.000004   0.000003
    39  C    0.000000   0.000203  -0.000008  -0.000002   0.000000   0.000000
    40  H   -0.000152  -0.001337   0.000830   0.000395  -0.000047   0.000002
    41  H    0.000010  -0.000048  -0.000073  -0.000005   0.000005   0.000003
    42  H    0.000027   0.000329  -0.000024   0.000005   0.000001   0.000001
    43  H    0.000000  -0.000006   0.000000   0.000000   0.000000   0.000000
    44  H    0.000000   0.000001   0.000001   0.000000   0.000000   0.000000
              25         26         27         28         29         30
     1  C    0.000000  -0.000002   0.000000   0.000000  -0.007003  -0.005673
     2  C    0.000004   0.000087  -0.000003   0.000000  -0.033066  -0.041718
     3  C   -0.000071  -0.000153  -0.000090  -0.000068   0.006455  -0.006747
     4  C    0.000182  -0.000046  -0.000019  -0.000002  -0.000369  -0.000083
     5  C    0.000002   0.000000   0.000000   0.000000  -0.000007  -0.000003
     6  H    0.000000   0.000000   0.000000   0.000000  -0.000374   0.005886
     7  H   -0.000002  -0.000016   0.000001  -0.000002  -0.007983   0.007060
     8  H    0.000266  -0.000025  -0.000006   0.000001  -0.000028  -0.000027
     9  H    0.000016  -0.000007  -0.000009  -0.000003   0.000014   0.000031
    10  O    0.000000   0.000000   0.000000   0.000000  -0.000012   0.000022
    11  O    0.000000   0.000000   0.000000   0.000000   0.000000   0.000000
    12  C    0.000000   0.000000   0.000000   0.000000   0.001788  -0.000644
    13  C    0.000000   0.000000   0.000000   0.000000   0.000099  -0.000141
    14  C    0.000000   0.000051   0.000015  -0.000001   0.388292   0.384230
    15  O    0.000921  -0.001828  -0.001457   0.001205  -0.000137  -0.000214
    16  Si  -0.011942  -0.023340  -0.025684  -0.015019  -0.000037  -0.000151
    17  C   -0.000447   0.369548   0.370383   0.361265  -0.000001   0.000001
    18  C    0.000556   0.002075  -0.000673   0.000125  -0.000001   0.000002
    19  C    0.362624  -0.000628   0.002154   0.000719   0.000002   0.000000
    20  H   -0.000053  -0.000070   0.001074  -0.000077   0.000000  -0.000001
    21  H    0.000004  -0.000082  -0.000053  -0.000058   0.000000   0.000000
    22  H    0.000435  -0.000062  -0.000084   0.000559   0.000000   0.000000
    23  H   -0.022169  -0.000072  -0.000091  -0.000056   0.000000   0.000000
    24  H   -0.020844   0.001069  -0.000087   0.000008   0.000001   0.000000
    25  H    0.451240  -0.000109  -0.000059   0.000723   0.000000   0.000000
    26  H   -0.000109   0.452835  -0.019256  -0.021411   0.000005  -0.000004
    27  H   -0.000059  -0.019256   0.453584  -0.021482  -0.000001  -0.000004
    28  H    0.000723  -0.021411  -0.021482   0.460358   0.000000   0.000000
    29  H    0.000000   0.000005  -0.000001   0.000000   0.463935  -0.025949
    30  H    0.000000  -0.000004  -0.000004   0.000000  -0.025949   0.459134
    31  H   -0.000001   0.000175   0.000063   0.000006  -0.024402  -0.024197
    32  H    0.000000   0.000000   0.000000   0.000000   0.000237   0.000107
    33  H    0.000000   0.000000   0.000000   0.000000   0.000587   0.000207
    34  H    0.000000   0.000000   0.000000   0.000000   0.000007   0.000004
    35  H    0.000000   0.000000   0.000000   0.000000  -0.000023  -0.000001
    36  H    0.000000   0.000000   0.000000   0.000000   0.000035  -0.000011
    37  C    0.000008  -0.000026   0.000011   0.000003  -0.000529   0.002066
    38  C   -0.000001  -0.000004   0.000025  -0.000003   0.000530   0.002963
    39  C    0.000000   0.000000  -0.000007   0.000000   0.000185   0.002065
    40  H    0.000005   0.000000  -0.000008   0.000001   0.000026   0.000245
    41  H    0.000000   0.000001   0.000000   0.000000   0.000007  -0.000616
    42  H    0.000000  -0.000032   0.000809  -0.000013   0.000059  -0.000862
    43  H    0.000000   0.000000  -0.000003   0.000000  -0.000004   0.000010
    44  H    0.000000   0.000000   0.000000   0.000000   0.000004  -0.000038
              31         32         33         34         35         36
     1  C    0.007145  -0.047232  -0.042399   0.008046  -0.011553  -0.003834
     2  C   -0.039946  -0.005140  -0.006388  -0.000220   0.000395  -0.000069
     3  C   -0.007901  -0.000920  -0.000237   0.000012  -0.000070  -0.000003
     4  C    0.000549   0.000129   0.000121   0.000000   0.000391  -0.000006
     5  C   -0.000098   0.000128   0.000004   0.000000   0.000841  -0.000091
     6  H   -0.000205   0.008178  -0.000533  -0.000258   0.000233   0.004769
     7  H   -0.002687   0.006142   0.000279  -0.000029   0.000029   0.000018
     8  H    0.000062  -0.000049  -0.000014   0.000000  -0.000015   0.000000
     9  H   -0.000036   0.000023  -0.000002   0.000000  -0.000009   0.000000
    10  O   -0.000107   0.002824   0.003780  -0.000150   0.013075  -0.000367
    11  O    0.000000  -0.000127   0.000007   0.000000   0.000272  -0.000003
    12  C   -0.000019   0.388488   0.388209  -0.037876  -0.038633  -0.040929
    13  C    0.000019  -0.040844  -0.036899   0.392408   0.384353   0.384835
    14  C    0.386023   0.000966   0.001954  -0.000004  -0.000073   0.000037
    15  O    0.011437  -0.000016  -0.000003   0.000000   0.000000   0.000000
    16  Si   0.000572  -0.000035  -0.000002   0.000000   0.000001   0.000000
    17  C    0.000054   0.000000   0.000000   0.000000   0.000000   0.000000
    18  C    0.000043   0.000000   0.000000   0.000000   0.000000   0.000000
    19  C   -0.000003   0.000000   0.000000   0.000000   0.000000   0.000000
    20  H    0.000001   0.000000   0.000000   0.000000   0.000000   0.000000
    21  H    0.000003   0.000000   0.000000   0.000000   0.000000   0.000000
    22  H    0.000000   0.000000   0.000000   0.000000   0.000000   0.000000
    23  H   -0.000001   0.000000   0.000000   0.000000   0.000000   0.000000
    24  H   -0.000010   0.000000   0.000000   0.000000   0.000000   0.000000
    25  H   -0.000001   0.000000   0.000000   0.000000   0.000000   0.000000
    26  H    0.000175   0.000000   0.000000   0.000000   0.000000   0.000000
    27  H    0.000063   0.000000   0.000000   0.000000   0.000000   0.000000
    28  H    0.000006   0.000000   0.000000   0.000000   0.000000   0.000000
    29  H   -0.024402   0.000237   0.000587   0.000007  -0.000023   0.000035
    30  H   -0.024197   0.000107   0.000207   0.000004  -0.000001  -0.000011
    31  H    0.433396  -0.000129   0.000392  -0.000001   0.000005  -0.000005
    32  H   -0.000129   0.486680  -0.026022  -0.004744  -0.004195   0.006921
    33  H    0.000392  -0.026022   0.476477  -0.004775   0.006985  -0.004666
    34  H   -0.000001  -0.004744  -0.004775   0.471553  -0.025594  -0.027503
    35  H    0.000005  -0.004195   0.006985  -0.025594   0.460635  -0.027465
    36  H   -0.000005   0.006921  -0.004666  -0.027503  -0.027465   0.485989
    37  C    0.000116   0.000036   0.000029   0.000000  -0.000001  -0.000008
    38  C    0.000332  -0.000010  -0.000008   0.000000   0.000000  -0.000003
    39  C    0.000258   0.000000   0.000002   0.000000   0.000000  -0.000003
    40  H   -0.000119   0.000002   0.000001   0.000000   0.000000   0.000000
    41  H   -0.000059  -0.000037  -0.000038   0.000002  -0.000002  -0.000010
    42  H    0.000218  -0.000001   0.000001   0.000000   0.000000   0.000000
    43  H    0.000005   0.000000   0.000000   0.000000   0.000000   0.000000
    44  H   -0.000014   0.000000   0.000002   0.000000   0.000000   0.000003
              37         38         39         40         41         42
     1  C    0.002826  -0.001011  -0.000390  -0.000628   0.000085   0.000094
     2  C   -0.086830  -0.004620   0.001296   0.008788  -0.004880  -0.000521
     3  C    0.296235  -0.049385  -0.000215  -0.047736  -0.020356  -0.003280
     4  C   -0.109879   0.008104  -0.000013  -0.005304  -0.007035  -0.000109
     5  C    0.000368  -0.000392  -0.000029  -0.000255   0.003694  -0.000016
     6  H    0.006697  -0.000147   0.001605   0.000396  -0.003727  -0.000037
     7  H    0.009514  -0.000607  -0.000050  -0.000183  -0.000451  -0.000081
     8  H    0.007561  -0.000236   0.000003  -0.000088   0.000135   0.000021
     9  H   -0.004999   0.000082  -0.000002   0.003516  -0.000540  -0.000005
    10  O   -0.005183   0.000328  -0.000012  -0.000152   0.003945   0.000000
    11  O    0.000170  -0.000003   0.000000   0.000007  -0.000365   0.000000
    12  C   -0.000513   0.000009   0.000008   0.000012   0.000746   0.000009
    13  C   -0.000021   0.000004   0.000000  -0.000002  -0.000008   0.000000
    14  C   -0.003210  -0.014678  -0.003568  -0.000438   0.000513  -0.000125
    15  O   -0.068240   0.003235   0.000788  -0.002507   0.003805   0.005099
    16  Si  -0.014189  -0.000191   0.000472  -0.001740   0.001644   0.002531
    17  C   -0.000215  -0.000147  -0.000002  -0.000020   0.000003   0.000376
    18  C   -0.001956   0.000580  -0.000014  -0.001658  -0.000067  -0.000006
    19  C   -0.000406   0.000032   0.000000  -0.000152   0.000010   0.000027
    20  H   -0.000061   0.001346   0.000203  -0.001337  -0.000048   0.000329
    21  H   -0.000356   0.000125  -0.000008   0.000830  -0.000073  -0.000024
    22  H    0.000240  -0.000047  -0.000002   0.000395  -0.000005   0.000005
    23  H   -0.000084   0.000004   0.000000  -0.000047   0.000005   0.000001
    24  H   -0.000045   0.000003   0.000000   0.000002   0.000003   0.000001
    25  H    0.000008  -0.000001   0.000000   0.000005   0.000000   0.000000
    26  H   -0.000026  -0.000004   0.000000   0.000000   0.000001  -0.000032
    27  H    0.000011   0.000025  -0.000007  -0.000008   0.000000   0.000809
    28  H    0.000003  -0.000003   0.000000   0.000001   0.000000  -0.000013
    29  H   -0.000529   0.000530   0.000185   0.000026   0.000007   0.000059
    30  H    0.002066   0.002963   0.002065   0.000245  -0.000616  -0.000862
    31  H    0.000116   0.000332   0.000258  -0.000119  -0.000059   0.000218
    32  H    0.000036  -0.000010   0.000000   0.000002  -0.000037  -0.000001
    33  H    0.000029  -0.000008   0.000002   0.000001  -0.000038   0.000001
    34  H    0.000000   0.000000   0.000000   0.000000   0.000002   0.000000
    35  H   -0.000001   0.000000   0.000000   0.000000  -0.000002   0.000000
    36  H   -0.000008  -0.000003  -0.000003   0.000000  -0.000010   0.000000
    37  C    5.474259   0.320150  -0.059263   0.390732   0.379346  -0.047431
    38  C    0.320150   5.064283   0.620806  -0.038976  -0.043656   0.395534
    39  C   -0.059263   0.620806   5.151444  -0.004200   0.002180  -0.038640
    40  H    0.390732  -0.038976  -0.004200   0.461796  -0.025783  -0.000373
    41  H    0.379346  -0.043656   0.002180  -0.025783   0.453379   0.004746
    42  H   -0.047431   0.395534  -0.038640  -0.000373   0.004746   0.455363
    43  H    0.006355  -0.039308   0.393847  -0.000368   0.000105  -0.007711
    44  H   -0.008957  -0.040781   0.388344   0.000281   0.004420   0.005891
              43         44
     1  C    0.000010   0.000118
     2  C   -0.000021  -0.000050
     3  C   -0.000265   0.000093
     4  C    0.000013  -0.000033
     5  C    0.000000  -0.000013
     6  H    0.000010   0.000474
     7  H   -0.000002   0.000004
     8  H   -0.000001   0.000002
     9  H    0.000000   0.000004
    10  O    0.000000  -0.000025
    11  O    0.000000   0.000000
    12  C    0.000000   0.000001
    13  C    0.000000  -0.000001
    14  C    0.000052   0.000067
    15  O    0.000016  -0.000003
    16  Si   0.000017  -0.000002
    17  C   -0.000001   0.000000
    18  C   -0.000001  -0.000001
    19  C    0.000000   0.000000
    20  H   -0.000006   0.000001
    21  H    0.000000   0.000001
    22  H    0.000000   0.000000
    23  H    0.000000   0.000000
    24  H    0.000000   0.000000
    25  H    0.000000   0.000000
    26  H    0.000000   0.000000
    27  H   -0.000003   0.000000
    28  H    0.000000   0.000000
    29  H   -0.000004   0.000004
    30  H    0.000010  -0.000038
    31  H    0.000005  -0.000014
    32  H    0.000000   0.000000
    33  H    0.000000   0.000002
    34  H    0.000000   0.000000
    35  H    0.000000   0.000000
    36  H    0.000000   0.000003
    37  C    0.006355  -0.008957
    38  C   -0.039308  -0.040781
    39  C    0.393847   0.388344
    40  H   -0.000368   0.000281
    41  H    0.000105   0.004420
    42  H   -0.007711   0.005891
    43  H    0.455467  -0.033952
    44  H   -0.033952   0.463198
 Mulliken charges:
               1
     1  C   -0.033486
     2  C   -0.283314
     3  C    0.184911
     4  C   -0.658288
     5  C    0.484005
     6  H    0.246296
     7  H    0.241985
     8  H    0.298675
     9  H    0.265438
    10  O   -0.328809
    11  O   -0.383231
    12  C   -0.439473
    13  C   -0.663598
    14  C   -0.688230
    15  O   -0.636828
    16  Si   1.431013
    17  C   -1.042417
    18  C   -1.079545
    19  C   -1.064156
    20  H    0.249394
    21  H    0.246048
    22  H    0.243494
    23  H    0.245605
    24  H    0.243819
    25  H    0.238710
    26  H    0.241327
    27  H    0.240953
    28  H    0.233220
    29  H    0.237658
    30  H    0.243050
    31  H    0.259065
    32  H    0.228635
    33  H    0.242950
    34  H    0.229125
    35  H    0.240420
    36  H    0.222369
    37  C   -0.484318
    38  C   -0.184259
    39  C   -0.457086
    40  H    0.265039
    41  H    0.248982
    42  H    0.228154
    43  H    0.225735
    44  H    0.220962
 Sum of Mulliken charges =   0.00000
 Mulliken charges with hydrogens summed into heavy atoms:
               1
     1  C    0.212811
     2  C   -0.041329
     3  C    0.184911
     4  C   -0.094176
     5  C    0.484005
    10  O   -0.328809
    11  O   -0.383231
    12  C    0.032112
    13  C    0.028316
    14  C    0.051544
    15  O   -0.636828
    16  Si   1.431013
    17  C   -0.326917
    18  C   -0.340608
    19  C   -0.336021
    37  C    0.029703
    38  C    0.043894
    39  C   -0.010390
 Electronic spatial extent (au):  <R**2>=           5694.5692
 Charge=              0.0000 electrons
 Dipole moment (field-independent basis, Debye):
    X=             -2.4571    Y=              3.0837    Z=              2.5756  Tot=              4.7095
 Quadrupole moment (field-independent basis, Debye-Ang):
   XX=           -116.5394   YY=           -128.1052   ZZ=           -122.6216
   XY=             11.9116   XZ=              7.8655   YZ=             -8.6366
 Traceless Quadrupole moment (field-independent basis, Debye-Ang):
   XX=              5.8827   YY=             -5.6832   ZZ=             -0.1995
   XY=             11.9116   XZ=              7.8655   YZ=             -8.6366
 Octapole moment (field-independent basis, Debye-Ang**2):
  XXX=            -20.3221  YYY=             32.3648  ZZZ=             13.1556  XYY=            -18.8876
  XXY=             13.1518  XXZ=             18.4144  XZZ=              5.6869  YZZ=              6.1433
  YYZ=             20.1419  XYZ=            -19.6275
 Hexadecapole moment (field-independent basis, Debye-Ang**3):
 XXXX=          -4694.6242 YYYY=          -1829.4835 ZZZZ=          -1172.0394 XXXY=             67.3120
 XXXZ=             47.0513 YYYX=             24.0411 YYYZ=            -64.8585 ZZZX=             -4.0793
 ZZZY=              2.8927 XXYY=          -1145.6315 XXZZ=          -1010.5440 YYZZ=           -540.4858
 XXYZ=            -34.5509 YYXZ=             37.1196 ZZXY=             39.5359
 N-N= 1.616943571784D+03 E-N=-5.728988437675D+03  KE= 1.060533026100D+03
 1\1\GINC-SWANNODE-0-15\SP\RmPW1PW91\6-311G(d)\C14H26O3Si1\KE291\07-Feb
 -2019\0\\# mPW1PW91/6-311g(d) geom=checkpoint nmr=giao scrf=(solvent=c
 hloroform)\\P_ng_correct1ginp007\\0,1\C,0,1.0903911286,-0.118278018,0.
 8244900851\C,0,-0.4062270976,-0.2349388645,0.5010171491\C,0,-1.2288245
 434,0.8041488753,1.3155477897\C,0,-0.7122969472,2.1803517462,0.8632071
 655\C,0,0.7907309578,2.3558892497,0.9666753242\H,0,1.2727808143,-0.524
 8835523,1.8277193819\H,0,-0.5467035923,0.0575528655,-0.5491312799\H,0,
 -0.9730356282,2.3260220662,-0.1916482904\H,0,-1.166597652,2.9998327897
 ,1.425783706\O,0,1.5745950624,1.2632165687,0.8825635857\O,0,1.31481345
 17,3.444675164,1.0789184693\C,0,2.002096437,-0.8327277014,-0.175988819
 4\C,0,3.4886345779,-0.7674147974,0.1875693778\C,0,-0.8944208853,-1.684
 8582001,0.6400985955\O,0,-2.5926883953,0.6247803673,0.9480438668\Si,0,
 -3.973154968,1.5899315087,0.9139274095\C,0,-5.357629675,0.3558738954,0
 .6025988259\C,0,-4.2623601271,2.4991596011,2.5431206906\C,0,-3.9053590
 455,2.8381555563,-0.5006939778\H,0,-4.3045881553,1.8092228322,3.392389
 2444\H,0,-3.4905601744,3.2473309931,2.7526519299\H,0,-5.2219191698,3.0
 278793092,2.4984102268\H,0,-3.1714715577,3.6318191285,-0.3295238994\H,
 0,-3.6605042233,2.3499390184,-1.450081571\H,0,-4.8843642707,3.31755515
 83,-0.618574707\H,0,-5.1930932077,-0.1926133835,-0.3307163965\H,0,-5.4
 293981113,-0.3762254666,1.4136010468\H,0,-6.3242256398,0.8659192786,0.
 5248489244\H,0,-0.4803857137,-2.3130291684,-0.152956544\H,0,-0.6168944
 198,-2.1198251725,1.6030656879\H,0,-1.9820116074,-1.7131755311,0.55391
 83745\H,0,1.8343226801,-0.3950562326,-1.1681730818\H,0,1.6882157188,-1
 .8798223979,-0.2343669434\H,0,4.0886784538,-1.3060672316,-0.5519795946
 \H,0,3.8416911143,0.2657888884,0.2259615767\H,0,3.6756911744,-1.224436
 3273,1.1658297876\C,0,-1.090426023,0.7019858894,2.8605542767\C,0,-1.63
 55469053,-0.5387949397,3.5137129167\C,0,-1.013862211,-1.2251919931,4.4
 742225256\H,0,-1.6338969348,1.5670829349,3.2647610639\H,0,-0.043250039
 6,0.8440430052,3.15202163\H,0,-2.6261897864,-0.8504107996,3.1881279413
 \H,0,-1.4722482264,-2.0910154827,4.9430341566\H,0,-0.0251026368,-0.944
 6474295,4.8307173727\\Version=EM64L-G09RevD.01\State=1-A\HF=-1064.3832
 669\RMSD=3.323e-09\Dipole=-1.3343348,-1.2780256,-0.1390758\Quadrupole=
 -1.5353513,-2.9814453,4.5167965,-12.5089036,-0.2205011,-0.1114515\PG=C
 01 [X(C14H26O3Si1)]\\@


 BLACK HOLES SUCK.
 Job cpu time:       0 days  0 hours 46 minutes 29.4 seconds.
 File lengths (MBytes):  RWF=    241 Int=      0 D2E=      0 Chk=     19 Scr=      1
 Normal termination of Gaussian 09 at Thu Feb  7 12:27:57 2019.
