 Entering Gaussian System, Link 0=/usr/local/Cluster-Apps/gaussian/g09/g09
 Initial command:
 /usr/local/Cluster-Apps/gaussian/g09/l1.exe "/home/ke291/rds/hpc-work/06Feb0927IP1/Gau-177826.inp" -scrdir="/home/ke291/rds/hpc-work/06Feb0927IP1/"
 Entering Link 1 = /usr/local/Cluster-Apps/gaussian/g09/l1.exe PID=    177831.
  
 Copyright (c) 1988,1990,1992,1993,1995,1998,2003,2009,2013,
            Gaussian, Inc.  All Rights Reserved.
  
 This is part of the Gaussian(R) 09 program.  It is based on
 the Gaussian(R) 03 system (copyright 2003, Gaussian, Inc.),
 the Gaussian(R) 98 system (copyright 1998, Gaussian, Inc.),
 the Gaussian(R) 94 system (copyright 1995, Gaussian, Inc.),
 the Gaussian 92(TM) system (copyright 1992, Gaussian, Inc.),
 the Gaussian 90(TM) system (copyright 1990, Gaussian, Inc.),
 the Gaussian 88(TM) system (copyright 1988, Gaussian, Inc.),
 the Gaussian 86(TM) system (copyright 1986, Carnegie Mellon
 University), and the Gaussian 82(TM) system (copyright 1983,
 Carnegie Mellon University). Gaussian is a federally registered
 trademark of Gaussian, Inc.
  
 This software contains proprietary and confidential information,
 including trade secrets, belonging to Gaussian, Inc.
  
 This software is provided under written license and may be
 used, copied, transmitted, or stored only in accord with that
 written license.
  
 The following legend is applicable only to US Government
 contracts under FAR:
  
                    RESTRICTED RIGHTS LEGEND
  
 Use, reproduction and disclosure by the US Government is
 subject to restrictions as set forth in subparagraphs (a)
 and (c) of the Commercial Computer Software - Restricted
 Rights clause in FAR 52.227-19.
  
 Gaussian, Inc.
 340 Quinnipiac St., Bldg. 40, Wallingford CT 06492
  
  
 ---------------------------------------------------------------
 Warning -- This program may not be used in any manner that
 competes with the business of Gaussian, Inc. or will provide
 assistance to any competitor of Gaussian, Inc.  The licensee
 of this program is prohibited from giving any competitor of
 Gaussian, Inc. access to this program.  By using this program,
 the user acknowledges that Gaussian, Inc. is engaged in the
 business of creating and licensing software in the field of
 computational chemistry and represents and warrants to the
 licensee that it is not a competitor of Gaussian, Inc. and that
 it will not use this program in any manner prohibited above.
 ---------------------------------------------------------------
  

 Cite this work as:
 Gaussian 09, Revision D.01,
 M. J. Frisch, G. W. Trucks, H. B. Schlegel, G. E. Scuseria, 
 M. A. Robb, J. R. Cheeseman, G. Scalmani, V. Barone, B. Mennucci, 
 G. A. Petersson, H. Nakatsuji, M. Caricato, X. Li, H. P. Hratchian, 
 A. F. Izmaylov, J. Bloino, G. Zheng, J. L. Sonnenberg, M. Hada, 
 M. Ehara, K. Toyota, R. Fukuda, J. Hasegawa, M. Ishida, T. Nakajima, 
 Y. Honda, O. Kitao, H. Nakai, T. Vreven, J. A. Montgomery, Jr., 
 J. E. Peralta, F. Ogliaro, M. Bearpark, J. J. Heyd, E. Brothers, 
 K. N. Kudin, V. N. Staroverov, T. Keith, R. Kobayashi, J. Normand, 
 K. Raghavachari, A. Rendell, J. C. Burant, S. S. Iyengar, J. Tomasi, 
 M. Cossi, N. Rega, J. M. Millam, M. Klene, J. E. Knox, J. B. Cross, 
 V. Bakken, C. Adamo, J. Jaramillo, R. Gomperts, R. E. Stratmann, 
 O. Yazyev, A. J. Austin, R. Cammi, C. Pomelli, J. W. Ochterski, 
 R. L. Martin, K. Morokuma, V. G. Zakrzewski, G. A. Voth, 
 P. Salvador, J. J. Dannenberg, S. Dapprich, A. D. Daniels, 
 O. Farkas, J. B. Foresman, J. V. Ortiz, J. Cioslowski, 
 and D. J. Fox, Gaussian, Inc., Wallingford CT, 2013.
 
 ******************************************
 Gaussian 09:  ES64L-G09RevD.01 24-Apr-2013
                 6-Feb-2019 
 ******************************************
 %nprocshared=2
 Will use up to    2 processors via shared memory.
 %mem=6000MB
 %chk=/home/ke291/rds/hpc-work/06Feb0927IP1/P_ng_2ginp004.chk
 ----------------------------------------------------------------------
 # mPW1PW91/6-311g(d) geom=checkpoint nmr=giao scrf=(solvent=chloroform
 )
 ----------------------------------------------------------------------
 1/29=2,38=1/1;
 2/12=2,40=1/2;
 3/5=4,6=6,7=1,11=2,14=-4,16=1,25=1,30=1,70=2201,72=7,74=-7/1,2,8,3;
 4//1;
 5/5=2,38=5,53=7/2;
 8/6=1,10=90,11=11/1;
 10/13=100,45=16/2;
 6/7=2,8=2,9=2,10=2,28=1/1;
 99/9=1/99;
 -------------
 P_ng_2ginp004
 -------------
 Structure from the checkpoint file:  "/home/ke291/rds/hpc-work/06Feb0927IP1/P_ng_2ginp004.chk"
 Charge =  0 Multiplicity = 1
 Redundant internal coordinates found in file.
 C,0,-0.41246155,-0.2913207786,1.3644600348
 C,0,-1.0286162344,0.8828702796,0.5938023641
 C,0,-1.9639695913,1.7081773551,1.5221047429
 C,0,-1.054696616,2.2544218428,2.6369019598
 C,0,-0.2041438659,1.2121332691,3.3400547776
 H,0,-1.2022970583,-1.0195687764,1.5854471992
 H,0,-0.2234637611,1.5790152927,0.3260307296
 H,0,-0.3573201348,2.9771692641,2.1973549848
 H,0,-1.6185794699,2.7801481378,3.411758332
 O,0,0.1330236777,0.0920782345,2.6699333008
 O,0,0.2264278164,1.3743304938,4.4630454462
 C,0,0.7243694797,-1.0335120903,0.6523531814
 C,0,1.919199424,-0.1669007452,0.2436467473
 C,0,-1.6697815195,0.4049261057,-0.7172733929
 O,0,-2.494616642,2.7684518914,0.7324602739
 Si,0,-3.0946778758,4.3136324656,1.0370501105
 C,0,-4.360593778,4.335641749,2.4373870749
 C,0,-1.7005394084,5.5243549256,1.428327189
 C,0,-3.9146420815,4.7925413138,-0.5860502857
 H,0,-2.0940782871,6.5473508811,1.4563101518
 H,0,-1.2306521688,5.3286423163,2.3972653988
 H,0,-0.9196450556,5.4917062244,0.6609673565
 H,0,-4.3237762123,5.8074830494,-0.530851085
 H,0,-3.1981776183,4.765595504,-1.4136438345
 H,0,-4.7369929699,4.1128101567,-0.8322218526
 H,0,-4.7865206718,5.3420777493,2.5264729686
 H,0,-5.1872116087,3.6425728181,2.2495436798
 H,0,-3.9208797592,4.0835119959,3.4081049996
 H,0,-2.2172308538,1.2282493265,-1.1795111458
 H,0,-0.9015039519,0.0741707679,-1.4217576965
 H,0,-2.3666580636,-0.4211615768,-0.5577676367
 H,0,0.3035254276,-1.5401139716,-0.2227455708
 H,0,1.0608931153,-1.8244692408,1.3317406244
 H,0,1.6541035864,0.5638640431,-0.5268697865
 H,0,2.3219404956,0.3764353659,1.1036687249
 H,0,2.7202994508,-0.7926408085,-0.1607410138
 C,0,-3.1312243034,0.9139889823,2.172739318
 C,0,-4.1812457953,0.3663697794,1.2449310416
 C,0,-4.7067835905,-0.8569534279,1.3316924544
 H,0,-3.6176416921,1.6138536308,2.8655141516
 H,0,-2.7330066584,0.1067248468,2.7982005692
 H,0,-4.5470796641,1.0532064074,0.4839761676
 H,0,-5.4944937991,-1.1868828695,0.6607148766
 H,0,-4.3725331627,-1.5729461803,2.0794433686
 Recover connectivity data from disk.
                          Input orientation:                          
 ---------------------------------------------------------------------
 Center     Atomic      Atomic             Coordinates (Angstroms)
 Number     Number       Type             X           Y           Z
 ---------------------------------------------------------------------
      1          6           0       -0.412462   -0.291321    1.364460
      2          6           0       -1.028616    0.882870    0.593802
      3          6           0       -1.963970    1.708177    1.522105
      4          6           0       -1.054697    2.254422    2.636902
      5          6           0       -0.204144    1.212133    3.340055
      6          1           0       -1.202297   -1.019569    1.585447
      7          1           0       -0.223464    1.579015    0.326031
      8          1           0       -0.357320    2.977169    2.197355
      9          1           0       -1.618579    2.780148    3.411758
     10          8           0        0.133024    0.092078    2.669933
     11          8           0        0.226428    1.374330    4.463045
     12          6           0        0.724369   -1.033512    0.652353
     13          6           0        1.919199   -0.166901    0.243647
     14          6           0       -1.669782    0.404926   -0.717273
     15          8           0       -2.494617    2.768452    0.732460
     16         14           0       -3.094678    4.313632    1.037050
     17          6           0       -4.360594    4.335642    2.437387
     18          6           0       -1.700539    5.524355    1.428327
     19          6           0       -3.914642    4.792541   -0.586050
     20          1           0       -2.094078    6.547351    1.456310
     21          1           0       -1.230652    5.328642    2.397265
     22          1           0       -0.919645    5.491706    0.660967
     23          1           0       -4.323776    5.807483   -0.530851
     24          1           0       -3.198178    4.765596   -1.413644
     25          1           0       -4.736993    4.112810   -0.832222
     26          1           0       -4.786521    5.342078    2.526473
     27          1           0       -5.187212    3.642573    2.249544
     28          1           0       -3.920880    4.083512    3.408105
     29          1           0       -2.217231    1.228249   -1.179511
     30          1           0       -0.901504    0.074171   -1.421758
     31          1           0       -2.366658   -0.421162   -0.557768
     32          1           0        0.303525   -1.540114   -0.222746
     33          1           0        1.060893   -1.824469    1.331741
     34          1           0        1.654104    0.563864   -0.526870
     35          1           0        2.321940    0.376435    1.103669
     36          1           0        2.720299   -0.792641   -0.160741
     37          6           0       -3.131224    0.913989    2.172739
     38          6           0       -4.181246    0.366370    1.244931
     39          6           0       -4.706784   -0.856953    1.331692
     40          1           0       -3.617642    1.613854    2.865514
     41          1           0       -2.733007    0.106725    2.798201
     42          1           0       -4.547080    1.053206    0.483976
     43          1           0       -5.494494   -1.186883    0.660715
     44          1           0       -4.372533   -1.572946    2.079443
 ---------------------------------------------------------------------
                    Distance matrix (angstroms):
                    1          2          3          4          5
     1  C    0.000000
     2  C    1.533716   0.000000
     3  C    2.535749   1.554916   0.000000
     4  C    2.917598   2.460912   1.538809   0.000000
     5  C    2.491334   2.886186   2.578369   1.517969   0.000000
     6  H    1.096823   2.152394   2.832800   3.441854   3.009228
     7  H    2.147606   1.097538   2.115806   2.547008   3.036333
     8  H    3.373393   2.721784   2.155835   1.096312   2.108217
     9  H    3.883307   3.447984   2.199820   1.093048   2.112922
    10  O    1.465882   2.507006   2.885597   2.467286   1.348061
    11  O    3.575445   4.097281   3.682177   2.398049   1.213593
    12  C    1.533078   2.597866   3.937067   4.232496   3.623369
    13  C    2.590047   3.148689   4.497708   4.520457   3.999758
    14  C    2.529669   1.535722   2.607647   3.879363   4.388803
    15  O    3.754597   2.392447   1.424537   2.442232   3.803675
    16  Si   5.339202   4.029294   2.881350   3.310800   4.824761
    17  C    6.176383   5.140283   3.672209   3.911552   5.277044
    18  C    5.956955   4.763538   3.826408   3.545452   4.948652
    19  C    6.474211   5.000672   4.214587   5.000876   6.480850
    20  H    7.042990   5.827990   4.841369   4.572018   5.965307
    21  H    5.772357   4.801894   3.796239   3.088562   4.346058
    22  H    5.847695   4.610613   4.018366   3.795071   5.099431
    23  H    7.489058   6.031147   5.156319   5.774581   7.285089
    24  H    6.407065   4.879794   4.414713   5.225651   6.647479
    25  H    6.551592   5.120363   4.360593   5.389595   6.809445
    26  H    7.226192   6.143419   4.709648   4.844824   6.222261
    27  H    6.249570   5.258455   3.828883   4.376607   5.650417
    28  H    5.968638   5.150689   3.609530   3.486450   4.697188
    29  H    3.469593   2.162575   2.755576   4.119408   4.947651
    30  H    2.852325   2.175462   3.530600   4.609738   4.945314
    31  H    2.744212   2.194759   3.003683   4.368742   4.747330
    32  H    2.142742   2.883089   4.328676   4.941746   4.530578
    33  H    2.126591   3.498613   4.654635   4.776664   3.854166
    34  H    2.929020   2.924834   4.312563   4.495001   4.338945
    35  H    2.826812   3.426758   4.507510   4.156840   3.475761
    36  H    3.520192   4.175050   5.570318   5.600178   4.982676
    37  C    3.081843   2.629633   1.554524   2.514791   3.165330
    38  C    3.827607   3.260340   2.606451   3.908661   4.574079
    39  C    4.331537   4.135261   3.760210   4.972119   5.346812
    40  H    4.019457   3.521088   2.132669   2.651656   3.469659
    41  H    2.756625   2.892528   2.187347   2.730448   2.812593
    42  H    4.435997   3.524296   2.859922   4.274897   5.200340
    43  H    5.208103   4.922643   4.646285   5.954804   6.397026
    44  H    4.223261   4.406807   4.108233   5.095836   5.169263
                    6          7          8          9         10
     6  H    0.000000
     7  H    3.049079   0.000000
     8  H    4.130658   2.339788   0.000000
     9  H    4.236337   3.593158   1.761922   0.000000
    10  O    2.048158   2.798561   2.964375   3.293044   0.000000
    11  O    4.006567   4.166436   2.836055   2.546680   2.206388
    12  C    2.140772   2.798245   4.432003   5.258111   2.384800
    13  C    3.503029   2.765143   4.345652   5.589088   3.023964
    14  C    2.747772   2.135136   4.102932   4.763738   3.849825
    15  O    4.092283   2.595781   2.599522   2.818903   4.221525
    16  Si   5.685497   4.028343   3.259688   3.188994   5.559306
    17  C    6.275263   5.401172   4.234296   3.299637   6.185023
    18  C    6.564744   4.354597   2.980570   3.386944   5.866274
    19  C    6.771473   4.978297   4.868004   5.030318   7.005668
    20  H    7.620382   5.427807   4.038771   4.271030   6.935662
    21  H    6.399972   4.400471   2.516366   2.770290   5.418077
    22  H    6.582648   3.988233   2.999932   3.925291   5.856623
    23  H    7.799422   5.952037   5.584493   5.659242   7.923001
    24  H    6.815146   4.693579   4.930340   5.451755   7.043740
    25  H    6.684348   5.304113   5.445140   5.432482   7.221388
    26  H    7.362251   6.310632   5.031792   4.169300   7.196179
    27  H    6.168965   5.709375   4.875791   3.850929   6.409964
    28  H    6.062525   5.426101   3.922865   2.645630   5.736774
    29  H    3.705101   2.522856   4.233345   4.883291   4.651108
    30  H    3.214035   2.403968   4.671350   5.585641   4.220486
    31  H    2.511413   3.061877   4.814228   5.154138   4.114593
    32  H    2.409985   3.210583   5.167151   5.963956   3.325765
    33  H    2.415422   3.774219   5.080979   5.719139   2.514927
    34  H    3.889494   2.298528   4.158277   5.579889   3.571529
    35  H    3.821150   2.920617   3.890810   5.160699   2.706548
    36  H    4.299701   3.811488   5.407756   6.659838   3.935663
    37  C    2.793621   3.508228   3.457147   2.702927   3.402654
    38  C    3.303167   4.240156   4.727134   4.133851   4.551790
    39  C    3.517423   5.200525   5.862397   5.205016   5.110312
    40  H    3.795705   4.239178   3.596493   2.377998   4.052350
    41  H    2.254413   3.817993   3.774169   2.960674   2.868937
    42  H    4.086221   4.358334   4.918474   4.486686   5.254098
    43  H    4.393868   5.962044   6.789046   6.190984   6.110782
    44  H    3.255865   5.497644   6.069546   5.320597   4.839528
                   11         12         13         14         15
    11  O    0.000000
    12  C    4.535088   0.000000
    13  C    4.800437   1.531560   0.000000
    14  C    5.600987   3.110778   3.759141   0.000000
    15  O    4.823373   4.982291   5.323251   2.892807   0.000000
    16  Si   5.604167   6.582178   6.770793   4.515082   1.685358
    17  C    5.823523   7.607300   8.032508   5.713395   2.974009
    18  C    5.490485   7.034766   6.848092   5.550955   2.951235
    19  C    7.370617   7.549634   7.701829   4.930293   2.802121
    20  H    6.417581   8.127698   7.915689   6.529462   3.868393
    21  H    4.693305   6.880686   6.690339   5.842617   3.305111
    22  H    5.720320   6.729141   6.344527   5.323306   3.146706
    23  H    8.080606   8.583878   8.675705   6.022131   3.765301
    24  H    7.600268   7.299614   7.298197   4.672940   3.014854
    25  H    7.757234   7.649515   7.986133   4.813461   3.046930
    26  H    6.680044   8.633098   8.973674   6.679178   3.885210
    27  H    6.273118   7.704776   8.308838   5.626426   3.211806
    28  H    5.064852   7.440191   7.885831   5.968097   3.304948
    29  H    6.150712   4.138152   4.591501   1.091433   2.470790
    30  H    6.131358   2.858734   3.284517   1.093594   3.799712
    31  H    5.929287   3.375473   4.367549   1.092474   3.443065
    32  H    5.518747   1.095241   2.171092   2.814548   5.225491
    33  H    4.553430   1.095641   2.160595   4.077407   5.839153
    34  H    5.253034   2.192392   1.094527   3.333126   4.863949
    35  H    4.083183   2.178043   1.094099   4.387538   5.390618
    36  H    5.682830   2.168612   1.094002   4.584398   6.377659
    37  C    4.090384   4.579294   5.513302   3.278282   2.432839
    38  C    5.549760   5.135745   6.205029   3.187348   2.979487
    39  C    6.254644   5.476322   6.750086   3.874788   4.289094
    40  H    4.169694   5.546142   6.379803   4.253473   2.672864
    41  H    3.624470   4.225902   5.314474   3.684824   3.377707
    42  H    6.222739   5.671942   6.584769   3.184668   2.686339
    43  H    7.331199   6.220760   7.495142   4.365906   4.964784
    44  H    5.959735   5.320338   6.703209   4.363310   4.918198
                   16         17         18         19         20
    16  Si   0.000000
    17  C    1.887848   0.000000
    18  C    1.887477   3.083363   0.000000
    19  C    1.880465   3.090114   3.081480   0.000000
    20  H    2.483239   3.315307   1.096438   3.250392   0.000000
    21  H    2.520917   3.283930   1.094504   4.048627   1.765263
    22  H    2.502012   4.041322   1.095310   3.318718   1.768120
    23  H    2.490098   3.313323   3.286322   1.095694   3.076974
    24  H    2.494170   4.045554   3.300823   1.094970   3.553917
    25  H    2.496339   3.298738   4.040123   1.094941   4.260207
    26  H    2.477582   1.096478   3.280614   3.278714   3.138021
    27  H    2.509813   1.094955   4.046280   3.313979   4.316761
    28  H    2.521402   1.095085   3.305368   4.056604   3.635548
    29  H    3.899057   5.227987   5.052159   3.992190   5.937639
    30  H    5.369244   6.709578   6.202092   5.660427   7.183841
    31  H    5.048934   5.964387   6.303765   5.438727   7.258855
    32  H    6.884854   7.959574   7.526556   7.617575   8.600862
    33  H    7.418349   8.280214   7.851118   8.498159   8.947443
    34  H    6.249603   7.693485   6.299436   6.992578   7.333757
    35  H    6.696694   7.881014   6.541164   7.826372   7.596432
    36  H    7.830881   9.120779   7.872318   8.683179   8.925725
    37  C    3.584509   3.645421   4.884310   4.823674   5.772669
    38  C    4.099357   4.148402   5.726460   4.797350   6.527287
    39  C    5.424081   5.320287   7.054640   6.018473   7.852737
    40  H    3.302359   2.853665   4.586154   4.701655   5.352242
    41  H    4.574989   4.545653   5.682716   5.899686   6.609884
    42  H    3.611889   3.824261   5.383842   3.940502   6.094938
    43  H    6.013020   5.911055   7.747518   6.309031   8.486116
    44  H    6.113208   5.919432   7.611517   6.916209   8.456883
                   21         22         23         24         25
    21  H    0.000000
    22  H    1.771453   0.000000
    23  H    4.286090   3.620532   0.000000
    24  H    4.325645   3.165906   1.769696   0.000000
    25  H    4.919579   4.324710   1.770166   1.769783   0.000000
    26  H    3.558241   4.295955   3.126974   4.287154   3.576924
    27  H    4.303372   4.914773   3.628078   4.316987   3.149778
    28  H    3.132007   4.305483   4.318539   4.923088   4.318249
    29  H    5.529909   4.821634   5.082094   3.678300   3.845842
    30  H    6.504056   5.804116   6.736210   5.223432   5.600816
    31  H    6.563762   6.208153   6.528939   5.322255   5.123545
    32  H    7.509858   7.191911   8.688730   7.310413   7.598279
    33  H    7.586404   7.609132   9.524212   8.312988   8.576101
    34  H    6.290906   5.684960   7.951767   6.479626   7.316719
    35  H    6.230462   6.072055   8.736904   7.488210   8.218072
    36  H    7.721627   7.308722   9.660104   8.215359   8.951287
    37  C    4.811627   5.303964   5.716456   5.263221   4.673408
    38  C    5.887107   6.103124   5.725332   5.233319   4.319634
    39  C    7.174993   7.422787   6.930402   6.436289   5.420515
    40  H    4.440341   5.213152   5.442467   5.331099   4.601194
    41  H    5.448508   6.070755   6.790565   6.297705   5.765817
    42  H    5.739226   5.734971   4.866506   4.382046   3.336108
    43  H    7.977971   8.095233   7.191075   6.708802   5.557825
    44  H    7.589753   7.990233   7.828585   7.331977   6.398316
                   26         27         28         29         30
    26  H    0.000000
    27  H    1.767925   0.000000
    28  H    1.763688   1.772086   0.000000
    29  H    6.104028   5.138887   5.665789   0.000000
    30  H    7.644130   6.676768   6.965560   1.766838   0.000000
    31  H    6.970165   5.687746   6.199664   1.769025   1.771584
    32  H    8.990625   7.944851   7.915418   3.864382   2.344278
    33  H    9.326255   8.352827   8.002099   5.135326   3.877833
    34  H    8.581134   7.999407   7.678046   3.981781   2.751682
    35  H    8.787047   8.268497   7.617457   5.151949   4.106061
    36  H   10.060231   9.381328   8.978797   5.431491   3.931792
    37  C    4.740581   3.417331   3.492214   3.488800   4.312465
    38  C    5.173623   3.571375   4.308626   3.236991   4.237135
    39  C    6.313624   4.617250   5.416395   4.105129   4.788385
    40  H    3.921847   2.637929   2.546678   4.297915   5.303652
    41  H    5.630247   4.338936   4.194981   4.164857   4.600381
    42  H    4.756421   3.198721   4.257394   2.868105   4.228540
    43  H    6.827123   5.093372   6.148290   4.467633   5.198317
    44  H    6.941814   5.281503   5.827937   4.807578   5.198023
                   31         32         33         34         35
    31  H    0.000000
    32  H    2.914477   0.000000
    33  H    4.157838   1.752396   0.000000
    34  H    4.139777   2.518586   3.083905   0.000000
    35  H    5.037806   3.083267   2.546809   1.771946   0.000000
    36  H    5.115932   2.530486   2.458821   1.763783   1.767530
    37  C    3.134144   4.853707   5.077429   5.505437   5.582910
    38  C    2.676314   5.089394   5.682194   6.101605   6.504728
    39  C    3.039105   5.290197   5.848263   6.777452   7.139762
    40  H    4.174339   5.904271   6.005265   6.356260   6.317748
    41  H    3.416928   4.588978   4.502632   5.523749   5.338227
    42  H    2.830765   5.545551   6.359959   6.302058   6.930042
    43  H    3.443020   5.875568   6.620415   7.455060   7.983534
    44  H    3.507852   5.212166   5.490396   6.905011   7.040469
                   36         37         38         39         40
    36  H    0.000000
    37  C    6.526718   0.000000
    38  C    7.137965   1.504414   0.000000
    39  C    7.575821   2.515151   1.334255   0.000000
    40  H    7.424213   1.098339   2.121357   3.105435   0.000000
    41  H    6.269190   1.096109   2.139500   2.641045   1.748870
    42  H    7.525796   2.208155   1.088408   2.095910   2.617232
    43  H    8.265171   3.504985   2.116252   1.086072   4.028379
    44  H    7.479009   2.781079   2.119893   1.087888   3.368006
                   41         42         43         44
    41  H    0.000000
    42  H    3.089065   0.000000
    43  H    3.723987   2.438612   0.000000
    44  H    2.454782   3.077769   1.849495   0.000000
 Stoichiometry    C14H26O3Si
 Framework group  C1[X(C14H26O3Si)]
 Deg. of freedom   126
 Full point group                 C1      NOp   1
 Largest Abelian subgroup         C1      NOp   1
 Largest concise Abelian subgroup C1      NOp   1
                         Standard orientation:                         
 ---------------------------------------------------------------------
 Center     Atomic      Atomic             Coordinates (Angstroms)
 Number     Number       Type             X           Y           Z
 ---------------------------------------------------------------------
      1          6           0        2.473658    0.310613    0.101338
      2          6           0        1.128531    0.296601    0.838034
      3          6           0       -0.039990    0.118997   -0.172302
      4          6           0        0.192908   -1.252929   -0.829196
      5          6           0        1.581546   -1.461170   -1.405866
      6          1           0        2.544608    1.236224   -0.482812
      7          1           0        1.088916   -0.603470    1.464845
      8          1           0        0.052906   -2.032459   -0.071151
      9          1           0       -0.519018   -1.453695   -1.633938
     10          8           0        2.612523   -0.772591   -0.876515
     11          8           0        1.805127   -2.262715   -2.289238
     12          6           0        3.720885    0.218467    0.988053
     13          6           0        3.789213   -1.010903    1.898908
     14          6           0        1.000989    1.507308    1.774177
     15          8           0       -1.244405    0.121486    0.588412
     16         14           0       -2.793446   -0.513420    0.394002
     17          6           0       -3.524341   -0.131961   -1.304307
     18          6           0       -2.809833   -2.378570    0.682991
     19          6           0       -3.790425    0.345949    1.737009
     20          1           0       -3.844444   -2.739916    0.717417
     21          1           0       -2.296427   -2.933193   -0.108682
     22          1           0       -2.337970   -2.636384    1.637234
     23          1           0       -4.826989   -0.009117    1.739724
     24          1           0       -3.367943    0.151399    2.728279
     25          1           0       -3.808219    1.430428    1.587063
     26          1           0       -4.562834   -0.481993   -1.339980
     27          1           0       -3.530765    0.943023   -1.512381
     28          1           0       -2.986697   -0.631286   -2.117219
     29          1           0       -0.010547    1.551070    2.181737
     30          1           0        1.697951    1.419274    2.612295
     31          1           0        1.202248    2.449369    1.258895
     32          1           0        3.784384    1.136846    1.581433
     33          1           0        4.587530    0.226365    0.317760
     34          1           0        3.008293   -0.999797    2.665739
     35          1           0        3.684974   -1.933753    1.320518
     36          1           0        4.753438   -1.047271    2.414454
     37          6           0       -0.130455    1.198580   -1.287139
     38          6           0       -0.439619    2.604162   -0.848940
     39          6           0        0.171109    3.695442   -1.314083
     40          1           0       -0.932218    0.865346   -1.959806
     41          1           0        0.784455    1.192169   -1.890755
     42          1           0       -1.250321    2.709847   -0.130453
     43          1           0       -0.121305    4.691290   -0.994188
     44          1           0        0.983223    3.634612   -2.035380
 ---------------------------------------------------------------------
 Rotational constants (GHZ):      0.4864031      0.2615901      0.2377584
 Standard basis: 6-311G(d) (5D, 7F)
 There are   428 symmetry adapted cartesian basis functions of A   symmetry.
 There are   410 symmetry adapted basis functions of A   symmetry.
   410 basis functions,   720 primitive gaussians,   428 cartesian basis functions
    74 alpha electrons       74 beta electrons
       nuclear repulsion energy      1625.0855448918 Hartrees.
 NAtoms=   44 NActive=   44 NUniq=   44 SFac= 1.00D+00 NAtFMM=   60 NAOKFM=F Big=F
 Integral buffers will be    131072 words long.
 Raffenetti 2 integral format.
 Two-electron integral symmetry is turned on.
 ------------------------------------------------------------------------------
 Polarizable Continuum Model (PCM)
 =================================
 Model                : PCM (using non-symmetric T matrix).
 Atomic radii         : UFF (Universal Force Field).
 Polarization charges : Total charges.
 Charge compensation  : None.
 Solution method      : On-the-fly selection.
 Cavity type          : Scaled VdW (van der Waals Surface) (Alpha=1.100).
 Cavity algorithm     : GePol (No added spheres)
                        Default sphere list used, NSphG=   44.
                        Lebedev-Laikov grids with approx.  5.0 points / Ang**2.
                        Smoothing algorithm: Karplus/York (Gamma=1.0000).
                        Polarization charges: spherical gaussians, with
                                              point-specific exponents (IZeta= 3).
                        Self-potential: point-specific (ISelfS= 7).
                        Self-field    : sphere-specific E.n sum rule (ISelfD= 2).
 Solvent              : Chloroform, Eps=   4.711300 Eps(inf)=   2.090627
 ------------------------------------------------------------------------------
 One-electron integrals computed using PRISM.
 NBasis=   410 RedAO= T EigKep=  1.16D-03  NBF=   410
 NBsUse=   410 1.00D-06 EigRej= -1.00D+00 NBFU=   410
 ExpMin= 6.54D-02 ExpMax= 6.94D+04 ExpMxC= 2.33D+03 IAcc=2 IRadAn=         4 AccDes= 0.00D+00
 Harris functional with IExCor=  908 and IRadAn=       4 diagonalized for initial guess.
 HarFok:  IExCor=  908 AccDes= 0.00D+00 IRadAn=         4 IDoV= 1 UseB2=F ITyADJ=14
 ICtDFT=  3500011 ScaDFX=  1.000000  1.000000  1.000000  1.000000
 FoFCou: FMM=F IPFlag=           0 FMFlag=      100000 FMFlg1=           0
         NFxFlg=           0 DoJE=T BraDBF=F KetDBF=T FulRan=T
         wScrn=  0.000000 ICntrl=     500 IOpCl=  0 I1Cent=   200000004 NGrid=           0
         NMat0=    1 NMatS0=      1 NMatT0=    0 NMatD0=    1 NMtDS0=    0 NMtDT0=    0
 Petite list used in FoFCou.
 Requested convergence on RMS density matrix=1.00D-08 within 128 cycles.
 Requested convergence on MAX density matrix=1.00D-06.
 Requested convergence on             energy=1.00D-06.
 No special actions if energy rises.
 Inv3:  Mode=1 IEnd=    24848652.
 Iteration    1 A*A^-1 deviation from unit magnitude is 4.88D-15 for   1383.
 Iteration    1 A*A^-1 deviation from orthogonality  is 4.09D-15 for   2836   1401.
 Iteration    1 A^-1*A deviation from unit magnitude is 4.66D-15 for   2864.
 Iteration    1 A^-1*A deviation from orthogonality  is 1.82D-13 for   2047   2015.
 Error on total polarization charges =  0.01118
 SCF Done:  E(RmPW1PW91) =  -1064.38293463     A.U. after   12 cycles
            NFock= 12  Conv=0.94D-08     -V/T= 2.0036
 DoSCS=F DFT=T ScalE2(SS,OS)=  1.000000  1.000000
 Range of M.O.s used for correlation:     1   410
 NBasis=   410 NAE=    74 NBE=    74 NFC=     0 NFV=     0
 NROrb=    410 NOA=    74 NOB=    74 NVA=   336 NVB=   336
 NEqPCM:  Using equilibrium solvation (IEInf=0, Eps=   4.7113, EpsInf=   2.0906)
          Differentiating once with respect to magnetic field using GIAOs.
          Electric field/nuclear overlap derivatives assumed to be zero.
 FoFJK:  IHMeth= 1 ICntrl=    6127 DoSepK=F KAlg= 0 I1Cent=   0 FoldK=F
 IRaf=         1 NMat=   1 IRICut=       1 DoRegI=T DoRafI=F ISym2E= 0.
          There are     3 degrees of freedom in the 1st order CPHF.  IDoFFX=0 NUNeed=     3.
      3 vectors produced by pass  0 Test12= 8.29D-13 3.33D-08 XBig12= 3.56D+01 9.67D-01.
 AX will form     3 AO Fock derivatives at one time.
      3 vectors produced by pass  1 Test12= 8.29D-13 3.33D-08 XBig12= 7.84D-02 9.33D-02.
      3 vectors produced by pass  2 Test12= 8.29D-13 3.33D-08 XBig12= 6.24D-04 1.10D-02.
      3 vectors produced by pass  3 Test12= 8.29D-13 3.33D-08 XBig12= 3.54D-06 7.10D-04.
      3 vectors produced by pass  4 Test12= 8.29D-13 3.33D-08 XBig12= 1.86D-08 5.51D-05.
      3 vectors produced by pass  5 Test12= 8.29D-13 3.33D-08 XBig12= 6.05D-11 1.91D-06.
      2 vectors produced by pass  6 Test12= 8.29D-13 3.33D-08 XBig12= 1.76D-13 8.99D-08.
 InvSVY:  IOpt=1 It=  1 EMax= 1.78D-15
 Solved reduced A of dimension    20 with     3 vectors.
 Calculating GIAO nuclear magnetic shielding tensors.
 SCF GIAO Magnetic shielding tensor (ppm):
      1  C    Isotropic =   102.4925   Anisotropy =    60.9368
   XX=    92.5129   YX=   -11.0731   ZX=    -6.2899
   XY=    -4.3856   YY=   113.5350   ZY=    33.9181
   XZ=    -0.9809   YZ=    33.5736   ZZ=   101.4295
   Eigenvalues:    72.9441    91.4163   143.1170
      2  C    Isotropic =   142.4167   Anisotropy =    21.0922
   XX=   149.5313   YX=     0.2493   ZX=     8.9376
   XY=     2.8606   YY=   138.9351   ZY=     4.9845
   XZ=    12.9714   YZ=    -4.5108   ZZ=   138.7839
   Eigenvalues:   131.9005   138.8716   156.4782
      3  C    Isotropic =   108.6457   Anisotropy =    55.1727
   XX=   134.2629   YX=     2.4367   ZX=   -23.1177
   XY=     6.4763   YY=    86.2016   ZY=    -4.2409
   XZ=   -17.6915   YZ=    -4.2076   ZZ=   105.4727
   Eigenvalues:    85.3152    95.1945   145.4275
      4  C    Isotropic =   137.2245   Anisotropy =    31.8962
   XX=   137.1668   YX=   -12.0957   ZX=    -5.7331
   XY=    -6.1540   YY=   143.2832   ZY=     9.0266
   XZ=    -7.5654   YZ=    19.0269   ZZ=   131.2236
   Eigenvalues:   121.9597   131.2252   158.4887
      5  C    Isotropic =    12.8856   Anisotropy =    88.7705
   XX=   -63.1104   YX=   -35.6107   ZX=    -8.0519
   XY=   -45.5233   YY=    45.8643   ZY=   -17.6005
   XZ=   -17.4800   YZ=   -19.0314   ZZ=    55.9030
   Eigenvalues:   -78.9471    45.5381    72.0660
      6  H    Isotropic =    27.7538   Anisotropy =     2.6992
   XX=    28.1419   YX=     0.1309   ZX=     0.6896
   XY=     0.1536   YY=    28.5997   ZY=    -1.9659
   XZ=     0.8349   YZ=    -1.3262   ZZ=    26.5199
   Eigenvalues:    25.4131    28.2951    29.5533
      7  H    Isotropic =    30.0673   Anisotropy =     5.0299
   XX=    30.9780   YX=    -0.6382   ZX=     2.5261
   XY=    -0.0402   YY=    30.2020   ZY=    -1.7983
   XZ=     2.4841   YZ=    -2.3233   ZZ=    29.0220
   Eigenvalues:    26.6090    30.1724    33.4206
      8  H    Isotropic =    29.5373   Anisotropy =     4.6960
   XX=    30.8722   YX=     0.8471   ZX=    -1.2866
   XY=     1.3515   YY=    31.4847   ZY=    -1.1914
   XZ=    -1.7251   YZ=    -0.2074   ZZ=    26.2550
   Eigenvalues:    25.7837    30.1602    32.6679
      9  H    Isotropic =    29.6380   Anisotropy =     4.0474
   XX=    31.0763   YX=     0.0957   ZX=     0.7131
   XY=    -0.5959   YY=    28.6086   ZY=     3.5469
   XZ=     0.1617   YZ=     3.2206   ZZ=    29.2291
   Eigenvalues:    25.4798    31.0980    32.3363
     10  O    Isotropic =    95.9672   Anisotropy =   160.8297
   XX=   176.5256   YX=    43.5115   ZX=    49.0567
   XY=    49.2052   YY=    64.1973   ZY=  -136.0233
   XZ=    61.9864   YZ=  -154.1721   ZZ=    47.1787
   Eigenvalues:  -107.9845   192.6991   203.1870
     11  O    Isotropic =  -104.6372   Anisotropy =   562.3127
   XX=  -217.2601   YX=  -108.5794   ZX=    -9.0351
   XY=   -98.7516   YY=   -33.0777   ZY=  -293.2207
   XZ=    13.3513   YZ=  -318.6876   ZZ=   -63.5736
   Eigenvalues:  -385.3811  -198.7683   270.2380
     12  C    Isotropic =   160.4796   Anisotropy =    20.8889
   XX=   166.4808   YX=    -0.0507   ZX=     9.7675
   XY=    -3.7038   YY=   155.7320   ZY=    -5.7332
   XZ=    11.5111   YZ=     2.6916   ZZ=   159.2259
   Eigenvalues:   151.6073   155.4259   174.4055
     13  C    Isotropic =   181.4778   Anisotropy =    11.7130
   XX=   180.3877   YX=    -0.3850   ZX=     1.2521
   XY=     0.0811   YY=   184.1238   ZY=    -6.8477
   XZ=     2.1961   YZ=    -6.7460   ZZ=   179.9220
   Eigenvalues:   174.6127   180.5343   189.2865
     14  C    Isotropic =   176.2686   Anisotropy =    13.8540
   XX=   170.2856   YX=    -0.6079   ZX=     3.0873
   XY=    -4.1286   YY=   183.1739   ZY=     4.6550
   XZ=     0.7664   YZ=     4.7660   ZZ=   175.3463
   Eigenvalues:   168.5366   174.7647   185.5047
     15  O    Isotropic =   246.6241   Anisotropy =    20.6296
   XX=   240.6395   YX=    -3.3515   ZX=     4.8129
   XY=    12.2999   YY=   243.4042   ZY=   -11.6524
   XZ=     9.7472   YZ=    -2.5547   ZZ=   255.8285
   Eigenvalues:   232.8868   246.6083   260.3771
     16  Si   Isotropic =   332.4302   Anisotropy =    42.1870
   XX=   358.3447   YX=    14.0695   ZX=     6.7857
   XY=     4.1910   YY=   322.7107   ZY=     9.7588
   XZ=    -8.9424   YZ=     3.8391   ZZ=   316.2350
   Eigenvalues:   311.1803   325.5553   360.5548
     17  C    Isotropic =   185.5741   Anisotropy =     9.5205
   XX=   186.9303   YX=     1.1050   ZX=     3.7549
   XY=     2.4118   YY=   180.6571   ZY=    -3.5580
   XZ=     2.8719   YZ=    -3.7736   ZZ=   189.1349
   Eigenvalues:   178.3210   186.4802   191.9211
     18  C    Isotropic =   184.9134   Anisotropy =    12.1262
   XX=   185.5968   YX=     1.8274   ZX=     0.2686
   XY=     0.0350   YY=   192.2925   ZY=    -3.3334
   XZ=     0.7114   YZ=    -2.9452   ZZ=   176.8508
   Eigenvalues:   176.1905   185.5521   192.9975
     19  C    Isotropic =   186.8315   Anisotropy =    12.3596
   XX=   189.5659   YX=     0.2310   ZX=    -4.4403
   XY=     0.5821   YY=   184.1550   ZY=     7.1948
   XZ=    -4.4700   YZ=     7.7574   ZZ=   186.7736
   Eigenvalues:   177.0276   188.3957   195.0712
     20  H    Isotropic =    32.2091   Anisotropy =    10.3468
   XX=    36.2533   YX=     4.4587   ZX=    -0.8525
   XY=     4.2074   YY=    32.2411   ZY=    -0.5439
   XZ=    -0.7906   YZ=    -0.4685   ZZ=    28.1328
   Eigenvalues:    28.0478    29.4725    39.1070
     21  H    Isotropic =    31.8632   Anisotropy =     6.8594
   XX=    31.1612   YX=    -0.3929   ZX=    -2.9916
   XY=    -1.1083   YY=    33.4447   ZY=     3.2308
   XZ=    -3.0218   YZ=     2.4815   ZZ=    30.9836
   Eigenvalues:    27.5864    31.5670    36.4361
     22  H    Isotropic =    31.9272   Anisotropy =     7.7987
   XX=    30.3249   YX=    -0.1659   ZX=     2.1803
   XY=    -0.6955   YY=    31.2830   ZY=    -3.8792
   XZ=     2.1064   YZ=    -3.1280   ZZ=    34.1736
   Eigenvalues:    28.4356    30.2196    37.1263
     23  H    Isotropic =    32.3249   Anisotropy =    10.2821
   XX=    38.4496   YX=     1.6118   ZX=    -2.2459
   XY=     1.8898   YY=    29.1826   ZY=     0.3174
   XZ=    -1.9671   YZ=     0.4492   ZZ=    29.3425
   Eigenvalues:    28.1564    29.6387    39.1797
     24  H    Isotropic =    31.8468   Anisotropy =     8.2757
   XX=    30.2189   YX=    -0.7641   ZX=     0.6083
   XY=    -0.3151   YY=    28.0625   ZY=     0.0994
   XZ=     1.0974   YZ=    -0.3122   ZZ=    37.2589
   Eigenvalues:    27.9341    30.2424    37.3639
     25  H    Isotropic =    31.8361   Anisotropy =     8.2867
   XX=    29.7589   YX=    -1.6324   ZX=    -1.5642
   XY=    -1.1973   YY=    36.9868   ZY=     0.3054
   XZ=    -1.3464   YZ=     1.0703   ZZ=    28.7626
   Eigenvalues:    27.7144    30.4333    37.3606
     26  H    Isotropic =    32.1544   Anisotropy =    10.5093
   XX=    38.0004   YX=     2.3389   ZX=     2.4537
   XY=     2.5013   YY=    28.7213   ZY=     0.2338
   XZ=     2.1868   YZ=     0.2380   ZZ=    29.7415
   Eigenvalues:    28.0406    29.2620    39.1606
     27  H    Isotropic =    31.8699   Anisotropy =     7.4287
   XX=    30.4310   YX=    -0.6560   ZX=     1.2790
   XY=    -0.5011   YY=    35.5231   ZY=    -2.5654
   XZ=     1.3755   YZ=    -3.0568   ZZ=    29.6555
   Eigenvalues:    28.0656    30.7216    36.8223
     28  H    Isotropic =    31.8693   Anisotropy =     6.8827
   XX=    31.7682   YX=    -0.9390   ZX=    -0.8974
   XY=    -1.0568   YY=    29.0463   ZY=     2.4813
   XZ=    -1.7382   YZ=     3.0622   ZZ=    34.7934
   Eigenvalues:    27.8752    31.2750    36.4578
     29  H    Isotropic =    30.4995   Anisotropy =     6.7712
   XX=    33.7908   YX=     0.2559   ZX=    -1.3241
   XY=    -0.3840   YY=    27.2183   ZY=     3.5485
   XZ=    -2.4052   YZ=     3.4945   ZZ=    30.4894
   Eigenvalues:    24.8663    31.6186    35.0136
     30  H    Isotropic =    31.4548   Anisotropy =     9.7187
   XX=    31.1666   YX=    -1.2535   ZX=     4.0847
   XY=    -1.1490   YY=    28.1939   ZY=     2.6694
   XZ=     4.2832   YZ=     2.4330   ZZ=    35.0039
   Eigenvalues:    25.8427    30.5877    37.9340
     31  H    Isotropic =    31.2106   Anisotropy =     8.2528
   XX=    27.5266   YX=     0.5959   ZX=     2.0088
   XY=     0.7469   YY=    36.3381   ZY=    -1.6992
   XZ=     1.8844   YZ=    -1.5005   ZZ=    29.7670
   Eigenvalues:    26.2078    30.7114    36.7124
     32  H    Isotropic =    30.3819   Anisotropy =     7.0068
   XX=    30.6829   YX=     1.1324   ZX=     2.3367
   XY=     1.3693   YY=    32.6173   ZY=     2.8326
   XZ=     2.5493   YZ=     2.7367   ZZ=    27.8454
   Eigenvalues:    25.8822    30.2103    35.0530
     33  H    Isotropic =    30.1306   Anisotropy =     9.4599
   XX=    35.0056   YX=     1.1374   ZX=    -3.0766
   XY=     1.3473   YY=    26.1180   ZY=    -2.3636
   XZ=    -2.1574   YZ=    -2.4838   ZZ=    29.2680
   Eigenvalues:    24.7998    29.1547    36.4372
     34  H    Isotropic =    31.2470   Anisotropy =     6.7426
   XX=    32.1305   YX=    -1.4402   ZX=    -1.9042
   XY=    -0.8669   YY=    27.7859   ZY=    -3.2767
   XZ=    -2.1005   YZ=    -2.9527   ZZ=    33.8245
   Eigenvalues:    25.9029    32.0960    35.7421
     35  H    Isotropic =    31.1613   Anisotropy =     7.4514
   XX=    28.4030   YX=    -1.8381   ZX=     2.1221
   XY=    -1.7584   YY=    35.6346   ZY=     1.3189
   XZ=     1.8508   YZ=     0.9737   ZZ=    29.4465
   Eigenvalues:    26.3829    30.9722    36.1289
     36  H    Isotropic =    31.2249   Anisotropy =    12.1074
   XX=    35.1526   YX=    -1.6295   ZX=     5.0944
   XY=    -2.0477   YY=    28.0969   ZY=    -2.4933
   XZ=     5.4803   YZ=    -2.2098   ZZ=    30.4253
   Eigenvalues:    26.2257    28.1526    39.2965
     37  C    Isotropic =   142.9007   Anisotropy =    31.7813
   XX=   126.8668   YX=    -5.5097   ZX=     0.6946
   XY=    -4.7707   YY=   161.9551   ZY=    -7.2666
   XZ=     1.3880   YZ=    -4.1785   ZZ=   139.8802
   Eigenvalues:   126.1256   138.4883   164.0882
     38  C    Isotropic =    43.6366   Anisotropy =   184.6757
   XX=    46.3052   YX=    34.6793   ZX=   107.7097
   XY=    37.7376   YY=    13.7066   ZY=   -47.3946
   XZ=   105.5533   YZ=   -45.4915   ZZ=    70.8980
   Eigenvalues:   -83.4427    47.5988   166.7537
     39  C    Isotropic =    68.5146   Anisotropy =   138.3845
   XX=    73.9893   YX=    36.5976   ZX=    78.7303
   XY=    42.1065   YY=    44.5050   ZY=   -46.0909
   XZ=    79.0268   YZ=   -53.6884   ZZ=    87.0496
   Eigenvalues:   -43.5753    88.3483   160.7709
     40  H    Isotropic =    29.5911   Anisotropy =     5.2015
   XX=    30.1270   YX=     2.3089   ZX=     2.1334
   XY=     1.5941   YY=    28.9902   ZY=    -1.0957
   XZ=     3.4063   YZ=     0.3587   ZZ=    29.6559
   Eigenvalues:    26.1473    29.5672    33.0587
     41  H    Isotropic =    29.6361   Anisotropy =     5.1009
   XX=    29.2065   YX=     0.5165   ZX=    -1.6658
   XY=    -0.9208   YY=    29.4632   ZY=    -1.8592
   XZ=    -1.5809   YZ=    -3.7959   ZZ=    30.2386
   Eigenvalues:    26.4236    29.4480    33.0367
     42  H    Isotropic =    25.4994   Anisotropy =     7.5201
   XX=    24.1906   YX=     0.3420   ZX=     1.2262
   XY=     1.2799   YY=    29.9204   ZY=    -2.3652
   XZ=     1.5565   YZ=    -1.9001   ZZ=    22.3873
   Eigenvalues:    21.0529    24.9326    30.5128
     43  H    Isotropic =    26.8905   Anisotropy =     7.0049
   XX=    25.2730   YX=     2.2541   ZX=     0.4091
   XY=     0.6322   YY=    30.4688   ZY=    -1.2883
   XZ=     0.6238   YZ=    -3.4251   ZZ=    24.9296
   Eigenvalues:    23.4692    25.6418    31.5604
     44  H    Isotropic =    26.8091   Anisotropy =     7.1769
   XX=    25.5538   YX=     1.0345   ZX=     0.2226
   XY=     3.4001   YY=    29.0810   ZY=    -4.2406
   XZ=     0.4176   YZ=    -2.2638   ZZ=    25.7926
   Eigenvalues:    22.8966    25.9371    31.5938
 End of Minotr F.D. properties file   721 does not exist.
 End of Minotr F.D. properties file   722 does not exist.
 End of Minotr F.D. properties file   788 does not exist.

 **********************************************************************

            Population analysis using the SCF density.

 **********************************************************************

 Orbital symmetries:
       Occupied  (A) (A) (A) (A) (A) (A) (A) (A) (A) (A) (A) (A)
                 (A) (A) (A) (A) (A) (A) (A) (A) (A) (A) (A) (A)
                 (A) (A) (A) (A) (A) (A) (A) (A) (A) (A) (A) (A)
                 (A) (A) (A) (A) (A) (A) (A) (A) (A) (A) (A) (A)
                 (A) (A) (A) (A) (A) (A) (A) (A) (A) (A) (A) (A)
                 (A) (A) (A) (A) (A) (A) (A) (A) (A) (A) (A) (A)
                 (A) (A)
       Virtual   (A) (A) (A) (A) (A) (A) (A) (A) (A) (A) (A) (A)
                 (A) (A) (A) (A) (A) (A) (A) (A) (A) (A) (A) (A)
                 (A) (A) (A) (A) (A) (A) (A) (A) (A) (A) (A) (A)
                 (A) (A) (A) (A) (A) (A) (A) (A) (A) (A) (A) (A)
                 (A) (A) (A) (A) (A) (A) (A) (A) (A) (A) (A) (A)
                 (A) (A) (A) (A) (A) (A) (A) (A) (A) (A) (A) (A)
                 (A) (A) (A) (A) (A) (A) (A) (A) (A) (A) (A) (A)
                 (A) (A) (A) (A) (A) (A) (A) (A) (A) (A) (A) (A)
                 (A) (A) (A) (A) (A) (A) (A) (A) (A) (A) (A) (A)
                 (A) (A) (A) (A) (A) (A) (A) (A) (A) (A) (A) (A)
                 (A) (A) (A) (A) (A) (A) (A) (A) (A) (A) (A) (A)
                 (A) (A) (A) (A) (A) (A) (A) (A) (A) (A) (A) (A)
                 (A) (A) (A) (A) (A) (A) (A) (A) (A) (A) (A) (A)
                 (A) (A) (A) (A) (A) (A) (A) (A) (A) (A) (A) (A)
                 (A) (A) (A) (A) (A) (A) (A) (A) (A) (A) (A) (A)
                 (A) (A) (A) (A) (A) (A) (A) (A) (A) (A) (A) (A)
                 (A) (A) (A) (A) (A) (A) (A) (A) (A) (A) (A) (A)
                 (A) (A) (A) (A) (A) (A) (A) (A) (A) (A) (A) (A)
                 (A) (A) (A) (A) (A) (A) (A) (A) (A) (A) (A) (A)
                 (A) (A) (A) (A) (A) (A) (A) (A) (A) (A) (A) (A)
                 (A) (A) (A) (A) (A) (A) (A) (A) (A) (A) (A) (A)
                 (A) (A) (A) (A) (A) (A) (A) (A) (A) (A) (A) (A)
                 (A) (A) (A) (A) (A) (A) (A) (A) (A) (A) (A) (A)
                 (A) (A) (A) (A) (A) (A) (A) (A) (A) (A) (A) (A)
                 (A) (A) (A) (A) (A) (A) (A) (A) (A) (A) (A) (A)
                 (A) (A) (A) (A) (A) (A) (A) (A) (A) (A) (A) (A)
                 (A) (A) (A) (A) (A) (A) (A) (A) (A) (A) (A) (A)
                 (A) (A) (A) (A) (A) (A) (A) (A) (A) (A) (A) (A)
 The electronic state is 1-A.
 Alpha  occ. eigenvalues --  -66.27504 -19.25944 -19.20816 -19.19628 -10.37059
 Alpha  occ. eigenvalues --  -10.31790 -10.30515 -10.25290 -10.25130 -10.24379
 Alpha  occ. eigenvalues --  -10.24226 -10.23794 -10.22745 -10.22269 -10.22210
 Alpha  occ. eigenvalues --  -10.21080 -10.20876 -10.20743  -5.33239  -3.67128
 Alpha  occ. eigenvalues --   -3.66831  -3.66818  -1.13201  -1.04830  -1.04124
 Alpha  occ. eigenvalues --   -0.85911  -0.83085  -0.80782  -0.77557  -0.73989
 Alpha  occ. eigenvalues --   -0.72920  -0.71958  -0.70374  -0.70229  -0.66973
 Alpha  occ. eigenvalues --   -0.62792  -0.62528  -0.58708  -0.55818  -0.53331
 Alpha  occ. eigenvalues --   -0.52488  -0.50969  -0.49240  -0.48307  -0.47147
 Alpha  occ. eigenvalues --   -0.46302  -0.45349  -0.44741  -0.44233  -0.43754
 Alpha  occ. eigenvalues --   -0.42779  -0.42519  -0.42385  -0.41737  -0.41170
 Alpha  occ. eigenvalues --   -0.40716  -0.40435  -0.40189  -0.39755  -0.38912
 Alpha  occ. eigenvalues --   -0.37906  -0.37761  -0.37452  -0.36518  -0.36279
 Alpha  occ. eigenvalues --   -0.35604  -0.34263  -0.33445  -0.32190  -0.31126
 Alpha  occ. eigenvalues --   -0.30423  -0.29537  -0.28229  -0.26887
 Alpha virt. eigenvalues --    0.00492   0.00959   0.03772   0.05600   0.05790
 Alpha virt. eigenvalues --    0.06270   0.07472   0.08104   0.08542   0.09070
 Alpha virt. eigenvalues --    0.09461   0.09806   0.10379   0.10761   0.11376
 Alpha virt. eigenvalues --    0.12128   0.12817   0.13394   0.13408   0.13881
 Alpha virt. eigenvalues --    0.14321   0.14560   0.14642   0.14930   0.15567
 Alpha virt. eigenvalues --    0.15963   0.16593   0.16855   0.17085   0.17882
 Alpha virt. eigenvalues --    0.18615   0.18773   0.19509   0.20007   0.20859
 Alpha virt. eigenvalues --    0.22075   0.22860   0.23628   0.24145   0.24546
 Alpha virt. eigenvalues --    0.24654   0.25987   0.26968   0.27300   0.28345
 Alpha virt. eigenvalues --    0.29348   0.29932   0.30938   0.32096   0.32825
 Alpha virt. eigenvalues --    0.33161   0.33690   0.33746   0.34670   0.35721
 Alpha virt. eigenvalues --    0.37281   0.38034   0.38605   0.39767   0.40873
 Alpha virt. eigenvalues --    0.41637   0.42363   0.43357   0.43916   0.44361
 Alpha virt. eigenvalues --    0.45397   0.45560   0.46745   0.47637   0.48507
 Alpha virt. eigenvalues --    0.49692   0.50700   0.51092   0.51511   0.52251
 Alpha virt. eigenvalues --    0.52608   0.54246   0.54464   0.55445   0.56416
 Alpha virt. eigenvalues --    0.56834   0.57653   0.57818   0.58550   0.58852
 Alpha virt. eigenvalues --    0.59408   0.59574   0.60222   0.60369   0.61104
 Alpha virt. eigenvalues --    0.61549   0.61966   0.62118   0.62803   0.63497
 Alpha virt. eigenvalues --    0.63752   0.63948   0.64540   0.65224   0.65704
 Alpha virt. eigenvalues --    0.65860   0.66785   0.67302   0.67711   0.68042
 Alpha virt. eigenvalues --    0.68941   0.69148   0.69684   0.70487   0.71179
 Alpha virt. eigenvalues --    0.71594   0.72885   0.73283   0.74492   0.74760
 Alpha virt. eigenvalues --    0.75390   0.77273   0.78375   0.78609   0.81141
 Alpha virt. eigenvalues --    0.81939   0.83408   0.86485   0.86972   0.88039
 Alpha virt. eigenvalues --    0.89816   0.90915   0.91731   0.92759   0.94180
 Alpha virt. eigenvalues --    0.94851   0.97027   0.97750   0.98799   1.00458
 Alpha virt. eigenvalues --    1.02307   1.02984   1.05514   1.07927   1.11329
 Alpha virt. eigenvalues --    1.12261   1.13701   1.16686   1.17966   1.19489
 Alpha virt. eigenvalues --    1.20237   1.22344   1.24843   1.27068   1.28111
 Alpha virt. eigenvalues --    1.29037   1.30360   1.31585   1.31756   1.32348
 Alpha virt. eigenvalues --    1.34850   1.37266   1.39018   1.40500   1.41080
 Alpha virt. eigenvalues --    1.42476   1.43889   1.44661   1.47719   1.48923
 Alpha virt. eigenvalues --    1.50721   1.50814   1.51627   1.53200   1.53815
 Alpha virt. eigenvalues --    1.54621   1.55634   1.56030   1.56112   1.57962
 Alpha virt. eigenvalues --    1.58456   1.59387   1.59604   1.60338   1.60600
 Alpha virt. eigenvalues --    1.61192   1.61837   1.62225   1.63941   1.64376
 Alpha virt. eigenvalues --    1.64728   1.65479   1.66429   1.67323   1.68160
 Alpha virt. eigenvalues --    1.69648   1.71340   1.73575   1.74204   1.74511
 Alpha virt. eigenvalues --    1.75660   1.77171   1.78968   1.80111   1.80710
 Alpha virt. eigenvalues --    1.81506   1.82503   1.83507   1.86836   1.87878
 Alpha virt. eigenvalues --    1.89606   1.92178   1.93029   1.95563   1.96269
 Alpha virt. eigenvalues --    1.99410   2.04102   2.07146   2.09028   2.10822
 Alpha virt. eigenvalues --    2.14324   2.16834   2.20838   2.22417   2.27064
 Alpha virt. eigenvalues --    2.28504   2.30883   2.34732   2.35368   2.39960
 Alpha virt. eigenvalues --    2.41806   2.41947   2.42316   2.43048   2.43212
 Alpha virt. eigenvalues --    2.43979   2.45119   2.45814   2.47158   2.47375
 Alpha virt. eigenvalues --    2.47551   2.48142   2.49079   2.51090   2.52239
 Alpha virt. eigenvalues --    2.53317   2.54069   2.55055   2.57926   2.59209
 Alpha virt. eigenvalues --    2.62063   2.63571   2.67484   2.73049   2.79666
 Alpha virt. eigenvalues --    2.83303   2.86766   2.88419   2.90014   2.91766
 Alpha virt. eigenvalues --    2.92099   2.92323   2.93511   2.96141   2.96863
 Alpha virt. eigenvalues --    2.98374   3.01817   3.02952   3.04477   3.06328
 Alpha virt. eigenvalues --    3.08859   3.10269   3.11965   3.12718   3.15292
 Alpha virt. eigenvalues --    3.16131   3.16579   3.18227   3.18707   3.21298
 Alpha virt. eigenvalues --    3.22131   3.23010   3.23586   3.24330   3.25110
 Alpha virt. eigenvalues --    3.25380   3.26661   3.28074   3.30446   3.32893
 Alpha virt. eigenvalues --    3.34589   3.35067   3.37475   3.39404   3.40432
 Alpha virt. eigenvalues --    3.41794   3.50779   3.57452   3.60896   3.65125
 Alpha virt. eigenvalues --    3.78810   3.88338   3.88740   3.98310   4.04471
 Alpha virt. eigenvalues --    4.08315   4.14108   4.18923   4.22377   4.26224
 Alpha virt. eigenvalues --    4.93904   5.00163   5.01775   5.10592   5.14823
 Alpha virt. eigenvalues --    5.23176   5.52480   5.56098   5.76210   5.85256
 Alpha virt. eigenvalues --   11.52775  11.53377  11.56395  23.41116  23.48288
 Alpha virt. eigenvalues --   23.53960  23.54655  23.57042  23.59984  23.72481
 Alpha virt. eigenvalues --   23.75386  23.78227  23.78730  23.82463  23.87944
 Alpha virt. eigenvalues --   23.88636  24.28839  49.98496  50.05907  50.13264
 Alpha virt. eigenvalues --  141.26963
          Condensed to atoms (all electrons):
               1          2          3          4          5          6
     1  C    5.205930   0.246120  -0.051171  -0.005000  -0.047604   0.396007
     2  C    0.246120   5.602565   0.261631  -0.086940  -0.014417  -0.040644
     3  C   -0.051171   0.261631   5.190929   0.253697  -0.017107  -0.018846
     4  C   -0.005000  -0.086940   0.253697   5.886452   0.234576   0.003113
     5  C   -0.047604  -0.014417  -0.017107   0.234576   4.373442  -0.001373
     6  H    0.396007  -0.040644  -0.018846   0.003113  -0.001373   0.474284
     7  H   -0.041150   0.404092  -0.062688  -0.004034  -0.000081   0.006334
     8  H    0.002066  -0.008867  -0.033487   0.368925  -0.022139  -0.000132
     9  H   -0.000981   0.008038  -0.028369   0.356502  -0.023647   0.000271
    10  O    0.213347  -0.032718   0.005994  -0.111369   0.351453  -0.031364
    11  O    0.002488  -0.000433   0.004082  -0.098146   0.672598  -0.000083
    12  C    0.339796  -0.058637   0.010711  -0.001952   0.002121  -0.051950
    13  C   -0.071663  -0.008254  -0.001002   0.000193   0.000067   0.007845
    14  C   -0.060048   0.287947  -0.052655   0.006787   0.000306  -0.000375
    15  O    0.003759  -0.057239   0.217208  -0.020746   0.002003  -0.000075
    16  Si   0.000343   0.001683  -0.047220  -0.006278   0.001006  -0.000140
    17  C    0.000008  -0.000173   0.000873  -0.001266   0.000039   0.000001
    18  C   -0.000007  -0.000087   0.001066  -0.000433   0.000049   0.000001
    19  C   -0.000001   0.000060   0.002187  -0.000094   0.000001   0.000000
    20  H    0.000000   0.000004  -0.000067   0.000177   0.000002   0.000000
    21  H   -0.000004   0.000016   0.000207   0.000992   0.000038   0.000000
    22  H   -0.000009   0.000147   0.000509  -0.000126  -0.000035   0.000000
    23  H    0.000000   0.000000  -0.000066  -0.000003   0.000000   0.000000
    24  H   -0.000002   0.000080  -0.000146  -0.000046   0.000000   0.000000
    25  H    0.000000  -0.000005  -0.000081  -0.000020   0.000000   0.000000
    26  H    0.000000   0.000004  -0.000080   0.000046   0.000001   0.000000
    27  H    0.000004  -0.000080   0.000171   0.000083   0.000005   0.000000
    28  H    0.000006  -0.000060   0.000470   0.000744  -0.000031  -0.000001
    29  H    0.006688  -0.039067  -0.007941   0.000503  -0.000098  -0.000219
    30  H   -0.007884  -0.033276   0.006534  -0.000366  -0.000003  -0.000317
    31  H   -0.003673  -0.041949  -0.006549  -0.000056  -0.000011   0.005443
    32  H   -0.037374  -0.006857  -0.000372   0.000115  -0.000062  -0.000515
    33  H   -0.048914   0.009127  -0.000109   0.000276  -0.000186  -0.006703
    34  H   -0.008175   0.004097   0.000285   0.000022  -0.000002  -0.000311
    35  H   -0.007499  -0.000569  -0.000488   0.000816   0.000098   0.000438
    36  H    0.007584  -0.000020   0.000008  -0.000017   0.000013  -0.000179
    37  C    0.003083  -0.086862   0.299679  -0.110110   0.000811   0.006544
    38  C   -0.001393  -0.004771  -0.050086   0.008133  -0.000384   0.000063
    39  C   -0.000437   0.001358  -0.000256  -0.000019  -0.000028   0.001740
    40  H   -0.000567   0.008786  -0.047183  -0.005340  -0.000233   0.000487
    41  H    0.000038  -0.005167  -0.021190  -0.006901   0.003483  -0.003233
    42  H    0.000084  -0.000603  -0.003156  -0.000093  -0.000015  -0.000031
    43  H    0.000011  -0.000020  -0.000269   0.000013   0.000000   0.000009
    44  H    0.000127  -0.000060   0.000104  -0.000032  -0.000013   0.000503
               7          8          9         10         11         12
     1  C   -0.041150   0.002066  -0.000981   0.213347   0.002488   0.339796
     2  C    0.404092  -0.008867   0.008038  -0.032718  -0.000433  -0.058637
     3  C   -0.062688  -0.033487  -0.028369   0.005994   0.004082   0.010711
     4  C   -0.004034   0.368925   0.356502  -0.111369  -0.098146  -0.001952
     5  C   -0.000081  -0.022139  -0.023647   0.351453   0.672598   0.002121
     6  H    0.006334  -0.000132   0.000271  -0.031364  -0.000083  -0.051950
     7  H    0.476532   0.003135   0.000428   0.001060  -0.000184  -0.013606
     8  H    0.003135   0.403200  -0.013935   0.001014   0.001056  -0.000039
     9  H    0.000428  -0.013935   0.419588   0.004796   0.012456   0.000019
    10  O    0.001060   0.001014   0.004796   8.044636  -0.077195  -0.060890
    11  O   -0.000184   0.001056   0.012456  -0.077195   7.867776  -0.000147
    12  C   -0.013606  -0.000039   0.000019  -0.060890  -0.000147   5.319515
    13  C    0.005705   0.000144   0.000016   0.001192  -0.000022   0.287660
    14  C   -0.036791   0.000022  -0.000097   0.003479   0.000004  -0.005237
    15  O    0.004062  -0.001863  -0.001981  -0.000018  -0.000020  -0.000062
    16  Si   0.000835  -0.004710  -0.001482  -0.000364  -0.000899   0.000018
    17  C    0.000046   0.000217   0.002326   0.000000   0.000004   0.000000
    18  C    0.000068  -0.001589  -0.000058   0.000000   0.000006   0.000000
    19  C   -0.000027  -0.000096  -0.000017   0.000000   0.000000   0.000000
    20  H   -0.000002   0.000287   0.000015   0.000000   0.000000   0.000000
    21  H   -0.000043  -0.000171   0.000513   0.000001   0.000001   0.000000
    22  H    0.000103   0.000196   0.000055   0.000001   0.000001   0.000000
    23  H   -0.000001   0.000001  -0.000003   0.000000   0.000000   0.000000
    24  H   -0.000016  -0.000024  -0.000007   0.000000   0.000000   0.000000
    25  H    0.000003  -0.000006  -0.000009   0.000000   0.000000   0.000000
    26  H    0.000000   0.000003   0.000002   0.000000   0.000000   0.000000
    27  H    0.000009   0.000018  -0.000188   0.000000   0.000000   0.000000
    28  H    0.000001  -0.000057   0.002444   0.000000  -0.000027   0.000000
    29  H   -0.002786   0.000065  -0.000039  -0.000117   0.000000   0.000015
    30  H   -0.008201  -0.000025   0.000015  -0.000019   0.000000   0.002327
    31  H    0.007008  -0.000031   0.000031   0.000027   0.000000  -0.001856
    32  H    0.000295  -0.000004  -0.000003   0.003645   0.000007   0.386669
    33  H   -0.000225   0.000003  -0.000012   0.003387  -0.000031   0.404626
    34  H   -0.001082  -0.000037   0.000001   0.000058   0.000001  -0.034991
    35  H    0.000537   0.000009  -0.000006   0.009567  -0.000151  -0.044027
    36  H    0.000190  -0.000002   0.000000  -0.000175   0.000000  -0.034747
    37  C    0.009637   0.007376  -0.005331  -0.004520   0.000095  -0.000786
    38  C   -0.000587  -0.000227   0.000092   0.000294  -0.000002   0.000042
    39  C   -0.000056   0.000003  -0.000005  -0.000010   0.000000   0.000010
    40  H   -0.000178  -0.000128   0.003496  -0.000175   0.000002   0.000008
    41  H   -0.000431   0.000158  -0.000413   0.003101  -0.000255   0.000757
    42  H   -0.000083   0.000022  -0.000004   0.000000   0.000000   0.000010
    43  H   -0.000002  -0.000001   0.000000   0.000000   0.000000  -0.000001
    44  H    0.000004   0.000001   0.000004  -0.000023   0.000000  -0.000002
              13         14         15         16         17         18
     1  C   -0.071663  -0.060048   0.003759   0.000343   0.000008  -0.000007
     2  C   -0.008254   0.287947  -0.057239   0.001683  -0.000173  -0.000087
     3  C   -0.001002  -0.052655   0.217208  -0.047220   0.000873   0.001066
     4  C    0.000193   0.006787  -0.020746  -0.006278  -0.001266  -0.000433
     5  C    0.000067   0.000306   0.002003   0.001006   0.000039   0.000049
     6  H    0.007845  -0.000375  -0.000075  -0.000140   0.000001   0.000001
     7  H    0.005705  -0.036791   0.004062   0.000835   0.000046   0.000068
     8  H    0.000144   0.000022  -0.001863  -0.004710   0.000217  -0.001589
     9  H    0.000016  -0.000097  -0.001981  -0.001482   0.002326  -0.000058
    10  O    0.001192   0.003479  -0.000018  -0.000364   0.000000   0.000000
    11  O   -0.000022   0.000004  -0.000020  -0.000899   0.000004   0.000006
    12  C    0.287660  -0.005237  -0.000062   0.000018   0.000000   0.000000
    13  C    5.377204  -0.000883  -0.000004  -0.000019   0.000000   0.000000
    14  C   -0.000883   5.412439  -0.008203  -0.000409  -0.000018   0.000007
    15  O   -0.000004  -0.008203   8.284128   0.349767  -0.023592  -0.024976
    16  Si  -0.000019  -0.000409   0.349767  11.516436   0.309141   0.317185
    17  C    0.000000  -0.000018  -0.023592   0.309141   5.789673  -0.055249
    18  C    0.000000   0.000007  -0.024976   0.317185  -0.055249   5.768636
    19  C    0.000000  -0.000011  -0.030186   0.334950  -0.043254  -0.046664
    20  H    0.000000   0.000000   0.000937  -0.011799   0.000541   0.362367
    21  H    0.000000   0.000001  -0.001308  -0.026693  -0.001248   0.371421
    22  H    0.000000  -0.000002  -0.002231  -0.024417   0.002069   0.369990
    23  H    0.000000   0.000000   0.001198  -0.015019   0.000102   0.000754
    24  H    0.000000   0.000044  -0.001790  -0.023228   0.002092  -0.000630
    25  H    0.000000   0.000011  -0.001488  -0.025703  -0.000672   0.002143
    26  H    0.000000   0.000000   0.000823  -0.010696   0.363139   0.000235
    27  H    0.000000   0.000000  -0.002283  -0.028052   0.371205   0.002076
    28  H    0.000000  -0.000002  -0.001289  -0.027191   0.368650  -0.000997
    29  H   -0.000121   0.386364   0.011205   0.000644   0.000042  -0.000005
    30  H    0.000102   0.387138  -0.000061  -0.000023   0.000000   0.000002
    31  H    0.000302   0.384191  -0.000266  -0.000156   0.000002   0.000000
    32  H   -0.036916   0.002988   0.000000  -0.000001   0.000000   0.000000
    33  H   -0.042623  -0.000480   0.000004   0.000003   0.000000   0.000000
    34  H    0.384275   0.000387  -0.000027  -0.000019   0.000000  -0.000001
    35  H    0.385287   0.000203   0.000003   0.000000   0.000000   0.000000
    36  H    0.391277  -0.000047   0.000000   0.000000   0.000000   0.000000
    37  C    0.000020  -0.003350  -0.067943  -0.014055  -0.001959  -0.000388
    38  C   -0.000005  -0.013939   0.003053  -0.000372   0.000596   0.000029
    39  C    0.000000  -0.003554   0.000775   0.000471  -0.000014   0.000000
    40  H    0.000001  -0.000441  -0.002642  -0.002123  -0.001741  -0.000142
    41  H   -0.000026   0.000549   0.003827   0.001680  -0.000068   0.000012
    42  H    0.000000  -0.000051   0.005249   0.002466  -0.000038   0.000028
    43  H    0.000000   0.000051   0.000015   0.000016   0.000000   0.000000
    44  H    0.000000   0.000069  -0.000003  -0.000002  -0.000001   0.000000
              19         20         21         22         23         24
     1  C   -0.000001   0.000000  -0.000004  -0.000009   0.000000  -0.000002
     2  C    0.000060   0.000004   0.000016   0.000147   0.000000   0.000080
     3  C    0.002187  -0.000067   0.000207   0.000509  -0.000066  -0.000146
     4  C   -0.000094   0.000177   0.000992  -0.000126  -0.000003  -0.000046
     5  C    0.000001   0.000002   0.000038  -0.000035   0.000000   0.000000
     6  H    0.000000   0.000000   0.000000   0.000000   0.000000   0.000000
     7  H   -0.000027  -0.000002  -0.000043   0.000103  -0.000001  -0.000016
     8  H   -0.000096   0.000287  -0.000171   0.000196   0.000001  -0.000024
     9  H   -0.000017   0.000015   0.000513   0.000055  -0.000003  -0.000007
    10  O    0.000000   0.000000   0.000001   0.000001   0.000000   0.000000
    11  O    0.000000   0.000000   0.000001   0.000001   0.000000   0.000000
    12  C    0.000000   0.000000   0.000000   0.000000   0.000000   0.000000
    13  C    0.000000   0.000000   0.000000   0.000000   0.000000   0.000000
    14  C   -0.000011   0.000000   0.000001  -0.000002   0.000000   0.000044
    15  O   -0.030186   0.000937  -0.001308  -0.002231   0.001198  -0.001790
    16  Si   0.334950  -0.011799  -0.026693  -0.024417  -0.015019  -0.023228
    17  C   -0.043254   0.000541  -0.001248   0.002069   0.000102   0.002092
    18  C   -0.046664   0.362367   0.371421   0.369990   0.000754  -0.000630
    19  C    5.721487  -0.000355   0.002297  -0.000462   0.361200   0.369451
    20  H   -0.000355   0.451746  -0.022267  -0.020979   0.000708  -0.000115
    21  H    0.002297  -0.022267   0.450052  -0.019926  -0.000056  -0.000075
    22  H   -0.000462  -0.020979  -0.019926   0.450649   0.000010   0.001100
    23  H    0.361200   0.000708  -0.000056   0.000010   0.460314  -0.021398
    24  H    0.369451  -0.000115  -0.000075   0.001100  -0.021398   0.452645
    25  H    0.370211  -0.000060  -0.000092  -0.000084  -0.021508  -0.019226
    26  H   -0.000490   0.000464   0.000031  -0.000044   0.000552  -0.000064
    27  H   -0.000331  -0.000047  -0.000039  -0.000091  -0.000080  -0.000068
    28  H    0.002400   0.000007   0.000967  -0.000043  -0.000059  -0.000081
    29  H    0.000068  -0.000001  -0.000001  -0.000011   0.000005   0.000184
    30  H   -0.000002   0.000000   0.000000   0.000001   0.000000   0.000004
    31  H    0.000001   0.000000   0.000000   0.000000   0.000000  -0.000004
    32  H    0.000000   0.000000   0.000000   0.000000   0.000000   0.000000
    33  H    0.000000   0.000000   0.000000   0.000000   0.000000   0.000000
    34  H    0.000000   0.000000   0.000000   0.000000   0.000000   0.000000
    35  H    0.000000   0.000000   0.000000   0.000000   0.000000   0.000000
    36  H    0.000000   0.000000   0.000000   0.000000   0.000000   0.000000
    37  C   -0.000210   0.000009  -0.000079  -0.000044   0.000004  -0.000025
    38  C   -0.000134  -0.000001   0.000004   0.000002  -0.000003  -0.000004
    39  C   -0.000001   0.000000   0.000000   0.000000   0.000000   0.000000
    40  H   -0.000025   0.000005  -0.000042   0.000001   0.000001  -0.000001
    41  H    0.000002   0.000000   0.000006   0.000003   0.000000   0.000001
    42  H    0.000364   0.000000   0.000001   0.000001  -0.000012  -0.000033
    43  H   -0.000001   0.000000   0.000000   0.000000   0.000000   0.000000
    44  H    0.000000   0.000000   0.000000   0.000000   0.000000   0.000000
              25         26         27         28         29         30
     1  C    0.000000   0.000000   0.000004   0.000006   0.006688  -0.007884
     2  C   -0.000005   0.000004  -0.000080  -0.000060  -0.039067  -0.033276
     3  C   -0.000081  -0.000080   0.000171   0.000470  -0.007941   0.006534
     4  C   -0.000020   0.000046   0.000083   0.000744   0.000503  -0.000366
     5  C    0.000000   0.000001   0.000005  -0.000031  -0.000098  -0.000003
     6  H    0.000000   0.000000   0.000000  -0.000001  -0.000219  -0.000317
     7  H    0.000003   0.000000   0.000009   0.000001  -0.002786  -0.008201
     8  H   -0.000006   0.000003   0.000018  -0.000057   0.000065  -0.000025
     9  H   -0.000009   0.000002  -0.000188   0.002444  -0.000039   0.000015
    10  O    0.000000   0.000000   0.000000   0.000000  -0.000117  -0.000019
    11  O    0.000000   0.000000   0.000000  -0.000027   0.000000   0.000000
    12  C    0.000000   0.000000   0.000000   0.000000   0.000015   0.002327
    13  C    0.000000   0.000000   0.000000   0.000000  -0.000121   0.000102
    14  C    0.000011   0.000000   0.000000  -0.000002   0.386364   0.387138
    15  O   -0.001488   0.000823  -0.002283  -0.001289   0.011205  -0.000061
    16  Si  -0.025703  -0.010696  -0.028052  -0.027191   0.000644  -0.000023
    17  C   -0.000672   0.363139   0.371205   0.368650   0.000042   0.000000
    18  C    0.002143   0.000235   0.002076  -0.000997  -0.000005   0.000002
    19  C    0.370211  -0.000490  -0.000331   0.002400   0.000068  -0.000002
    20  H   -0.000060   0.000464  -0.000047   0.000007  -0.000001   0.000000
    21  H   -0.000092   0.000031  -0.000039   0.000967  -0.000001   0.000000
    22  H   -0.000084  -0.000044  -0.000091  -0.000043  -0.000011   0.000001
    23  H   -0.021508   0.000552  -0.000080  -0.000059   0.000005   0.000000
    24  H   -0.019226  -0.000064  -0.000068  -0.000081   0.000184   0.000004
    25  H    0.453600  -0.000087   0.001105  -0.000053   0.000051  -0.000001
    26  H   -0.000087   0.443969  -0.021194  -0.021037   0.000000   0.000000
    27  H    0.001105  -0.021194   0.448285  -0.020006   0.000002   0.000000
    28  H   -0.000053  -0.021037  -0.020006   0.448401   0.000003   0.000000
    29  H    0.000051   0.000000   0.000002   0.000003   0.434786  -0.024583
    30  H   -0.000001   0.000000   0.000000   0.000000  -0.024583   0.464177
    31  H   -0.000004   0.000000  -0.000001   0.000000  -0.024239  -0.025787
    32  H    0.000000   0.000000   0.000000   0.000000   0.000294  -0.001346
    33  H    0.000000   0.000000   0.000000   0.000000   0.000033   0.000215
    34  H    0.000000   0.000000   0.000000   0.000000  -0.000036   0.002489
    35  H    0.000000   0.000000   0.000000   0.000000   0.000023  -0.000142
    36  H    0.000000   0.000000   0.000000   0.000000  -0.000004  -0.000049
    37  C    0.000013   0.000253  -0.000078  -0.000370   0.000127  -0.000486
    38  C    0.000040  -0.000048   0.001303   0.000125   0.000354   0.000497
    39  C   -0.000007  -0.000002   0.000199  -0.000007   0.000258   0.000178
    40  H   -0.000011   0.000435  -0.001339   0.000730  -0.000110   0.000026
    41  H    0.000000  -0.000006  -0.000048  -0.000079  -0.000065  -0.000002
    42  H    0.000837   0.000004   0.000269  -0.000020   0.000189   0.000063
    43  H   -0.000003   0.000000  -0.000005   0.000000   0.000004  -0.000004
    44  H    0.000000   0.000000   0.000001   0.000001  -0.000014   0.000004
              31         32         33         34         35         36
     1  C   -0.003673  -0.037374  -0.048914  -0.008175  -0.007499   0.007584
     2  C   -0.041949  -0.006857   0.009127   0.004097  -0.000569  -0.000020
     3  C   -0.006549  -0.000372  -0.000109   0.000285  -0.000488   0.000008
     4  C   -0.000056   0.000115   0.000276   0.000022   0.000816  -0.000017
     5  C   -0.000011  -0.000062  -0.000186  -0.000002   0.000098   0.000013
     6  H    0.005443  -0.000515  -0.006703  -0.000311   0.000438  -0.000179
     7  H    0.007008   0.000295  -0.000225  -0.001082   0.000537   0.000190
     8  H   -0.000031  -0.000004   0.000003  -0.000037   0.000009  -0.000002
     9  H    0.000031  -0.000003  -0.000012   0.000001  -0.000006   0.000000
    10  O    0.000027   0.003645   0.003387   0.000058   0.009567  -0.000175
    11  O    0.000000   0.000007  -0.000031   0.000001  -0.000151   0.000000
    12  C   -0.001856   0.386669   0.404626  -0.034991  -0.044027  -0.034747
    13  C    0.000302  -0.036916  -0.042623   0.384275   0.385287   0.391277
    14  C    0.384191   0.002988  -0.000480   0.000387   0.000203  -0.000047
    15  O   -0.000266   0.000000   0.000004  -0.000027   0.000003   0.000000
    16  Si  -0.000156  -0.000001   0.000003  -0.000019   0.000000   0.000000
    17  C    0.000002   0.000000   0.000000   0.000000   0.000000   0.000000
    18  C    0.000000   0.000000   0.000000  -0.000001   0.000000   0.000000
    19  C    0.000001   0.000000   0.000000   0.000000   0.000000   0.000000
    20  H    0.000000   0.000000   0.000000   0.000000   0.000000   0.000000
    21  H    0.000000   0.000000   0.000000   0.000000   0.000000   0.000000
    22  H    0.000000   0.000000   0.000000   0.000000   0.000000   0.000000
    23  H    0.000000   0.000000   0.000000   0.000000   0.000000   0.000000
    24  H   -0.000004   0.000000   0.000000   0.000000   0.000000   0.000000
    25  H   -0.000004   0.000000   0.000000   0.000000   0.000000   0.000000
    26  H    0.000000   0.000000   0.000000   0.000000   0.000000   0.000000
    27  H   -0.000001   0.000000   0.000000   0.000000   0.000000   0.000000
    28  H    0.000000   0.000000   0.000000   0.000000   0.000000   0.000000
    29  H   -0.024239   0.000294   0.000033  -0.000036   0.000023  -0.000004
    30  H   -0.025787  -0.001346   0.000215   0.002489  -0.000142  -0.000049
    31  H    0.458130   0.000333  -0.000203  -0.000127   0.000003   0.000014
    32  H    0.000333   0.475785  -0.025990  -0.005640   0.007077  -0.003608
    33  H   -0.000203  -0.025990   0.468705   0.006205  -0.003240  -0.005821
    34  H   -0.000127  -0.005640   0.006205   0.478685  -0.027902  -0.027489
    35  H    0.000003   0.007077  -0.003240  -0.027902   0.468692  -0.025829
    36  H    0.000014  -0.003608  -0.005821  -0.027489  -0.025829   0.463796
    37  C    0.001878   0.000022  -0.000028  -0.000026   0.000015   0.000001
    38  C    0.003505  -0.000010   0.000006   0.000002  -0.000001   0.000000
    39  C    0.002110   0.000002   0.000000   0.000000   0.000000   0.000000
    40  H    0.000245   0.000000  -0.000002   0.000000   0.000000   0.000000
    41  H   -0.000552  -0.000034  -0.000015   0.000001  -0.000007   0.000001
    42  H   -0.000925   0.000000   0.000000   0.000000   0.000000   0.000000
    43  H    0.000016   0.000000   0.000000   0.000000   0.000000   0.000000
    44  H   -0.000041   0.000002  -0.000002   0.000000   0.000000   0.000000
              37         38         39         40         41         42
     1  C    0.003083  -0.001393  -0.000437  -0.000567   0.000038   0.000084
     2  C   -0.086862  -0.004771   0.001358   0.008786  -0.005167  -0.000603
     3  C    0.299679  -0.050086  -0.000256  -0.047183  -0.021190  -0.003156
     4  C   -0.110110   0.008133  -0.000019  -0.005340  -0.006901  -0.000093
     5  C    0.000811  -0.000384  -0.000028  -0.000233   0.003483  -0.000015
     6  H    0.006544   0.000063   0.001740   0.000487  -0.003233  -0.000031
     7  H    0.009637  -0.000587  -0.000056  -0.000178  -0.000431  -0.000083
     8  H    0.007376  -0.000227   0.000003  -0.000128   0.000158   0.000022
     9  H   -0.005331   0.000092  -0.000005   0.003496  -0.000413  -0.000004
    10  O   -0.004520   0.000294  -0.000010  -0.000175   0.003101   0.000000
    11  O    0.000095  -0.000002   0.000000   0.000002  -0.000255   0.000000
    12  C   -0.000786   0.000042   0.000010   0.000008   0.000757   0.000010
    13  C    0.000020  -0.000005   0.000000   0.000001  -0.000026   0.000000
    14  C   -0.003350  -0.013939  -0.003554  -0.000441   0.000549  -0.000051
    15  O   -0.067943   0.003053   0.000775  -0.002642   0.003827   0.005249
    16  Si  -0.014055  -0.000372   0.000471  -0.002123   0.001680   0.002466
    17  C   -0.001959   0.000596  -0.000014  -0.001741  -0.000068  -0.000038
    18  C   -0.000388   0.000029   0.000000  -0.000142   0.000012   0.000028
    19  C   -0.000210  -0.000134  -0.000001  -0.000025   0.000002   0.000364
    20  H    0.000009  -0.000001   0.000000   0.000005   0.000000   0.000000
    21  H   -0.000079   0.000004   0.000000  -0.000042   0.000006   0.000001
    22  H   -0.000044   0.000002   0.000000   0.000001   0.000003   0.000001
    23  H    0.000004  -0.000003   0.000000   0.000001   0.000000  -0.000012
    24  H   -0.000025  -0.000004   0.000000  -0.000001   0.000001  -0.000033
    25  H    0.000013   0.000040  -0.000007  -0.000011   0.000000   0.000837
    26  H    0.000253  -0.000048  -0.000002   0.000435  -0.000006   0.000004
    27  H   -0.000078   0.001303   0.000199  -0.001339  -0.000048   0.000269
    28  H   -0.000370   0.000125  -0.000007   0.000730  -0.000079  -0.000020
    29  H    0.000127   0.000354   0.000258  -0.000110  -0.000065   0.000189
    30  H   -0.000486   0.000497   0.000178   0.000026  -0.000002   0.000063
    31  H    0.001878   0.003505   0.002110   0.000245  -0.000552  -0.000925
    32  H    0.000022  -0.000010   0.000002   0.000000  -0.000034   0.000000
    33  H   -0.000028   0.000006   0.000000  -0.000002  -0.000015   0.000000
    34  H   -0.000026   0.000002   0.000000   0.000000   0.000001   0.000000
    35  H    0.000015  -0.000001   0.000000   0.000000  -0.000007   0.000000
    36  H    0.000001   0.000000   0.000000   0.000000   0.000001   0.000000
    37  C    5.471244   0.320828  -0.059226   0.391093   0.380678  -0.047465
    38  C    0.320828   5.063676   0.620689  -0.038957  -0.044367   0.395474
    39  C   -0.059226   0.620689   5.151128  -0.004173   0.002193  -0.038631
    40  H    0.391093  -0.038957  -0.004173   0.461028  -0.026319  -0.000392
    41  H    0.380678  -0.044367   0.002193  -0.026319   0.455168   0.004772
    42  H   -0.047465   0.395474  -0.038631  -0.000392   0.004772   0.455372
    43  H    0.006344  -0.039268   0.393856  -0.000366   0.000108  -0.007715
    44  H   -0.008990  -0.040775   0.388343   0.000286   0.004401   0.005883
              43         44
     1  C    0.000011   0.000127
     2  C   -0.000020  -0.000060
     3  C   -0.000269   0.000104
     4  C    0.000013  -0.000032
     5  C    0.000000  -0.000013
     6  H    0.000009   0.000503
     7  H   -0.000002   0.000004
     8  H   -0.000001   0.000001
     9  H    0.000000   0.000004
    10  O    0.000000  -0.000023
    11  O    0.000000   0.000000
    12  C   -0.000001  -0.000002
    13  C    0.000000   0.000000
    14  C    0.000051   0.000069
    15  O    0.000015  -0.000003
    16  Si   0.000016  -0.000002
    17  C    0.000000  -0.000001
    18  C    0.000000   0.000000
    19  C   -0.000001   0.000000
    20  H    0.000000   0.000000
    21  H    0.000000   0.000000
    22  H    0.000000   0.000000
    23  H    0.000000   0.000000
    24  H    0.000000   0.000000
    25  H   -0.000003   0.000000
    26  H    0.000000   0.000000
    27  H   -0.000005   0.000001
    28  H    0.000000   0.000001
    29  H    0.000004  -0.000014
    30  H   -0.000004   0.000004
    31  H    0.000016  -0.000041
    32  H    0.000000   0.000002
    33  H    0.000000  -0.000002
    34  H    0.000000   0.000000
    35  H    0.000000   0.000000
    36  H    0.000000   0.000000
    37  C    0.006344  -0.008990
    38  C   -0.039268  -0.040775
    39  C    0.393856   0.388343
    40  H   -0.000366   0.000286
    41  H    0.000108   0.004401
    42  H   -0.007715   0.005883
    43  H    0.455260  -0.033943
    44  H   -0.033943   0.463231
 Mulliken charges:
               1
     1  C   -0.033933
     2  C   -0.307980
     3  C    0.194237
     4  C   -0.662781
     5  C    0.485354
     6  H    0.253407
     7  H    0.252169
     8  H    0.299650
     9  H    0.265482
    10  O   -0.328099
    11  O   -0.382983
    12  C   -0.445377
    13  C   -0.679751
    14  C   -0.686394
    15  O   -0.637724
    16  Si   1.434429
    17  C   -1.081472
    18  C   -1.064850
    19  C   -1.042317
    20  H    0.238424
    21  H    0.245496
    22  H    0.243664
    23  H    0.233359
    24  H    0.241384
    25  H    0.241107
    26  H    0.243788
    27  H    0.249195
    28  H    0.246465
    29  H    0.257546
    30  H    0.238804
    31  H    0.243190
    32  H    0.241498
    33  H    0.241995
    34  H    0.229355
    35  H    0.237092
    36  H    0.235104
    37  C   -0.487423
    38  C   -0.183473
    39  C   -0.456887
    40  H    0.266000
    41  H    0.248242
    42  H    0.228181
    43  H    0.225893
    44  H    0.220934
 Sum of Mulliken charges =   0.00000
 Mulliken charges with hydrogens summed into heavy atoms:
               1
     1  C    0.219474
     2  C   -0.055811
     3  C    0.194237
     4  C   -0.097649
     5  C    0.485354
    10  O   -0.328099
    11  O   -0.382983
    12  C    0.038117
    13  C    0.021800
    14  C    0.053147
    15  O   -0.637724
    16  Si   1.434429
    17  C   -0.342023
    18  C   -0.337266
    19  C   -0.326468
    37  C    0.026819
    38  C    0.044708
    39  C   -0.010060
 Electronic spatial extent (au):  <R**2>=           5504.5998
 Charge=              0.0000 electrons
 Dipole moment (field-independent basis, Debye):
    X=             -2.3740    Y=              2.6187    Z=              3.0928  Tot=              4.6967
 Quadrupole moment (field-independent basis, Debye-Ang):
   XX=           -116.3230   YY=           -124.1724   ZZ=           -126.8569
   XY=             10.8427   XZ=              9.7961   YZ=             -9.0728
 Traceless Quadrupole moment (field-independent basis, Debye-Ang):
   XX=              6.1278   YY=             -1.7217   ZZ=             -4.4061
   XY=             10.8427   XZ=              9.7961   YZ=             -9.0728
 Octapole moment (field-independent basis, Debye-Ang**2):
  XXX=            -10.1380  YYY=             20.8294  ZZZ=             18.0858  XYY=            -11.3174
  XXY=             10.2919  XXZ=             23.7813  XZZ=             -5.2051  YZZ=             15.2414
  YYZ=             18.6130  XYZ=            -22.9474
 Hexadecapole moment (field-independent basis, Debye-Ang**3):
 XXXX=          -4144.3482 YYYY=          -1849.1830 ZZZZ=          -1366.2946 XXXY=             71.5278
 XXXZ=             50.8204 YYYX=              5.1260 YYYZ=            -30.0766 ZZZX=             19.7402
 ZZZY=            -30.4206 XXYY=          -1057.4493 XXZZ=           -981.9507 YYZZ=           -596.2642
 XXYZ=            -36.5071 YYXZ=             20.0924 ZZXY=             60.5269
 N-N= 1.625085544892D+03 E-N=-5.745258648880D+03  KE= 1.060530585480D+03
 1\1\GINC-CPU-E-609\SP\RmPW1PW91\6-311G(d)\C14H26O3Si1\KE291\06-Feb-201
 9\0\\# mPW1PW91/6-311g(d) geom=checkpoint nmr=giao scrf=(solvent=chlor
 oform)\\P_ng_2ginp004\\0,1\C,0,-0.41246155,-0.2913207786,1.3644600348\
 C,0,-1.0286162344,0.8828702796,0.5938023641\C,0,-1.9639695913,1.708177
 3551,1.5221047429\C,0,-1.054696616,2.2544218428,2.6369019598\C,0,-0.20
 41438659,1.2121332691,3.3400547776\H,0,-1.2022970583,-1.0195687764,1.5
 854471992\H,0,-0.2234637611,1.5790152927,0.3260307296\H,0,-0.357320134
 8,2.9771692641,2.1973549848\H,0,-1.6185794699,2.7801481378,3.411758332
 \O,0,0.1330236777,0.0920782345,2.6699333008\O,0,0.2264278164,1.3743304
 938,4.4630454462\C,0,0.7243694797,-1.0335120903,0.6523531814\C,0,1.919
 199424,-0.1669007452,0.2436467473\C,0,-1.6697815195,0.4049261057,-0.71
 72733929\O,0,-2.494616642,2.7684518914,0.7324602739\Si,0,-3.0946778758
 ,4.3136324656,1.0370501105\C,0,-4.360593778,4.335641749,2.4373870749\C
 ,0,-1.7005394084,5.5243549256,1.428327189\C,0,-3.9146420815,4.79254131
 38,-0.5860502857\H,0,-2.0940782871,6.5473508811,1.4563101518\H,0,-1.23
 06521688,5.3286423163,2.3972653988\H,0,-0.9196450556,5.4917062244,0.66
 09673565\H,0,-4.3237762123,5.8074830494,-0.530851085\H,0,-3.1981776183
 ,4.765595504,-1.4136438345\H,0,-4.7369929699,4.1128101567,-0.832221852
 6\H,0,-4.7865206718,5.3420777493,2.5264729686\H,0,-5.1872116087,3.6425
 728181,2.2495436798\H,0,-3.9208797592,4.0835119959,3.4081049996\H,0,-2
 .2172308538,1.2282493265,-1.1795111458\H,0,-0.9015039519,0.0741707679,
 -1.4217576965\H,0,-2.3666580636,-0.4211615768,-0.5577676367\H,0,0.3035
 254276,-1.5401139716,-0.2227455708\H,0,1.0608931153,-1.8244692408,1.33
 17406244\H,0,1.6541035864,0.5638640431,-0.5268697865\H,0,2.3219404956,
 0.3764353659,1.1036687249\H,0,2.7202994508,-0.7926408085,-0.1607410138
 \C,0,-3.1312243034,0.9139889823,2.172739318\C,0,-4.1812457953,0.366369
 7794,1.2449310416\C,0,-4.7067835905,-0.8569534279,1.3316924544\H,0,-3.
 6176416921,1.6138536308,2.8655141516\H,0,-2.7330066584,0.1067248468,2.
 7982005692\H,0,-4.5470796641,1.0532064074,0.4839761676\H,0,-5.49449379
 91,-1.1868828695,0.6607148766\H,0,-4.3725331627,-1.5729461803,2.079443
 3686\\Version=ES64L-G09RevD.01\State=1-A\HF=-1064.3829346\RMSD=9.407e-
 09\Dipole=-0.9397869,0.3028218,-1.5618888\Quadrupole=-0.462994,9.18969
 61,-8.7267021,-0.5265408,-9.2267578,3.7777482\PG=C01 [X(C14H26O3Si1)]\
 \@


 IF I HAVE SEEN FARTHER, IT IS BY STANDING ON THE
 SHOULDERS OF GIANTS. -- SIR ISAAC NEWTON
 Job cpu time:       0 days  0 hours 20 minutes 55.8 seconds.
 File lengths (MBytes):  RWF=    236 Int=      0 D2E=      0 Chk=     19 Scr=      1
 Normal termination of Gaussian 09 at Wed Feb  6 11:29:12 2019.
