 Entering Gaussian System, Link 0=/usr/local/Cluster-Apps/gaussian/g09/g09
 Initial command:
 /usr/local/Cluster-Apps/gaussian/g09/l1.exe "/home/ke291/rds/hpc-work/06Feb0927IP1/Gau-313893.inp" -scrdir="/home/ke291/rds/hpc-work/06Feb0927IP1/"
 Entering Link 1 = /usr/local/Cluster-Apps/gaussian/g09/l1.exe PID=    313899.
  
 Copyright (c) 1988,1990,1992,1993,1995,1998,2003,2009,2013,
            Gaussian, Inc.  All Rights Reserved.
  
 This is part of the Gaussian(R) 09 program.  It is based on
 the Gaussian(R) 03 system (copyright 2003, Gaussian, Inc.),
 the Gaussian(R) 98 system (copyright 1998, Gaussian, Inc.),
 the Gaussian(R) 94 system (copyright 1995, Gaussian, Inc.),
 the Gaussian 92(TM) system (copyright 1992, Gaussian, Inc.),
 the Gaussian 90(TM) system (copyright 1990, Gaussian, Inc.),
 the Gaussian 88(TM) system (copyright 1988, Gaussian, Inc.),
 the Gaussian 86(TM) system (copyright 1986, Carnegie Mellon
 University), and the Gaussian 82(TM) system (copyright 1983,
 Carnegie Mellon University). Gaussian is a federally registered
 trademark of Gaussian, Inc.
  
 This software contains proprietary and confidential information,
 including trade secrets, belonging to Gaussian, Inc.
  
 This software is provided under written license and may be
 used, copied, transmitted, or stored only in accord with that
 written license.
  
 The following legend is applicable only to US Government
 contracts under FAR:
  
                    RESTRICTED RIGHTS LEGEND
  
 Use, reproduction and disclosure by the US Government is
 subject to restrictions as set forth in subparagraphs (a)
 and (c) of the Commercial Computer Software - Restricted
 Rights clause in FAR 52.227-19.
  
 Gaussian, Inc.
 340 Quinnipiac St., Bldg. 40, Wallingford CT 06492
  
  
 ---------------------------------------------------------------
 Warning -- This program may not be used in any manner that
 competes with the business of Gaussian, Inc. or will provide
 assistance to any competitor of Gaussian, Inc.  The licensee
 of this program is prohibited from giving any competitor of
 Gaussian, Inc. access to this program.  By using this program,
 the user acknowledges that Gaussian, Inc. is engaged in the
 business of creating and licensing software in the field of
 computational chemistry and represents and warrants to the
 licensee that it is not a competitor of Gaussian, Inc. and that
 it will not use this program in any manner prohibited above.
 ---------------------------------------------------------------
  

 Cite this work as:
 Gaussian 09, Revision D.01,
 M. J. Frisch, G. W. Trucks, H. B. Schlegel, G. E. Scuseria, 
 M. A. Robb, J. R. Cheeseman, G. Scalmani, V. Barone, B. Mennucci, 
 G. A. Petersson, H. Nakatsuji, M. Caricato, X. Li, H. P. Hratchian, 
 A. F. Izmaylov, J. Bloino, G. Zheng, J. L. Sonnenberg, M. Hada, 
 M. Ehara, K. Toyota, R. Fukuda, J. Hasegawa, M. Ishida, T. Nakajima, 
 Y. Honda, O. Kitao, H. Nakai, T. Vreven, J. A. Montgomery, Jr., 
 J. E. Peralta, F. Ogliaro, M. Bearpark, J. J. Heyd, E. Brothers, 
 K. N. Kudin, V. N. Staroverov, T. Keith, R. Kobayashi, J. Normand, 
 K. Raghavachari, A. Rendell, J. C. Burant, S. S. Iyengar, J. Tomasi, 
 M. Cossi, N. Rega, J. M. Millam, M. Klene, J. E. Knox, J. B. Cross, 
 V. Bakken, C. Adamo, J. Jaramillo, R. Gomperts, R. E. Stratmann, 
 O. Yazyev, A. J. Austin, R. Cammi, C. Pomelli, J. W. Ochterski, 
 R. L. Martin, K. Morokuma, V. G. Zakrzewski, G. A. Voth, 
 P. Salvador, J. J. Dannenberg, S. Dapprich, A. D. Daniels, 
 O. Farkas, J. B. Foresman, J. V. Ortiz, J. Cioslowski, 
 and D. J. Fox, Gaussian, Inc., Wallingford CT, 2013.
 
 ******************************************
 Gaussian 09:  ES64L-G09RevD.01 24-Apr-2013
                 6-Feb-2019 
 ******************************************
 %nprocshared=2
 Will use up to    2 processors via shared memory.
 %mem=6000MB
 %chk=/home/ke291/rds/hpc-work/06Feb0927IP1/P_ng_2ginp002.chk
 ---------------------------------------------------------------
 # b3lyp/6-31g(d,p) Opt=(maxcycles=25) scrf=(solvent=chloroform)
 ---------------------------------------------------------------
 1/6=25,14=-1,18=20,19=15,26=3,38=1/1,3;
 2/9=110,12=2,17=6,18=5,40=1/2;
 3/5=1,6=6,7=101,11=2,16=1,25=1,30=1,70=2201,71=1,72=7,74=-5/1,2,3;
 4//1;
 5/5=2,38=5,53=7/2;
 6/7=2,8=2,9=2,10=2,28=1/1;
 7//1,2,3,16;
 1/6=25,14=-1,18=20,19=15,26=3/3(2);
 2/9=110/2;
 99//99;
 2/9=110/2;
 3/5=1,6=6,7=101,11=2,16=1,25=1,30=1,70=2205,71=1,72=7,74=-5/1,2,3;
 4/5=5,16=3,69=1/1;
 5/5=2,38=5,53=7/2;
 7//1,2,3,16;
 1/6=25,14=-1,18=20,19=15,26=3/3(-5);
 2/9=110/2;
 6/7=2,8=2,9=2,10=2,19=2,28=1/1;
 99/9=1/99;
 -------------
 P_ng_2ginp002
 -------------
 Symbolic Z-matrix:
 Charge =  0 Multiplicity = 1
 C                    -0.11882   0.01978   1.04496 
 C                    -0.93372   1.1744    0.43533 
 C                    -2.20608   1.4545    1.28723 
 C                    -1.7374    1.74214   2.71761 
 C                    -0.91263   0.63142   3.29286 
 H                    -0.6323   -0.92995   0.85108 
 H                    -0.32434   2.08307   0.4789 
 H                    -1.1095    2.63828   2.7679 
 H                    -2.58825   1.93136   3.38131 
 O                     0.02546   0.09825   2.48139 
 O                    -0.98676   0.31038   4.4741 
 C                     1.29901  -0.14317   0.46483 
 C                     2.2092    1.05995   0.67802 
 C                    -1.2304    0.92955  -1.05088 
 O                    -2.96833   2.51972   0.67567 
 Si                   -2.79154   4.17441   0.82905 
 C                    -3.37759   4.78342   2.5072 
 C                    -1.03156   4.7584    0.5451 
 C                    -3.87252   5.01693  -0.47592 
 H                    -0.98531   5.85157   0.56193 
 H                    -0.35679   4.38279   1.31893 
 H                    -0.66439   4.41914  -0.42802 
 H                    -3.78768   6.10469  -0.39859 
 H                    -3.56121   4.71331  -1.4796 
 H                    -4.92116   4.73822  -0.33772 
 H                    -3.41664   5.8768    2.52395 
 H                    -4.37967   4.40202   2.7244 
 H                    -2.70533   4.45927   3.30582 
 H                    -1.86954   1.7121   -1.47051 
 H                    -0.30648   0.92979  -1.6379 
 H                    -1.72347  -0.03444  -1.21061 
 H                     1.25261  -0.37821  -0.6037 
 H                     1.77418  -1.00299   0.95473 
 H                     1.87059   1.92633   0.10285 
 H                     2.26077   1.34194   1.73399 
 H                     3.22461   0.82235   0.34416 
 C                    -3.18497   0.22836   1.27061 
 C                    -4.41908   0.41125   2.11962 
 C                    -4.72114  -0.34279   3.18408 
 H                    -2.67435  -0.69021   1.57801 
 H                    -3.54188   0.06082   0.24652 
 H                    -5.09964   1.20793   1.82346 
 H                    -5.62881  -0.16174   3.75228 
 H                    -4.07565  -1.14844   3.52157 
 

 GradGradGradGradGradGradGradGradGradGradGradGradGradGradGradGradGradGrad
 Berny optimization.
 Initialization pass.
                           ----------------------------
                           !    Initial Parameters    !
                           ! (Angstroms and Degrees)  !
 --------------------------                            --------------------------
 ! Name  Definition              Value          Derivative Info.                !
 --------------------------------------------------------------------------------
 ! R1    R(1,2)                  1.5391         estimate D2E/DX2                !
 ! R2    R(1,6)                  1.0969         estimate D2E/DX2                !
 ! R3    R(1,10)                 1.4458         estimate D2E/DX2                !
 ! R4    R(1,12)                 1.5406         estimate D2E/DX2                !
 ! R5    R(2,3)                  1.5566         estimate D2E/DX2                !
 ! R6    R(2,7)                  1.095          estimate D2E/DX2                !
 ! R7    R(2,14)                 1.5352         estimate D2E/DX2                !
 ! R8    R(3,4)                  1.5324         estimate D2E/DX2                !
 ! R9    R(3,15)                 1.4456         estimate D2E/DX2                !
 ! R10   R(3,37)                 1.5691         estimate D2E/DX2                !
 ! R11   R(4,5)                  1.4983         estimate D2E/DX2                !
 ! R12   R(4,8)                  1.0954         estimate D2E/DX2                !
 ! R13   R(4,9)                  1.0956         estimate D2E/DX2                !
 ! R14   R(5,10)                 1.3501         estimate D2E/DX2                !
 ! R15   R(5,11)                 1.2263         estimate D2E/DX2                !
 ! R16   R(12,13)                1.5236         estimate D2E/DX2                !
 ! R17   R(12,32)                1.0951         estimate D2E/DX2                !
 ! R18   R(12,33)                1.0978         estimate D2E/DX2                !
 ! R19   R(13,34)                1.0937         estimate D2E/DX2                !
 ! R20   R(13,35)                1.0942         estimate D2E/DX2                !
 ! R21   R(13,36)                1.095          estimate D2E/DX2                !
 ! R22   R(14,29)                1.0941         estimate D2E/DX2                !
 ! R23   R(14,30)                1.0946         estimate D2E/DX2                !
 ! R24   R(14,31)                1.0945         estimate D2E/DX2                !
 ! R25   R(15,16)                1.6712         estimate D2E/DX2                !
 ! R26   R(16,17)                1.879          estimate D2E/DX2                !
 ! R27   R(16,18)                1.8759         estimate D2E/DX2                !
 ! R28   R(16,19)                1.8924         estimate D2E/DX2                !
 ! R29   R(17,26)                1.0942         estimate D2E/DX2                !
 ! R30   R(17,27)                1.094          estimate D2E/DX2                !
 ! R31   R(17,28)                1.0931         estimate D2E/DX2                !
 ! R32   R(18,20)                1.0943         estimate D2E/DX2                !
 ! R33   R(18,21)                1.0933         estimate D2E/DX2                !
 ! R34   R(18,22)                1.094          estimate D2E/DX2                !
 ! R35   R(19,23)                1.0938         estimate D2E/DX2                !
 ! R36   R(19,24)                1.0938         estimate D2E/DX2                !
 ! R37   R(19,25)                1.0938         estimate D2E/DX2                !
 ! R38   R(37,38)                1.5091         estimate D2E/DX2                !
 ! R39   R(37,40)                1.095          estimate D2E/DX2                !
 ! R40   R(37,41)                1.0974         estimate D2E/DX2                !
 ! R41   R(38,39)                1.339          estimate D2E/DX2                !
 ! R42   R(38,42)                1.0888         estimate D2E/DX2                !
 ! R43   R(39,43)                1.0861         estimate D2E/DX2                !
 ! R44   R(39,44)                1.0861         estimate D2E/DX2                !
 ! A1    A(2,1,6)              109.3697         estimate D2E/DX2                !
 ! A2    A(2,1,10)             113.9319         estimate D2E/DX2                !
 ! A3    A(2,1,12)             114.6754         estimate D2E/DX2                !
 ! A4    A(6,1,10)             105.6229         estimate D2E/DX2                !
 ! A5    A(6,1,12)             105.8237         estimate D2E/DX2                !
 ! A6    A(10,1,12)            106.7402         estimate D2E/DX2                !
 ! A7    A(1,2,3)              110.5481         estimate D2E/DX2                !
 ! A8    A(1,2,7)              108.1879         estimate D2E/DX2                !
 ! A9    A(1,2,14)             111.4771         estimate D2E/DX2                !
 ! A10   A(3,2,7)              106.4868         estimate D2E/DX2                !
 ! A11   A(3,2,14)             113.6125         estimate D2E/DX2                !
 ! A12   A(7,2,14)             106.1669         estimate D2E/DX2                !
 ! A13   A(2,3,4)              107.134          estimate D2E/DX2                !
 ! A14   A(2,3,15)             109.3947         estimate D2E/DX2                !
 ! A15   A(2,3,37)             111.3174         estimate D2E/DX2                !
 ! A16   A(4,3,15)             114.6977         estimate D2E/DX2                !
 ! A17   A(4,3,37)             110.3263         estimate D2E/DX2                !
 ! A18   A(15,3,37)            104.0277         estimate D2E/DX2                !
 ! A19   A(3,4,5)              112.8041         estimate D2E/DX2                !
 ! A20   A(3,4,8)              111.8226         estimate D2E/DX2                !
 ! A21   A(3,4,9)              111.1224         estimate D2E/DX2                !
 ! A22   A(5,4,8)              105.8611         estimate D2E/DX2                !
 ! A23   A(5,4,9)              108.8418         estimate D2E/DX2                !
 ! A24   A(8,4,9)              106.0259         estimate D2E/DX2                !
 ! A25   A(4,5,10)             116.3902         estimate D2E/DX2                !
 ! A26   A(4,5,11)             122.0478         estimate D2E/DX2                !
 ! A27   A(10,5,11)            121.1684         estimate D2E/DX2                !
 ! A28   A(1,10,5)             123.3156         estimate D2E/DX2                !
 ! A29   A(1,12,13)            114.4299         estimate D2E/DX2                !
 ! A30   A(1,12,32)            110.5578         estimate D2E/DX2                !
 ! A31   A(1,12,33)            108.2501         estimate D2E/DX2                !
 ! A32   A(13,12,32)           109.3494         estimate D2E/DX2                !
 ! A33   A(13,12,33)           107.3054         estimate D2E/DX2                !
 ! A34   A(32,12,33)           106.6005         estimate D2E/DX2                !
 ! A35   A(12,13,34)           111.5309         estimate D2E/DX2                !
 ! A36   A(12,13,35)           111.5123         estimate D2E/DX2                !
 ! A37   A(12,13,36)           109.8753         estimate D2E/DX2                !
 ! A38   A(34,13,35)           108.5399         estimate D2E/DX2                !
 ! A39   A(34,13,36)           107.377          estimate D2E/DX2                !
 ! A40   A(35,13,36)           107.8466         estimate D2E/DX2                !
 ! A41   A(2,14,29)            111.7236         estimate D2E/DX2                !
 ! A42   A(2,14,30)            110.8553         estimate D2E/DX2                !
 ! A43   A(2,14,31)            111.6429         estimate D2E/DX2                !
 ! A44   A(29,14,30)           106.6933         estimate D2E/DX2                !
 ! A45   A(29,14,31)           108.1092         estimate D2E/DX2                !
 ! A46   A(30,14,31)           107.5883         estimate D2E/DX2                !
 ! A47   A(3,15,16)            129.4204         estimate D2E/DX2                !
 ! A48   A(15,16,17)           111.7093         estimate D2E/DX2                !
 ! A49   A(15,16,18)           113.1781         estimate D2E/DX2                !
 ! A50   A(15,16,19)           108.4876         estimate D2E/DX2                !
 ! A51   A(17,16,18)           109.0812         estimate D2E/DX2                !
 ! A52   A(17,16,19)           107.0622         estimate D2E/DX2                !
 ! A53   A(18,16,19)           107.0335         estimate D2E/DX2                !
 ! A54   A(16,17,26)           110.4065         estimate D2E/DX2                !
 ! A55   A(16,17,27)           110.4883         estimate D2E/DX2                !
 ! A56   A(16,17,28)           111.3824         estimate D2E/DX2                !
 ! A57   A(26,17,27)           108.2186         estimate D2E/DX2                !
 ! A58   A(26,17,28)           107.8837         estimate D2E/DX2                !
 ! A59   A(27,17,28)           108.3555         estimate D2E/DX2                !
 ! A60   A(16,18,20)           110.3841         estimate D2E/DX2                !
 ! A61   A(16,18,21)           111.4057         estimate D2E/DX2                !
 ! A62   A(16,18,22)           110.6692         estimate D2E/DX2                !
 ! A63   A(20,18,21)           107.833          estimate D2E/DX2                !
 ! A64   A(20,18,22)           108.0162         estimate D2E/DX2                !
 ! A65   A(21,18,22)           108.4157         estimate D2E/DX2                !
 ! A66   A(16,19,23)           110.4677         estimate D2E/DX2                !
 ! A67   A(16,19,24)           110.2789         estimate D2E/DX2                !
 ! A68   A(16,19,25)           110.307          estimate D2E/DX2                !
 ! A69   A(23,19,24)           108.593          estimate D2E/DX2                !
 ! A70   A(23,19,25)           108.5922         estimate D2E/DX2                !
 ! A71   A(24,19,25)           108.546          estimate D2E/DX2                !
 ! A72   A(3,37,38)            114.1757         estimate D2E/DX2                !
 ! A73   A(3,37,40)            111.2012         estimate D2E/DX2                !
 ! A74   A(3,37,41)            109.3964         estimate D2E/DX2                !
 ! A75   A(38,37,40)           108.9708         estimate D2E/DX2                !
 ! A76   A(38,37,41)           106.1147         estimate D2E/DX2                !
 ! A77   A(40,37,41)           106.5933         estimate D2E/DX2                !
 ! A78   A(37,38,39)           124.2977         estimate D2E/DX2                !
 ! A79   A(37,38,42)           116.5383         estimate D2E/DX2                !
 ! A80   A(39,38,42)           119.161          estimate D2E/DX2                !
 ! A81   A(38,39,43)           120.7021         estimate D2E/DX2                !
 ! A82   A(38,39,44)           122.0515         estimate D2E/DX2                !
 ! A83   A(43,39,44)           117.2445         estimate D2E/DX2                !
 ! D1    D(6,1,2,3)             73.7959         estimate D2E/DX2                !
 ! D2    D(6,1,2,7)           -169.9617         estimate D2E/DX2                !
 ! D3    D(6,1,2,14)           -53.5887         estimate D2E/DX2                !
 ! D4    D(10,1,2,3)           -44.1305         estimate D2E/DX2                !
 ! D5    D(10,1,2,7)            72.1118         estimate D2E/DX2                !
 ! D6    D(10,1,2,14)         -171.5151         estimate D2E/DX2                !
 ! D7    D(12,1,2,3)          -167.5447         estimate D2E/DX2                !
 ! D8    D(12,1,2,7)           -51.3024         estimate D2E/DX2                !
 ! D9    D(12,1,2,14)           65.0707         estimate D2E/DX2                !
 ! D10   D(2,1,10,5)            31.8398         estimate D2E/DX2                !
 ! D11   D(6,1,10,5)           -88.2186         estimate D2E/DX2                !
 ! D12   D(12,1,10,5)          159.4615         estimate D2E/DX2                !
 ! D13   D(2,1,12,13)           61.6136         estimate D2E/DX2                !
 ! D14   D(2,1,12,32)          -62.3744         estimate D2E/DX2                !
 ! D15   D(2,1,12,33)         -178.7951         estimate D2E/DX2                !
 ! D16   D(6,1,12,13)         -177.7507         estimate D2E/DX2                !
 ! D17   D(6,1,12,32)           58.2613         estimate D2E/DX2                !
 ! D18   D(6,1,12,33)          -58.1594         estimate D2E/DX2                !
 ! D19   D(10,1,12,13)         -65.5689         estimate D2E/DX2                !
 ! D20   D(10,1,12,32)         170.4431         estimate D2E/DX2                !
 ! D21   D(10,1,12,33)          54.0224         estimate D2E/DX2                !
 ! D22   D(1,2,3,4)             56.4727         estimate D2E/DX2                !
 ! D23   D(1,2,3,15)          -178.6323         estimate D2E/DX2                !
 ! D24   D(1,2,3,37)           -64.2245         estimate D2E/DX2                !
 ! D25   D(7,2,3,4)            -60.8223         estimate D2E/DX2                !
 ! D26   D(7,2,3,15)            64.0726         estimate D2E/DX2                !
 ! D27   D(7,2,3,37)           178.4804         estimate D2E/DX2                !
 ! D28   D(14,2,3,4)          -177.328          estimate D2E/DX2                !
 ! D29   D(14,2,3,15)          -52.4331         estimate D2E/DX2                !
 ! D30   D(14,2,3,37)           61.9747         estimate D2E/DX2                !
 ! D31   D(1,2,14,29)          175.9331         estimate D2E/DX2                !
 ! D32   D(1,2,14,30)          -65.2067         estimate D2E/DX2                !
 ! D33   D(1,2,14,31)           54.7307         estimate D2E/DX2                !
 ! D34   D(3,2,14,29)           50.2258         estimate D2E/DX2                !
 ! D35   D(3,2,14,30)          169.0861         estimate D2E/DX2                !
 ! D36   D(3,2,14,31)          -70.9765         estimate D2E/DX2                !
 ! D37   D(7,2,14,29)          -66.467          estimate D2E/DX2                !
 ! D38   D(7,2,14,30)           52.3932         estimate D2E/DX2                !
 ! D39   D(7,2,14,31)          172.3306         estimate D2E/DX2                !
 ! D40   D(2,3,4,5)            -56.4068         estimate D2E/DX2                !
 ! D41   D(2,3,4,8)             62.7844         estimate D2E/DX2                !
 ! D42   D(2,3,4,9)           -178.9543         estimate D2E/DX2                !
 ! D43   D(15,3,4,5)          -178.0256         estimate D2E/DX2                !
 ! D44   D(15,3,4,8)           -58.8345         estimate D2E/DX2                !
 ! D45   D(15,3,4,9)            59.4268         estimate D2E/DX2                !
 ! D46   D(37,3,4,5)            64.9175         estimate D2E/DX2                !
 ! D47   D(37,3,4,8)          -175.8913         estimate D2E/DX2                !
 ! D48   D(37,3,4,9)           -57.63           estimate D2E/DX2                !
 ! D49   D(2,3,15,16)          -84.5707         estimate D2E/DX2                !
 ! D50   D(4,3,15,16)           35.8062         estimate D2E/DX2                !
 ! D51   D(37,3,15,16)         156.4031         estimate D2E/DX2                !
 ! D52   D(2,3,37,38)          177.8483         estimate D2E/DX2                !
 ! D53   D(2,3,37,40)           54.0452         estimate D2E/DX2                !
 ! D54   D(2,3,37,41)          -63.4267         estimate D2E/DX2                !
 ! D55   D(4,3,37,38)           59.0452         estimate D2E/DX2                !
 ! D56   D(4,3,37,40)          -64.7579         estimate D2E/DX2                !
 ! D57   D(4,3,37,41)          177.7701         estimate D2E/DX2                !
 ! D58   D(15,3,37,38)         -64.4469         estimate D2E/DX2                !
 ! D59   D(15,3,37,40)         171.75           estimate D2E/DX2                !
 ! D60   D(15,3,37,41)          54.2781         estimate D2E/DX2                !
 ! D61   D(3,4,5,10)            43.9103         estimate D2E/DX2                !
 ! D62   D(3,4,5,11)          -143.2168         estimate D2E/DX2                !
 ! D63   D(8,4,5,10)           -78.683          estimate D2E/DX2                !
 ! D64   D(8,4,5,11)            94.1898         estimate D2E/DX2                !
 ! D65   D(9,4,5,10)           167.7261         estimate D2E/DX2                !
 ! D66   D(9,4,5,11)           -19.401          estimate D2E/DX2                !
 ! D67   D(4,5,10,1)           -31.2021         estimate D2E/DX2                !
 ! D68   D(11,5,10,1)          155.8578         estimate D2E/DX2                !
 ! D69   D(1,12,13,34)         -67.6187         estimate D2E/DX2                !
 ! D70   D(1,12,13,35)          53.9097         estimate D2E/DX2                !
 ! D71   D(1,12,13,36)         173.4328         estimate D2E/DX2                !
 ! D72   D(32,12,13,34)         57.0123         estimate D2E/DX2                !
 ! D73   D(32,12,13,35)        178.5407         estimate D2E/DX2                !
 ! D74   D(32,12,13,36)        -61.9363         estimate D2E/DX2                !
 ! D75   D(33,12,13,34)        172.2622         estimate D2E/DX2                !
 ! D76   D(33,12,13,35)        -66.2094         estimate D2E/DX2                !
 ! D77   D(33,12,13,36)         53.3137         estimate D2E/DX2                !
 ! D78   D(3,15,16,17)         -73.0349         estimate D2E/DX2                !
 ! D79   D(3,15,16,18)          50.5534         estimate D2E/DX2                !
 ! D80   D(3,15,16,19)         169.1828         estimate D2E/DX2                !
 ! D81   D(15,16,17,26)       -170.1969         estimate D2E/DX2                !
 ! D82   D(15,16,17,27)        -50.5197         estimate D2E/DX2                !
 ! D83   D(15,16,17,28)         69.9663         estimate D2E/DX2                !
 ! D84   D(18,16,17,26)         63.9302         estimate D2E/DX2                !
 ! D85   D(18,16,17,27)       -176.3926         estimate D2E/DX2                !
 ! D86   D(18,16,17,28)        -55.9066         estimate D2E/DX2                !
 ! D87   D(19,16,17,26)        -51.5626         estimate D2E/DX2                !
 ! D88   D(19,16,17,27)         68.1145         estimate D2E/DX2                !
 ! D89   D(19,16,17,28)       -171.3995         estimate D2E/DX2                !
 ! D90   D(15,16,18,20)        174.627          estimate D2E/DX2                !
 ! D91   D(15,16,18,21)        -65.5996         estimate D2E/DX2                !
 ! D92   D(15,16,18,22)         55.1005         estimate D2E/DX2                !
 ! D93   D(17,16,18,20)        -60.3524         estimate D2E/DX2                !
 ! D94   D(17,16,18,21)         59.421          estimate D2E/DX2                !
 ! D95   D(17,16,18,22)       -179.8789         estimate D2E/DX2                !
 ! D96   D(19,16,18,20)         55.1589         estimate D2E/DX2                !
 ! D97   D(19,16,18,21)        174.9323         estimate D2E/DX2                !
 ! D98   D(19,16,18,22)        -64.3676         estimate D2E/DX2                !
 ! D99   D(15,16,19,23)        179.5098         estimate D2E/DX2                !
 ! D100  D(15,16,19,24)        -60.4421         estimate D2E/DX2                !
 ! D101  D(15,16,19,25)         59.4446         estimate D2E/DX2                !
 ! D102  D(17,16,19,23)         58.8059         estimate D2E/DX2                !
 ! D103  D(17,16,19,24)        178.854          estimate D2E/DX2                !
 ! D104  D(17,16,19,25)        -61.2593         estimate D2E/DX2                !
 ! D105  D(18,16,19,23)        -58.0455         estimate D2E/DX2                !
 ! D106  D(18,16,19,24)         62.0026         estimate D2E/DX2                !
 ! D107  D(18,16,19,25)       -178.1107         estimate D2E/DX2                !
 ! D108  D(3,37,38,39)        -116.9543         estimate D2E/DX2                !
 ! D109  D(3,37,38,42)          63.6764         estimate D2E/DX2                !
 ! D110  D(40,37,38,39)          8.0401         estimate D2E/DX2                !
 ! D111  D(40,37,38,42)       -171.3292         estimate D2E/DX2                !
 ! D112  D(41,37,38,39)        122.4742         estimate D2E/DX2                !
 ! D113  D(41,37,38,42)        -56.8952         estimate D2E/DX2                !
 ! D114  D(37,38,39,43)       -179.7705         estimate D2E/DX2                !
 ! D115  D(37,38,39,44)          0.741          estimate D2E/DX2                !
 ! D116  D(42,38,39,43)         -0.4166         estimate D2E/DX2                !
 ! D117  D(42,38,39,44)       -179.9051         estimate D2E/DX2                !
 --------------------------------------------------------------------------------
 Trust Radius=3.00D-01 FncErr=1.00D-07 GrdErr=1.00D-06
 Number of steps in this run=     25 maximum allowed number of steps=    264.
 GradGradGradGradGradGradGradGradGradGradGradGradGradGradGradGradGradGrad

                          Input orientation:                          
 ---------------------------------------------------------------------
 Center     Atomic      Atomic             Coordinates (Angstroms)
 Number     Number       Type             X           Y           Z
 ---------------------------------------------------------------------
      1          6           0       -0.118817    0.019783    1.044956
      2          6           0       -0.933716    1.174399    0.435327
      3          6           0       -2.206082    1.454501    1.287226
      4          6           0       -1.737401    1.742139    2.717605
      5          6           0       -0.912634    0.631423    3.292860
      6          1           0       -0.632302   -0.929947    0.851075
      7          1           0       -0.324338    2.083072    0.478900
      8          1           0       -1.109496    2.638278    2.767903
      9          1           0       -2.588246    1.931358    3.381311
     10          8           0        0.025455    0.098247    2.481391
     11          8           0       -0.986758    0.310379    4.474100
     12          6           0        1.299011   -0.143173    0.464831
     13          6           0        2.209202    1.059946    0.678020
     14          6           0       -1.230397    0.929548   -1.050883
     15          8           0       -2.968330    2.519719    0.675672
     16         14           0       -2.791538    4.174410    0.829049
     17          6           0       -3.377593    4.783421    2.507200
     18          6           0       -1.031564    4.758395    0.545097
     19          6           0       -3.872523    5.016930   -0.475924
     20          1           0       -0.985313    5.851574    0.561928
     21          1           0       -0.356785    4.382789    1.318926
     22          1           0       -0.664394    4.419137   -0.428019
     23          1           0       -3.787680    6.104687   -0.398585
     24          1           0       -3.561212    4.713312   -1.479599
     25          1           0       -4.921157    4.738220   -0.337715
     26          1           0       -3.416641    5.876797    2.523952
     27          1           0       -4.379674    4.402019    2.724395
     28          1           0       -2.705328    4.459272    3.305824
     29          1           0       -1.869542    1.712096   -1.470507
     30          1           0       -0.306479    0.929787   -1.637895
     31          1           0       -1.723465   -0.034438   -1.210611
     32          1           0        1.252612   -0.378205   -0.603704
     33          1           0        1.774181   -1.002992    0.954734
     34          1           0        1.870589    1.926334    0.102852
     35          1           0        2.260772    1.341944    1.733990
     36          1           0        3.224614    0.822350    0.344157
     37          6           0       -3.184973    0.228361    1.270612
     38          6           0       -4.419075    0.411249    2.119620
     39          6           0       -4.721138   -0.342793    3.184079
     40          1           0       -2.674346   -0.690210    1.578012
     41          1           0       -3.541884    0.060816    0.246518
     42          1           0       -5.099644    1.207929    1.823455
     43          1           0       -5.628814   -0.161743    3.752281
     44          1           0       -4.075650   -1.148439    3.521572
 ---------------------------------------------------------------------
                    Distance matrix (angstroms):
                    1          2          3          4          5
     1  C    0.000000
     2  C    1.539106   0.000000
     3  C    2.544364   1.556632   0.000000
     4  C    2.895527   2.485363   1.532443   0.000000
     5  C    2.461163   2.908739   2.524487   1.498282   0.000000
     6  H    1.096925   2.166095   2.890087   3.441689   2.911834
     7  H    2.149377   1.094955   2.142301   2.669229   3.220520
     8  H    3.287325   2.759484   2.190030   1.095381   2.083699
     9  H    3.900097   3.462554   2.181429   1.095558   2.122576
    10  O    1.445793   2.502896   2.871448   2.421949   1.350100
    11  O    3.549197   4.130500   3.598879   2.387190   1.226333
    12  C    1.540564   2.592670   3.938854   4.224830   3.672754
    13  C    2.576093   3.154351   4.474543   4.494549   4.094738
    14  C    2.540831   1.535185   2.587333   3.888298   4.365542
    15  O    3.808645   2.450981   1.445583   2.507849   3.826385
    16  Si   4.944793   3.550575   2.819679   3.254810   4.706740
    17  C    5.953992   4.825995   3.733963   3.461776   4.892072
    18  C    4.851537   3.587011   3.584127   3.783622   4.959460
    19  C    6.432330   4.922602   4.310061   5.047933   6.495949
    20  H    5.915566   4.679173   4.620669   4.701068   5.891795
    21  H    4.378071   3.377479   3.463492   3.291722   4.275293
    22  H    4.671362   3.368416   3.756053   4.267624   5.315387
    23  H    7.250546   5.757453   5.193038   5.739870   7.200644
    24  H    6.344500   4.805682   4.484590   5.456251   6.815655
    25  H    6.872983   5.403527   4.560140   5.333646   6.790811
    26  H    6.882419   5.713127   4.748857   4.466850   5.863038
    27  H    6.338723   5.247093   3.934186   3.749215   5.153728
    28  H    5.613433   4.708370   3.654126   2.943755   4.226860
    29  H    3.500931   2.190226   2.790109   4.190304   4.977268
    30  H    2.839192   2.179796   3.527060   4.655946   4.976825
    31  H    2.768649   2.189544   2.947719   4.311299   4.624075
    32  H    2.181122   2.875795   4.347067   4.946426   4.570651
    33  H    2.153520   3.513335   4.689597   4.793190   3.918816
    34  H    2.912084   2.922340   4.271372   4.459647   4.427107
    35  H    2.808081   3.452441   4.490551   4.136791   3.606303
    36  H    3.509097   4.174202   5.548104   5.576815   5.084105
    37  C    3.081516   2.580862   1.569052   2.545737   3.068464
    38  C    4.449760   3.945500   2.584297   3.052905   3.704065
    39  C    5.088091   4.919560   3.626820   3.669772   3.932637
    40  H    2.705359   2.795047   2.214410   2.844795   2.791245
    41  H    3.515192   2.842227   2.193125   3.491314   4.064326
    42  H    5.179420   4.391239   2.953141   3.519881   4.474658
    43  H    6.141875   5.901814   4.517060   4.454034   4.804429
    44  H    4.811954   4.979180   3.906774   3.803842   3.636604
                    6          7          8          9         10
     6  H    0.000000
     7  H    3.051498   0.000000
     8  H    4.078501   2.482793   0.000000
     9  H    4.291256   3.684058   1.750059   0.000000
    10  O    2.036604   2.841101   2.796777   3.316864   0.000000
    11  O    3.845823   4.420731   2.888821   2.527157   2.245098
    12  C    2.120888   2.755291   4.340682   5.283966   2.397236
    13  C    3.473293   2.739573   4.227588   5.575181   2.990947
    14  C    2.726332   2.119386   4.185391   4.742544   3.839946
    15  O    4.169891   2.687019   2.801205   2.794837   4.252869
    16  Si   5.542314   3.253210   2.991341   3.403917   5.223101
    17  C    6.551484   4.552829   3.132709   3.085677   5.790704
    18  C    5.710540   2.768014   3.072757   4.296453   5.155919
    19  C    6.901109   4.702003   4.880032   5.103762   6.937823
    20  H    6.796856   3.826929   3.899618   5.087869   6.148720
    21  H    5.340408   2.448550   2.389441   3.904147   4.455865
    22  H    5.499983   2.528901   3.685579   4.939762   5.254584
    23  H    7.810514   5.379415   5.405119   5.756990   7.675388
    24  H    6.771774   4.607736   5.325218   5.684574   7.060627
    25  H    7.206637   5.370979   5.346343   5.210768   7.344772
    26  H    7.542070   5.304425   3.983772   4.121625   6.726178
    27  H    6.781002   5.183195   3.715742   3.121685   6.163332
    28  H    6.274306   4.393966   2.480334   2.531750   5.211085
    29  H    3.728391   2.515048   4.404498   4.909659   4.670441
    30  H    3.124059   2.410644   4.793207   5.603752   4.215466
    31  H    2.498624   3.048910   4.832074   5.069314   4.087445
    32  H    2.444116   3.117160   5.103573   5.997217   3.354211
    33  H    2.409822   3.762179   4.986183   5.790462   2.569329
    34  H    3.870742   2.232417   4.060821   5.534395   3.521913
    35  H    3.782976   2.967712   3.756084   5.155003   2.664964
    36  H    4.266534   3.768638   5.287405   6.651582   3.914935
    37  C    2.834399   3.499999   3.515279   2.776929   3.433622
    38  C    4.212798   4.717396   4.041441   2.693424   4.470201
    39  C    4.744074   5.703917   4.701483   3.124083   4.818551
    40  H    2.180792   3.797588   3.865673   3.183068   2.954096
    41  H    3.132534   3.807377   4.349391   3.772967   4.209747
    42  H    5.047096   5.037584   4.342714   3.042595   5.284971
    43  H    5.828573   6.625080   5.406788   3.709952   5.801165
    44  H    4.363019   5.811442   4.868810   3.423039   4.410812
                   11         12         13         14         15
    11  O    0.000000
    12  C    4.637315   0.000000
    13  C    5.018589   1.523612   0.000000
    14  C    5.564905   3.137837   3.851876   0.000000
    15  O    4.820360   5.034446   5.379385   2.920624   0.000000
    16  Si   5.610202   5.958756   5.893225   4.062073   1.671162
    17  C    5.439935   7.093182   6.958624   5.667693   2.940466
    18  C    5.934974   5.428019   4.919223   4.152921   2.963070
    19  C    7.414985   7.365898   7.346883   4.900826   2.894789
    20  H    6.783062   6.415961   5.760044   5.185322   3.878989
    21  H    5.190040   4.894433   4.246921   4.278325   3.271845
    22  H    6.404419   5.046465   4.556867   3.589645   3.183401
    23  H    8.072312   8.102818   7.910189   5.809239   3.831104
    24  H    7.839653   7.140590   7.162407   4.464680   3.131861
    25  H    7.631437   7.947488   8.087239   5.351290   3.124457
    26  H    6.379061   7.919431   7.632799   6.483393   3.858380
    27  H    5.595969   7.616552   7.666185   6.019030   3.119649
    28  H    4.640222   6.729671   6.527892   5.797868   3.278526
    29  H    6.171100   4.150576   4.655923   1.094062   2.542769
    30  H    6.180852   2.854873   3.421850   1.094627   3.868582
    31  H    5.742610   3.457498   4.497830   1.094485   3.410494
    32  H    5.592228   1.095062   2.150851   2.841746   5.277416
    33  H    4.661938   1.097761   2.126388   4.096913   5.914286
    34  H    5.466585   2.177289   1.093666   3.455546   4.908703
    35  H    4.372503   2.177458   1.094191   4.484847   5.463579
    36  H    5.920659   2.157486   1.094978   4.669556   6.429893
    37  C    3.886028   4.570933   5.489975   3.114702   2.377227
    38  C    4.163478   5.978480   6.814182   4.526410   2.938587
    39  C    4.004545   6.608809   7.501841   5.633740   4.190276
    40  H    3.498065   4.162450   5.265175   3.408767   3.347281
    41  H    4.946049   4.850107   5.853157   2.789429   2.561121
    42  H    4.974670   6.679380   7.399537   4.828083   2.753307
    43  H    4.721505   7.668274   8.507532   6.603588   4.871749
    44  H    3.546366   6.264280   7.243074   5.772421   4.772912
                   16         17         18         19         20
    16  Si   0.000000
    17  C    1.878975   0.000000
    18  C    1.875947   3.058484   0.000000
    19  C    1.892438   3.032905   3.029913   0.000000
    20  H    2.479250   3.263133   1.094286   3.179583   0.000000
    21  H    2.492273   3.270746   1.093260   3.998004   1.767887
    22  H    2.482912   4.013684   1.094013   3.263701   1.770554
    23  H    2.495066   3.218307   3.209239   1.093798   2.973199
    24  H    2.492523   3.991641   3.240455   1.093829   3.478323
    25  H    2.492889   3.237001   3.988571   1.093807   4.188052
    26  H    2.482251   1.094201   3.294736   3.153800   3.124345
    27  H    2.483207   1.093987   4.010759   3.298084   4.277752
    28  H    2.494593   1.093075   3.242310   3.996867   3.525042
    29  H    3.492997   5.246847   3.747640   3.990370   4.695522
    30  H    4.773773   6.439258   4.466480   5.547214   5.433601
    31  H    4.797436   6.306348   5.150969   5.538460   6.191276
    32  H    6.255736   7.599928   5.737758   7.442501   6.721395
    33  H    6.904135   7.901487   6.421338   8.376844   7.399607
    34  H    5.226532   6.441060   4.079049   6.547526   4.875904
    35  H    5.862390   6.650773   4.891327   7.483752   5.678694
    36  H    6.904021   7.997373   5.800679   8.284708   6.562317
    37  C    3.990122   4.723857   5.068012   5.143297   6.079577
    38  C    4.298352   4.511185   5.731669   5.314872   6.619234
    39  C    5.447444   5.342410   6.826368   6.545411   7.694300
    40  H    4.923333   5.596301   5.783852   6.182696   6.832291
    41  H    4.221850   5.238385   5.334614   5.019393   6.337856
    42  H    3.887957   4.027047   5.548809   4.615350   6.331083
    43  H    5.949592   5.574304   7.458451   6.912375   8.240172
    44  H    6.101749   6.058316   7.281247   7.350715   8.204258
                   21         22         23         24         25
    21  H    0.000000
    22  H    1.774193   0.000000
    23  H    4.205451   3.549206   0.000000
    24  H    4.267240   3.095790   1.776458   0.000000
    25  H    4.868704   4.269660   1.776431   1.775942   0.000000
    26  H    3.612045   4.291127   2.954797   4.171693   3.427691
    27  H    4.261379   4.872506   3.605903   4.294223   3.127739
    28  H    3.077217   4.255421   4.195417   4.867992   4.273533
    29  H    4.147526   3.141215   4.911530   3.445160   4.444435
    30  H    4.546267   3.710454   6.358792   4.993336   6.122898
    31  H    5.270509   4.644180   6.527574   5.098117   5.810804
    32  H    5.380867   5.169165   8.214287   7.061419   8.022716
    33  H    5.803472   6.103944   9.126055   8.189538   8.914005
    34  H    3.531884   3.594722   7.051672   6.306811   7.364008
    35  H    4.033686   4.764451   7.988452   7.455788   8.210162
    36  H    5.143279   5.353271   8.810620   8.032005   9.063806
    37  C    5.025958   5.176994   6.138459   5.274467   5.093121
    38  C    5.737285   6.054028   6.257416   5.674333   5.001326
    39  C    6.697574   7.223600   7.434839   6.975638   6.185445
    40  H    5.583326   5.845468   7.163594   6.271648   6.179484
    41  H    5.474885   5.265920   6.083169   4.962416   4.911398
    42  H    5.729659   5.920510   5.535066   5.056150   4.143123
    43  H    7.373485   7.943855   7.738708   7.444038   6.421720
    44  H    7.019693   7.631110   8.249751   7.722466   7.089551
                   26         27         28         29         30
    26  H    0.000000
    27  H    1.772732   0.000000
    28  H    1.768238   1.773351   0.000000
    29  H    5.974442   5.579754   5.573047   0.000000
    30  H    7.174049   6.904845   6.530857   1.755902   0.000000
    31  H    7.194199   6.497836   6.446369   1.771797   1.766395
    32  H    8.408877   8.102434   7.372305   3.855976   2.282796
    33  H    8.760056   8.379485   7.445129   5.150749   3.845323
    34  H    7.030127   7.215767   6.133011   4.063242   2.960225
    35  H    7.309032   7.378380   6.070465   5.240735   4.257964
    36  H    8.625845   8.735260   7.560614   5.480427   4.050764
    37  C    5.790454   4.578233   4.719402   3.383129   4.151763
    38  C    5.571407   4.036527   4.553076   4.591441   5.594752
    39  C    6.389114   4.779241   5.209428   5.832610   6.660338
    40  H    6.676180   5.491187   5.431709   3.963868   4.309668
    41  H    6.247242   5.068314   5.422693   2.910606   3.843692
    42  H    5.012138   3.395918   4.301325   4.640897   5.918846
    43  H    6.547249   4.841986   5.486335   6.702307   7.653279
    44  H    7.126253   5.615648   5.776742   6.162015   6.719060
                   31         32         33         34         35
    31  H    0.000000
    32  H    3.056721   0.000000
    33  H    4.226150   1.758159   0.000000
    34  H    4.299655   2.488376   3.052204   0.000000
    35  H    5.141911   3.072477   2.518479   1.776053   0.000000
    36  H    5.256888   2.495709   2.410069   1.763630   1.769352
    37  C    2.891632   4.855218   5.119494   5.459440   5.577717
    38  C    4.307597   6.340959   6.458596   6.776630   6.755387
    39  C    5.328642   7.073489   6.898914   7.621926   7.327221
    40  H    3.018382   4.503136   4.502855   5.447828   5.339417
    41  H    2.332155   4.889050   5.467523   5.726750   6.125739
    42  H    4.706125   6.982698   7.272710   7.215312   7.362180
    43  H    6.316507   8.147115   7.958537   8.597642   8.281313
    44  H    5.400679   6.782443   6.389862   7.516624   7.039013
                   36         37         38         39         40
    36  H    0.000000
    37  C    6.503380   0.000000
    38  C    7.857942   1.509063   0.000000
    39  C    8.518080   2.519400   1.338990   0.000000
    40  H    6.213531   1.094992   2.133221   2.624787   0.000000
    41  H    6.809916   1.097372   2.097803   3.191051   1.757708
    42  H    8.463466   2.220620   1.088847   2.097452   3.089538
    43  H    9.537659   3.504743   2.111248   1.086052   3.706158
    44  H    8.202063   2.784907   2.125097   1.086104   2.439478
                   41         42         43         44
    41  H    0.000000
    42  H    2.495839   0.000000
    43  H    4.085974   2.424127   0.000000
    44  H    3.531739   3.079713   1.854485   0.000000
 Stoichiometry    C14H26O3Si
 Framework group  C1[X(C14H26O3Si)]
 Deg. of freedom   126
 Full point group                 C1      NOp   1
 Largest Abelian subgroup         C1      NOp   1
 Largest concise Abelian subgroup C1      NOp   1
                         Standard orientation:                         
 ---------------------------------------------------------------------
 Center     Atomic      Atomic             Coordinates (Angstroms)
 Number     Number       Type             X           Y           Z
 ---------------------------------------------------------------------
      1          6           0        2.357421   -0.438936    0.492313
      2          6           0        0.883890   -0.808491    0.739258
      3          6           0       -0.043604    0.399745    0.418284
      4          6           0        0.235937    0.810905   -1.031263
      5          6           0        1.678637    1.133039   -1.275587
      6          1           0        2.705229    0.224745    1.293438
      7          1           0        0.609537   -1.605195    0.040030
      8          1           0       -0.016086    0.011949   -1.736963
      9          1           0       -0.373344    1.673972   -1.321329
     10          8           0        2.582032    0.285564   -0.738527
     11          8           0        2.025149    2.034878   -2.030907
     12          6           0        3.328232   -1.635108    0.486605
     13          6           0        3.052900   -2.664929   -0.601998
     14          6           0        0.677366   -1.385311    2.146887
     15          8           0       -1.416325    0.036373    0.689039
     16         14           0       -2.515170   -0.760541   -0.285769
     17          6           0       -3.131317    0.337548   -1.680441
     18          6           0       -1.839276   -2.352781   -1.011795
     19          6           0       -4.021046   -1.224526    0.762266
     20          1           0       -2.622402   -2.883473   -1.561833
     21          1           0       -1.016771   -2.157622   -1.705061
     22          1           0       -1.474509   -3.013887   -0.220120
     23          1           0       -4.766974   -1.741878    0.152075
     24          1           0       -3.723352   -1.883961    1.582624
     25          1           0       -4.479490   -0.326613    1.186525
     26          1           0       -3.970283   -0.137526   -2.197854
     27          1           0       -3.472370    1.300024   -1.287847
     28          1           0       -2.345579    0.525087   -2.416823
     29          1           0       -0.378867   -1.582851    2.352609
     30          1           0        1.203099   -2.338940    2.258251
     31          1           0        1.053631   -0.707979    2.919897
     32          1           0        3.332713   -2.131374    1.462750
     33          1           0        4.344313   -1.252446    0.324649
     34          1           0        2.109846   -3.190699   -0.427870
     35          1           0        3.015104   -2.201458   -1.592463
     36          1           0        3.849093   -3.416544   -0.613365
     37          6           0        0.229914    1.602289    1.388334
     38          6           0       -0.600458    2.829188    1.101154
     39          6           0       -0.095083    4.012673    0.731216
     40          1           0        1.288963    1.880523    1.385328
     41          1           0       -0.012808    1.303946    2.416100
     42          1           0       -1.678034    2.725650    1.218188
     43          1           0       -0.747933    4.859827    0.542472
     44          1           0        0.971718    4.167942    0.599118
 ---------------------------------------------------------------------
 Rotational constants (GHZ):      0.4406703      0.3105593      0.2437844
 Standard basis: 6-31G(d,p) (6D, 7F)
 There are   404 symmetry adapted cartesian basis functions of A   symmetry.
 There are   404 symmetry adapted basis functions of A   symmetry.
   404 basis functions,   710 primitive gaussians,   404 cartesian basis functions
    74 alpha electrons       74 beta electrons
       nuclear repulsion energy      1640.9673510061 Hartrees.
 NAtoms=   44 NActive=   44 NUniq=   44 SFac= 1.00D+00 NAtFMM=   60 NAOKFM=F Big=F
 Integral buffers will be    131072 words long.
 Raffenetti 2 integral format.
 Two-electron integral symmetry is turned on.
 ------------------------------------------------------------------------------
 Polarizable Continuum Model (PCM)
 =================================
 Model                : PCM (using non-symmetric T matrix).
 Atomic radii         : UFF (Universal Force Field).
 Polarization charges : Total charges.
 Charge compensation  : None.
 Solution method      : On-the-fly selection.
 Cavity type          : Scaled VdW (van der Waals Surface) (Alpha=1.100).
 Cavity algorithm     : GePol (No added spheres)
                        Default sphere list used, NSphG=   44.
                        Lebedev-Laikov grids with approx.  5.0 points / Ang**2.
                        Smoothing algorithm: Karplus/York (Gamma=1.0000).
                        Polarization charges: spherical gaussians, with
                                              point-specific exponents (IZeta= 3).
                        Self-potential: point-specific (ISelfS= 7).
                        Self-field    : sphere-specific E.n sum rule (ISelfD= 2).
 1st derivatives      : Analytical E(r).r(x)/FMM algorithm (CHGder, D1EAlg=3).
                        Cavity 1st derivative terms included.
 Solvent              : Chloroform, Eps=   4.711300 Eps(inf)=   2.090627
 ------------------------------------------------------------------------------
 One-electron integrals computed using PRISM.
 NBasis=   404 RedAO= T EigKep=  1.98D-03  NBF=   404
 NBsUse=   404 1.00D-06 EigRej= -1.00D+00 NBFU=   404
 ExpMin= 7.78D-02 ExpMax= 1.61D+04 ExpMxC= 2.43D+03 IAcc=2 IRadAn=         4 AccDes= 0.00D+00
 Harris functional with IExCor=  402 and IRadAn=       4 diagonalized for initial guess.
 HarFok:  IExCor=  402 AccDes= 0.00D+00 IRadAn=         4 IDoV= 1 UseB2=F ITyADJ=14
 ICtDFT=  3500011 ScaDFX=  1.000000  1.000000  1.000000  1.000000
 FoFCou: FMM=F IPFlag=           0 FMFlag=      100000 FMFlg1=           0
         NFxFlg=           0 DoJE=T BraDBF=F KetDBF=T FulRan=T
         wScrn=  0.000000 ICntrl=     500 IOpCl=  0 I1Cent=   200000004 NGrid=           0
         NMat0=    1 NMatS0=      1 NMatT0=    0 NMatD0=    1 NMtDS0=    0 NMtDT0=    0
 Petite list used in FoFCou.
 Requested convergence on RMS density matrix=1.00D-08 within 128 cycles.
 Requested convergence on MAX density matrix=1.00D-06.
 Requested convergence on             energy=1.00D-06.
 No special actions if energy rises.
 Inv3:  Mode=1 IEnd=    25038963.
 Iteration    1 A*A^-1 deviation from unit magnitude is 1.83D-14 for   2888.
 Iteration    1 A*A^-1 deviation from orthogonality  is 4.08D-15 for   2853   1527.
 Iteration    1 A^-1*A deviation from unit magnitude is 1.83D-14 for   2888.
 Iteration    1 A^-1*A deviation from orthogonality  is 8.20D-12 for   2285   2278.
 Error on total polarization charges =  0.00917
 SCF Done:  E(RB3LYP) =  -1064.41702299     A.U. after   13 cycles
            NFock= 13  Conv=0.49D-08     -V/T= 2.0081

 **********************************************************************

            Population analysis using the SCF density.

 **********************************************************************

 Orbital symmetries:
       Occupied  (A) (A) (A) (A) (A) (A) (A) (A) (A) (A) (A) (A)
                 (A) (A) (A) (A) (A) (A) (A) (A) (A) (A) (A) (A)
                 (A) (A) (A) (A) (A) (A) (A) (A) (A) (A) (A) (A)
                 (A) (A) (A) (A) (A) (A) (A) (A) (A) (A) (A) (A)
                 (A) (A) (A) (A) (A) (A) (A) (A) (A) (A) (A) (A)
                 (A) (A) (A) (A) (A) (A) (A) (A) (A) (A) (A) (A)
                 (A) (A)
       Virtual   (A) (A) (A) (A) (A) (A) (A) (A) (A) (A) (A) (A)
                 (A) (A) (A) (A) (A) (A) (A) (A) (A) (A) (A) (A)
                 (A) (A) (A) (A) (A) (A) (A) (A) (A) (A) (A) (A)
                 (A) (A) (A) (A) (A) (A) (A) (A) (A) (A) (A) (A)
                 (A) (A) (A) (A) (A) (A) (A) (A) (A) (A) (A) (A)
                 (A) (A) (A) (A) (A) (A) (A) (A) (A) (A) (A) (A)
                 (A) (A) (A) (A) (A) (A) (A) (A) (A) (A) (A) (A)
                 (A) (A) (A) (A) (A) (A) (A) (A) (A) (A) (A) (A)
                 (A) (A) (A) (A) (A) (A) (A) (A) (A) (A) (A) (A)
                 (A) (A) (A) (A) (A) (A) (A) (A) (A) (A) (A) (A)
                 (A) (A) (A) (A) (A) (A) (A) (A) (A) (A) (A) (A)
                 (A) (A) (A) (A) (A) (A) (A) (A) (A) (A) (A) (A)
                 (A) (A) (A) (A) (A) (A) (A) (A) (A) (A) (A) (A)
                 (A) (A) (A) (A) (A) (A) (A) (A) (A) (A) (A) (A)
                 (A) (A) (A) (A) (A) (A) (A) (A) (A) (A) (A) (A)
                 (A) (A) (A) (A) (A) (A) (A) (A) (A) (A) (A) (A)
                 (A) (A) (A) (A) (A) (A) (A) (A) (A) (A) (A) (A)
                 (A) (A) (A) (A) (A) (A) (A) (A) (A) (A) (A) (A)
                 (A) (A) (A) (A) (A) (A) (A) (A) (A) (A) (A) (A)
                 (A) (A) (A) (A) (A) (A) (A) (A) (A) (A) (A) (A)
                 (A) (A) (A) (A) (A) (A) (A) (A) (A) (A) (A) (A)
                 (A) (A) (A) (A) (A) (A) (A) (A) (A) (A) (A) (A)
                 (A) (A) (A) (A) (A) (A) (A) (A) (A) (A) (A) (A)
                 (A) (A) (A) (A) (A) (A) (A) (A) (A) (A) (A) (A)
                 (A) (A) (A) (A) (A) (A) (A) (A) (A) (A) (A) (A)
                 (A) (A) (A) (A) (A) (A) (A) (A) (A) (A) (A) (A)
                 (A) (A) (A) (A) (A) (A) (A) (A) (A) (A) (A) (A)
                 (A) (A) (A) (A) (A) (A)
 The electronic state is 1-A.
 Alpha  occ. eigenvalues --  -66.13971 -19.19261 -19.14450 -19.13689 -10.32371
 Alpha  occ. eigenvalues --  -10.26672 -10.25660 -10.20161 -10.20075 -10.19188
 Alpha  occ. eigenvalues --  -10.19066 -10.18963 -10.18139 -10.17855 -10.17637
 Alpha  occ. eigenvalues --  -10.16040 -10.15810 -10.15654  -5.28135  -3.64192
 Alpha  occ. eigenvalues --   -3.63959  -3.63922  -1.09912  -1.01542  -1.00726
 Alpha  occ. eigenvalues --   -0.83075  -0.80557  -0.77592  -0.75170  -0.71495
 Alpha  occ. eigenvalues --   -0.70154  -0.69421  -0.67808  -0.67399  -0.64499
 Alpha  occ. eigenvalues --   -0.60737  -0.60057  -0.56298  -0.53694  -0.51517
 Alpha  occ. eigenvalues --   -0.50527  -0.48554  -0.47338  -0.46467  -0.45556
 Alpha  occ. eigenvalues --   -0.44257  -0.43322  -0.42723  -0.42353  -0.41586
 Alpha  occ. eigenvalues --   -0.41262  -0.40765  -0.40543  -0.39836  -0.39385
 Alpha  occ. eigenvalues --   -0.38962  -0.38654  -0.38073  -0.37872  -0.37140
 Alpha  occ. eigenvalues --   -0.36509  -0.36028  -0.35366  -0.35130  -0.34381
 Alpha  occ. eigenvalues --   -0.34050  -0.32514  -0.31746  -0.30650  -0.29446
 Alpha  occ. eigenvalues --   -0.28528  -0.27175  -0.26557  -0.25389
 Alpha virt. eigenvalues --   -0.00487   0.01613   0.06373   0.07004   0.08409
 Alpha virt. eigenvalues --    0.09416   0.09730   0.10658   0.11410   0.11472
 Alpha virt. eigenvalues --    0.12610   0.12838   0.13388   0.14084   0.14191
 Alpha virt. eigenvalues --    0.14640   0.14846   0.15581   0.16664   0.16868
 Alpha virt. eigenvalues --    0.17164   0.17800   0.18293   0.18633   0.18936
 Alpha virt. eigenvalues --    0.19161   0.20047   0.20435   0.20594   0.21045
 Alpha virt. eigenvalues --    0.21618   0.22269   0.22439   0.22566   0.24049
 Alpha virt. eigenvalues --    0.24776   0.24894   0.26437   0.27402   0.28657
 Alpha virt. eigenvalues --    0.29437   0.29971   0.31477   0.35409   0.36346
 Alpha virt. eigenvalues --    0.37741   0.38700   0.39049   0.40561   0.44439
 Alpha virt. eigenvalues --    0.46233   0.46835   0.48179   0.49894   0.50527
 Alpha virt. eigenvalues --    0.51774   0.52411   0.54023   0.54266   0.55327
 Alpha virt. eigenvalues --    0.57354   0.58137   0.59907   0.60163   0.60975
 Alpha virt. eigenvalues --    0.61678   0.62356   0.63571   0.63979   0.66068
 Alpha virt. eigenvalues --    0.66267   0.66491   0.67081   0.67821   0.68757
 Alpha virt. eigenvalues --    0.68882   0.70706   0.71870   0.72308   0.73090
 Alpha virt. eigenvalues --    0.73819   0.74791   0.75938   0.76837   0.77488
 Alpha virt. eigenvalues --    0.78824   0.79737   0.81412   0.82655   0.82853
 Alpha virt. eigenvalues --    0.83419   0.84165   0.84816   0.85601   0.86064
 Alpha virt. eigenvalues --    0.86809   0.87206   0.87617   0.88044   0.88758
 Alpha virt. eigenvalues --    0.89354   0.89619   0.90348   0.90918   0.91265
 Alpha virt. eigenvalues --    0.91417   0.91827   0.92665   0.93123   0.93633
 Alpha virt. eigenvalues --    0.94429   0.95442   0.96088   0.96381   0.97940
 Alpha virt. eigenvalues --    0.98544   0.99572   1.00342   1.01399   1.01859
 Alpha virt. eigenvalues --    1.02070   1.03938   1.04953   1.06817   1.08005
 Alpha virt. eigenvalues --    1.11880   1.12388   1.12831   1.16265   1.16810
 Alpha virt. eigenvalues --    1.18008   1.19643   1.20585   1.23557   1.24504
 Alpha virt. eigenvalues --    1.26818   1.28683   1.30652   1.30965   1.33287
 Alpha virt. eigenvalues --    1.36712   1.37225   1.40255   1.42175   1.43665
 Alpha virt. eigenvalues --    1.44430   1.45745   1.47092   1.47167   1.48715
 Alpha virt. eigenvalues --    1.49394   1.50011   1.50257   1.53306   1.56292
 Alpha virt. eigenvalues --    1.57870   1.60911   1.62799   1.63874   1.64689
 Alpha virt. eigenvalues --    1.66217   1.67271   1.68727   1.71103   1.73156
 Alpha virt. eigenvalues --    1.74411   1.75420   1.76572   1.79017   1.80583
 Alpha virt. eigenvalues --    1.82041   1.82686   1.84333   1.84762   1.86182
 Alpha virt. eigenvalues --    1.86787   1.87420   1.88174   1.89011   1.91022
 Alpha virt. eigenvalues --    1.91409   1.93910   1.94168   1.95539   1.97369
 Alpha virt. eigenvalues --    1.98036   1.99520   2.00026   2.02038   2.02232
 Alpha virt. eigenvalues --    2.03106   2.04414   2.04759   2.04819   2.05761
 Alpha virt. eigenvalues --    2.06178   2.06649   2.07913   2.08672   2.08744
 Alpha virt. eigenvalues --    2.09065   2.10433   2.11118   2.11330   2.12142
 Alpha virt. eigenvalues --    2.12410   2.12668   2.13206   2.13364   2.13821
 Alpha virt. eigenvalues --    2.15037   2.15491   2.16562   2.16910   2.17770
 Alpha virt. eigenvalues --    2.19129   2.20820   2.23358   2.25319   2.26740
 Alpha virt. eigenvalues --    2.27610   2.29494   2.29986   2.31578   2.33320
 Alpha virt. eigenvalues --    2.33662   2.34497   2.35276   2.36560   2.37265
 Alpha virt. eigenvalues --    2.37471   2.38007   2.38719   2.39380   2.40827
 Alpha virt. eigenvalues --    2.43744   2.44432   2.47374   2.48890   2.50035
 Alpha virt. eigenvalues --    2.51558   2.52850   2.55440   2.56198   2.58756
 Alpha virt. eigenvalues --    2.59610   2.60393   2.63432   2.63578   2.64426
 Alpha virt. eigenvalues --    2.65257   2.66587   2.68266   2.68823   2.69233
 Alpha virt. eigenvalues --    2.70801   2.71801   2.72986   2.74775   2.75817
 Alpha virt. eigenvalues --    2.77374   2.78087   2.79012   2.80716   2.81197
 Alpha virt. eigenvalues --    2.81590   2.82514   2.84474   2.84933   2.85414
 Alpha virt. eigenvalues --    2.85539   2.85796   2.87312   2.88472   2.90202
 Alpha virt. eigenvalues --    2.91023   2.91435   2.92623   2.94256   2.96150
 Alpha virt. eigenvalues --    2.96630   2.98581   3.03605   3.06558   3.11338
 Alpha virt. eigenvalues --    3.16515   3.19338   3.20434   3.21165   3.21186
 Alpha virt. eigenvalues --    3.21826   3.22613   3.25613   3.30843   3.33137
 Alpha virt. eigenvalues --    3.33411   3.37314   3.40485   3.43210   3.43506
 Alpha virt. eigenvalues --    3.44271   3.44756   3.44858   3.45177   3.45753
 Alpha virt. eigenvalues --    3.46109   3.46442   3.47756   3.48705   3.52559
 Alpha virt. eigenvalues --    3.55412   3.56963   3.67053   4.02268   4.13953
 Alpha virt. eigenvalues --    4.20169   4.25987   4.33028   4.38907   4.44915
 Alpha virt. eigenvalues --    4.45914   4.47954   4.52211   4.58473   4.59992
 Alpha virt. eigenvalues --    4.66571   4.67151   4.71472   4.78443   4.80890
          Condensed to atoms (all electrons):
               1          2          3          4          5          6
     1  C    4.804117   0.324149  -0.027588  -0.012924  -0.006119   0.386218
     2  C    0.324149   5.100202   0.336430  -0.050941  -0.017910  -0.050240
     3  C   -0.027588   0.336430   4.835519   0.294564  -0.012494  -0.011739
     4  C   -0.012924  -0.050941   0.294564   5.337223   0.287187   0.001261
     5  C   -0.006119  -0.017910  -0.012494   0.287187   4.367836  -0.002019
     6  H    0.386218  -0.050240  -0.011739   0.001261  -0.002019   0.640648
     7  H   -0.038745   0.377030  -0.041726  -0.007330   0.000599   0.006517
     8  H   -0.000208  -0.006353  -0.027724   0.362563  -0.026427   0.000037
     9  H    0.000185   0.005603  -0.029562   0.354742  -0.020771   0.000051
    10  O    0.170970  -0.029417   0.000824  -0.097796   0.252545  -0.041875
    11  O    0.001487  -0.000020   0.001378  -0.082162   0.578020   0.000182
    12  C    0.372476  -0.035674   0.005127  -0.000507   0.001199  -0.049576
    13  C   -0.039230  -0.009808  -0.000102  -0.000098   0.000245   0.005547
    14  C   -0.036428   0.348390  -0.031893   0.005339   0.000432  -0.004495
    15  O    0.002569  -0.041646   0.185817  -0.026089   0.001438  -0.000044
    16  Si   0.000541  -0.005516  -0.010710   0.002476  -0.000560  -0.000072
    17  C    0.000001  -0.000092  -0.002304  -0.000157   0.000109   0.000000
    18  C    0.000024  -0.001011  -0.000827  -0.002438  -0.000027  -0.000001
    19  C    0.000000  -0.000079   0.001001  -0.000061   0.000000   0.000000
    20  H   -0.000001   0.000099   0.000000   0.000041   0.000001   0.000000
    21  H   -0.000017  -0.001094   0.000391  -0.001142  -0.000030  -0.000001
    22  H    0.000006  -0.000665  -0.000405   0.000151   0.000004   0.000000
    23  H    0.000000   0.000001  -0.000012   0.000001   0.000000   0.000000
    24  H    0.000000  -0.000008  -0.000044   0.000003   0.000000   0.000000
    25  H    0.000000   0.000002  -0.000038  -0.000004   0.000000   0.000000
    26  H    0.000000   0.000001   0.000045   0.000028  -0.000001   0.000000
    27  H    0.000000   0.000000   0.000023  -0.000229  -0.000002   0.000000
    28  H    0.000000  -0.000017  -0.000165   0.000316   0.000005   0.000000
    29  H    0.003708  -0.025543  -0.007729   0.000208  -0.000018  -0.000063
    30  H   -0.004453  -0.028318   0.004225  -0.000121  -0.000014  -0.000172
    31  H   -0.005492  -0.034415  -0.006873   0.000056  -0.000013   0.006117
    32  H   -0.028079  -0.005351  -0.000021   0.000027  -0.000041  -0.000249
    33  H   -0.029253   0.005110  -0.000078   0.000013   0.000010  -0.005797
    34  H   -0.005094   0.001517  -0.000011  -0.000001   0.000012  -0.000066
    35  H   -0.007734  -0.000644  -0.000118   0.000158   0.000167   0.000303
    36  H    0.004424   0.000221  -0.000002   0.000001  -0.000005  -0.000145
    37  C   -0.002628  -0.056193   0.350279  -0.071743   0.002042   0.003745
    38  C    0.000051   0.004931  -0.037304  -0.008477  -0.000770   0.000001
    39  C   -0.000024  -0.000006  -0.002923  -0.000663   0.000688  -0.000003
    40  H    0.002274  -0.004647  -0.026626  -0.004191   0.003710   0.001350
    41  H   -0.000248  -0.007454  -0.028612   0.005858  -0.000120   0.000208
    42  H    0.000001   0.000020  -0.003617  -0.000432   0.000057   0.000001
    43  H    0.000000   0.000003  -0.000044  -0.000057  -0.000001   0.000000
    44  H   -0.000013  -0.000010   0.000022  -0.000092   0.000585   0.000014
               7          8          9         10         11         12
     1  C   -0.038745  -0.000208   0.000185   0.170970   0.001487   0.372476
     2  C    0.377030  -0.006353   0.005603  -0.029417  -0.000020  -0.035674
     3  C   -0.041726  -0.027724  -0.029562   0.000824   0.001378   0.005127
     4  C   -0.007330   0.362563   0.354742  -0.097796  -0.082162  -0.000507
     5  C    0.000599  -0.026427  -0.020771   0.252545   0.578020   0.001199
     6  H    0.006517   0.000037   0.000051  -0.041875   0.000182  -0.049576
     7  H    0.638173   0.003596   0.000013  -0.000106  -0.000006  -0.011736
     8  H    0.003596   0.561946  -0.028699   0.000810  -0.000039  -0.000083
     9  H    0.000013  -0.028699   0.558789   0.003252   0.001728   0.000007
    10  O   -0.000106   0.000810   0.003252   8.335266  -0.075281  -0.046290
    11  O   -0.000006  -0.000039   0.001728  -0.075281   8.073733  -0.000086
    12  C   -0.011736  -0.000083   0.000007  -0.046290  -0.000086   4.948933
    13  C    0.005571   0.000082   0.000001  -0.003649  -0.000002   0.361609
    14  C   -0.044136   0.000044  -0.000127   0.002390   0.000002  -0.003388
    15  O   -0.002530  -0.003561   0.000136  -0.000017  -0.000012  -0.000035
    16  Si  -0.001745   0.004916   0.000314  -0.000167  -0.000048  -0.000021
    17  C   -0.000035  -0.001564  -0.000680   0.000000   0.000000   0.000000
    18  C    0.002008  -0.000072   0.000125   0.000004   0.000000   0.000006
    19  C   -0.000016  -0.000001  -0.000005   0.000000   0.000000   0.000000
    20  H    0.000048  -0.000012   0.000000   0.000000   0.000000   0.000000
    21  H    0.001620   0.003029  -0.000007  -0.000002   0.000000  -0.000003
    22  H    0.000838  -0.000102   0.000000   0.000000   0.000000   0.000001
    23  H    0.000000   0.000001   0.000000   0.000000   0.000000   0.000000
    24  H   -0.000008   0.000000   0.000000   0.000000   0.000000   0.000000
    25  H    0.000000   0.000001  -0.000001   0.000000   0.000000   0.000000
    26  H    0.000002   0.000036   0.000042   0.000000   0.000000   0.000000
    27  H    0.000001   0.000050   0.000499   0.000000   0.000000   0.000000
    28  H   -0.000014   0.000833   0.000833   0.000000  -0.000002   0.000000
    29  H   -0.002467   0.000007  -0.000005  -0.000046   0.000000   0.000044
    30  H   -0.006124  -0.000005   0.000003  -0.000002   0.000000   0.001282
    31  H    0.005766   0.000002   0.000003   0.000015   0.000000  -0.000976
    32  H    0.000176   0.000000   0.000000   0.002899   0.000001   0.376988
    33  H    0.000058   0.000001  -0.000001   0.000769  -0.000008   0.379509
    34  H    0.002156  -0.000012   0.000000  -0.000082   0.000000  -0.036352
    35  H    0.000740   0.000081  -0.000001   0.008342  -0.000020  -0.037196
    36  H   -0.000186   0.000000   0.000000   0.000076   0.000000  -0.028378
    37  C    0.005648   0.005593  -0.009757  -0.002356   0.000383  -0.000041
    38  C   -0.000116   0.000189   0.011095   0.000051  -0.000264  -0.000001
    39  C    0.000000   0.000027   0.004275  -0.000004  -0.000099   0.000000
    40  H   -0.000009  -0.000019   0.000237   0.000716  -0.000344   0.000113
    41  H   -0.000006  -0.000129   0.000166   0.000033   0.000001  -0.000022
    42  H    0.000001  -0.000006   0.000346  -0.000001   0.000000   0.000000
    43  H    0.000000   0.000000   0.000065   0.000000   0.000004   0.000000
    44  H    0.000000   0.000004   0.000026  -0.000024   0.000497   0.000000
              13         14         15         16         17         18
     1  C   -0.039230  -0.036428   0.002569   0.000541   0.000001   0.000024
     2  C   -0.009808   0.348390  -0.041646  -0.005516  -0.000092  -0.001011
     3  C   -0.000102  -0.031893   0.185817  -0.010710  -0.002304  -0.000827
     4  C   -0.000098   0.005339  -0.026089   0.002476  -0.000157  -0.002438
     5  C    0.000245   0.000432   0.001438  -0.000560   0.000109  -0.000027
     6  H    0.005547  -0.004495  -0.000044  -0.000072   0.000000  -0.000001
     7  H    0.005571  -0.044136  -0.002530  -0.001745  -0.000035   0.002008
     8  H    0.000082   0.000044  -0.003561   0.004916  -0.001564  -0.000072
     9  H    0.000001  -0.000127   0.000136   0.000314  -0.000680   0.000125
    10  O   -0.003649   0.002390  -0.000017  -0.000167   0.000000   0.000004
    11  O   -0.000002   0.000002  -0.000012  -0.000048   0.000000   0.000000
    12  C    0.361609  -0.003388  -0.000035  -0.000021   0.000000   0.000006
    13  C    4.931217  -0.000666  -0.000001  -0.000062   0.000000  -0.000067
    14  C   -0.000666   4.968976  -0.005663   0.001066   0.000002  -0.000099
    15  O   -0.000001  -0.005663   8.304387   0.330734  -0.016855  -0.015311
    16  Si  -0.000062   0.001066   0.330734  11.847960   0.370933   0.367281
    17  C    0.000000   0.000002  -0.016855   0.370933   5.141331  -0.034870
    18  C   -0.000067  -0.000099  -0.015311   0.367281  -0.034870   5.149831
    19  C    0.000000  -0.000026  -0.018903   0.378919  -0.032965  -0.031745
    20  H    0.000000  -0.000004   0.000528  -0.014005  -0.000213   0.371041
    21  H    0.000030   0.000003  -0.000468  -0.028858  -0.001487   0.374436
    22  H   -0.000021   0.000470  -0.000407  -0.027324   0.001331   0.377997
    23  H    0.000000   0.000000   0.000479  -0.015001  -0.000573  -0.000685
    24  H    0.000000  -0.000015  -0.000387  -0.025356   0.001382  -0.001254
    25  H    0.000000  -0.000001  -0.000412  -0.024537  -0.001259   0.001389
    26  H    0.000000   0.000000   0.000562  -0.013533   0.369527  -0.000081
    27  H    0.000000   0.000000  -0.000581  -0.025708   0.379007   0.001286
    28  H    0.000000   0.000000  -0.000423  -0.026710   0.375300  -0.001625
    29  H   -0.000014   0.380656   0.007357   0.003368   0.000009  -0.000299
    30  H    0.000356   0.378919   0.000167  -0.000187   0.000000   0.000000
    31  H    0.000081   0.382800  -0.000036  -0.000274   0.000000   0.000006
    32  H   -0.036655   0.001928   0.000000  -0.000004   0.000000   0.000000
    33  H   -0.042282   0.000007   0.000000   0.000002   0.000000   0.000000
    34  H    0.386329   0.000336   0.000004  -0.000033   0.000000   0.000052
    35  H    0.389690   0.000066   0.000000  -0.000016   0.000000  -0.000003
    36  H    0.382746  -0.000013   0.000000   0.000002   0.000000   0.000001
    37  C    0.000004  -0.009554  -0.064071  -0.002256   0.000035  -0.000057
    38  C    0.000000   0.000083   0.001441   0.001223  -0.000154   0.000004
    39  C    0.000000   0.000000   0.000365   0.000121  -0.000009   0.000000
    40  H   -0.000001   0.000173   0.003505   0.000163   0.000000   0.000002
    41  H    0.000000   0.002087  -0.000434   0.000502   0.000002  -0.000001
    42  H    0.000000  -0.000002   0.004393   0.001823  -0.000060   0.000003
    43  H    0.000000   0.000000   0.000003   0.000008   0.000000   0.000000
    44  H    0.000000   0.000000  -0.000001   0.000011   0.000000   0.000000
              19         20         21         22         23         24
     1  C    0.000000  -0.000001  -0.000017   0.000006   0.000000   0.000000
     2  C   -0.000079   0.000099  -0.001094  -0.000665   0.000001  -0.000008
     3  C    0.001001   0.000000   0.000391  -0.000405  -0.000012  -0.000044
     4  C   -0.000061   0.000041  -0.001142   0.000151   0.000001   0.000003
     5  C    0.000000   0.000001  -0.000030   0.000004   0.000000   0.000000
     6  H    0.000000   0.000000  -0.000001   0.000000   0.000000   0.000000
     7  H   -0.000016   0.000048   0.001620   0.000838   0.000000  -0.000008
     8  H   -0.000001  -0.000012   0.003029  -0.000102   0.000001   0.000000
     9  H   -0.000005   0.000000  -0.000007   0.000000   0.000000   0.000000
    10  O    0.000000   0.000000  -0.000002   0.000000   0.000000   0.000000
    11  O    0.000000   0.000000   0.000000   0.000000   0.000000   0.000000
    12  C    0.000000   0.000000  -0.000003   0.000001   0.000000   0.000000
    13  C    0.000000   0.000000   0.000030  -0.000021   0.000000   0.000000
    14  C   -0.000026  -0.000004   0.000003   0.000470   0.000000  -0.000015
    15  O   -0.018903   0.000528  -0.000468  -0.000407   0.000479  -0.000387
    16  Si   0.378919  -0.014005  -0.028858  -0.027324  -0.015001  -0.025356
    17  C   -0.032965  -0.000213  -0.001487   0.001331  -0.000573   0.001382
    18  C   -0.031745   0.371041   0.374436   0.377997  -0.000685  -0.001254
    19  C    5.117498  -0.001001   0.001480  -0.001117   0.373753   0.375431
    20  H   -0.001001   0.564553  -0.022476  -0.022703   0.000120  -0.000032
    21  H    0.001480  -0.022476   0.581457  -0.023758   0.000000   0.000003
    22  H   -0.001117  -0.022703  -0.023758   0.574683  -0.000046   0.000631
    23  H    0.373753   0.000120   0.000000  -0.000046   0.566638  -0.023506
    24  H    0.375431  -0.000032   0.000003   0.000631  -0.023506   0.578196
    25  H    0.376307   0.000012  -0.000028   0.000003  -0.023527  -0.022047
    26  H   -0.000951   0.000018  -0.000024   0.000004   0.000043   0.000018
    27  H   -0.000993   0.000014   0.000005  -0.000024  -0.000022   0.000002
    28  H    0.001438  -0.000025   0.000619   0.000007   0.000000  -0.000028
    29  H   -0.000145   0.000002   0.000003   0.000237   0.000001   0.000250
    30  H    0.000000   0.000000  -0.000001   0.000073   0.000000   0.000000
    31  H    0.000001   0.000000   0.000000  -0.000006   0.000000  -0.000001
    32  H    0.000000   0.000000   0.000000   0.000000   0.000000   0.000000
    33  H    0.000000   0.000000   0.000000   0.000000   0.000000   0.000000
    34  H    0.000000  -0.000001   0.000185   0.000237   0.000000   0.000000
    35  H    0.000000   0.000000   0.000036  -0.000001   0.000000   0.000000
    36  H    0.000000   0.000000  -0.000001   0.000000   0.000000   0.000000
    37  C   -0.000008   0.000001  -0.000006  -0.000006   0.000000  -0.000002
    38  C   -0.000015   0.000000   0.000000   0.000000   0.000000   0.000000
    39  C    0.000000   0.000000   0.000000   0.000000   0.000000   0.000000
    40  H    0.000000   0.000000   0.000000   0.000000   0.000000   0.000000
    41  H   -0.000010   0.000000   0.000000   0.000000   0.000000   0.000000
    42  H   -0.000035   0.000000   0.000000   0.000000   0.000000  -0.000001
    43  H    0.000000   0.000000   0.000000   0.000000   0.000000   0.000000
    44  H    0.000000   0.000000   0.000000   0.000000   0.000000   0.000000
              25         26         27         28         29         30
     1  C    0.000000   0.000000   0.000000   0.000000   0.003708  -0.004453
     2  C    0.000002   0.000001   0.000000  -0.000017  -0.025543  -0.028318
     3  C   -0.000038   0.000045   0.000023  -0.000165  -0.007729   0.004225
     4  C   -0.000004   0.000028  -0.000229   0.000316   0.000208  -0.000121
     5  C    0.000000  -0.000001  -0.000002   0.000005  -0.000018  -0.000014
     6  H    0.000000   0.000000   0.000000   0.000000  -0.000063  -0.000172
     7  H    0.000000   0.000002   0.000001  -0.000014  -0.002467  -0.006124
     8  H    0.000001   0.000036   0.000050   0.000833   0.000007  -0.000005
     9  H   -0.000001   0.000042   0.000499   0.000833  -0.000005   0.000003
    10  O    0.000000   0.000000   0.000000   0.000000  -0.000046  -0.000002
    11  O    0.000000   0.000000   0.000000  -0.000002   0.000000   0.000000
    12  C    0.000000   0.000000   0.000000   0.000000   0.000044   0.001282
    13  C    0.000000   0.000000   0.000000   0.000000  -0.000014   0.000356
    14  C   -0.000001   0.000000   0.000000   0.000000   0.380656   0.378919
    15  O   -0.000412   0.000562  -0.000581  -0.000423   0.007357   0.000167
    16  Si  -0.024537  -0.013533  -0.025708  -0.026710   0.003368  -0.000187
    17  C   -0.001259   0.369527   0.379007   0.375300   0.000009   0.000000
    18  C    0.001389  -0.000081   0.001286  -0.001625  -0.000299   0.000000
    19  C    0.376307  -0.000951  -0.000993   0.001438  -0.000145   0.000000
    20  H    0.000012   0.000018   0.000014  -0.000025   0.000002   0.000000
    21  H   -0.000028  -0.000024   0.000005   0.000619   0.000003  -0.000001
    22  H    0.000003   0.000004  -0.000024   0.000007   0.000237   0.000073
    23  H   -0.023527   0.000043  -0.000022   0.000000   0.000001   0.000000
    24  H   -0.022047   0.000018   0.000002  -0.000028   0.000250   0.000000
    25  H    0.574313  -0.000054   0.000539   0.000007  -0.000003   0.000000
    26  H   -0.000054   0.570993  -0.023243  -0.023456   0.000000   0.000000
    27  H    0.000539  -0.023243   0.571393  -0.022778   0.000000   0.000000
    28  H    0.000007  -0.023456  -0.022778   0.581792   0.000000   0.000000
    29  H   -0.000003   0.000000   0.000000   0.000000   0.565077  -0.029348
    30  H    0.000000   0.000000   0.000000   0.000000  -0.029348   0.600497
    31  H    0.000000   0.000000   0.000000   0.000000  -0.027895  -0.031451
    32  H    0.000000   0.000000   0.000000   0.000000  -0.000005   0.001443
    33  H    0.000000   0.000000   0.000000   0.000000   0.000001  -0.000029
    34  H    0.000000   0.000000   0.000000   0.000000  -0.000015   0.000776
    35  H    0.000000   0.000000   0.000000   0.000000   0.000002  -0.000022
    36  H    0.000000   0.000000   0.000000   0.000000   0.000000  -0.000039
    37  C    0.000006   0.000001   0.000010   0.000010  -0.000244   0.000079
    38  C   -0.000005   0.000002   0.000100  -0.000037  -0.000041  -0.000001
    39  C    0.000000   0.000000   0.000008  -0.000007   0.000000   0.000000
    40  H    0.000000   0.000000   0.000000   0.000000   0.000033  -0.000017
    41  H   -0.000001   0.000000   0.000000  -0.000001   0.000791  -0.000058
    42  H    0.000013   0.000000   0.000271  -0.000012   0.000000   0.000000
    43  H    0.000000   0.000000  -0.000001   0.000000   0.000000   0.000000
    44  H    0.000000   0.000000   0.000000   0.000000   0.000000   0.000000
              31         32         33         34         35         36
     1  C   -0.005492  -0.028079  -0.029253  -0.005094  -0.007734   0.004424
     2  C   -0.034415  -0.005351   0.005110   0.001517  -0.000644   0.000221
     3  C   -0.006873  -0.000021  -0.000078  -0.000011  -0.000118  -0.000002
     4  C    0.000056   0.000027   0.000013  -0.000001   0.000158   0.000001
     5  C   -0.000013  -0.000041   0.000010   0.000012   0.000167  -0.000005
     6  H    0.006117  -0.000249  -0.005797  -0.000066   0.000303  -0.000145
     7  H    0.005766   0.000176   0.000058   0.002156   0.000740  -0.000186
     8  H    0.000002   0.000000   0.000001  -0.000012   0.000081   0.000000
     9  H    0.000003   0.000000  -0.000001   0.000000  -0.000001   0.000000
    10  O    0.000015   0.002899   0.000769  -0.000082   0.008342   0.000076
    11  O    0.000000   0.000001  -0.000008   0.000000  -0.000020   0.000000
    12  C   -0.000976   0.376988   0.379509  -0.036352  -0.037196  -0.028378
    13  C    0.000081  -0.036655  -0.042282   0.386329   0.389690   0.382746
    14  C    0.382800   0.001928   0.000007   0.000336   0.000066  -0.000013
[...]
    14  C   -0.000054  -0.000002  -0.000004   0.000271   0.000001  -0.000028
    15  O   -0.024863   0.000528  -0.000533  -0.000496   0.000679  -0.000613
    16  Si   0.381682  -0.013802  -0.026622  -0.024958  -0.015190  -0.024138
    17  C   -0.029095  -0.000223  -0.001160   0.001205  -0.000230   0.001181
    18  C   -0.028071   0.368678   0.376460   0.377639  -0.000398  -0.001286
    19  C    5.112772  -0.000701   0.001208  -0.001101   0.368488   0.377206
    20  H   -0.000701   0.569152  -0.023479  -0.023528   0.000084  -0.000021
    21  H    0.001208  -0.023479   0.575713  -0.023713  -0.000003   0.000006
    22  H   -0.001101  -0.023528  -0.023713   0.572930  -0.000044   0.000518
    23  H    0.368488   0.000084  -0.000003  -0.000044   0.576063  -0.024036
    24  H    0.377206  -0.000021   0.000006   0.000518  -0.024036   0.572954
    25  H    0.377393   0.000008  -0.000021  -0.000001  -0.024063  -0.022477
    26  H   -0.000598   0.000050  -0.000033   0.000003   0.000010   0.000008
    27  H   -0.001053   0.000009   0.000002  -0.000021  -0.000038   0.000000
    28  H    0.001192  -0.000028   0.000441   0.000004   0.000002  -0.000021
    29  H   -0.000117   0.000002   0.000003   0.000080   0.000002   0.000489
    30  H    0.000000   0.000000   0.000000   0.000049   0.000000  -0.000001
    31  H    0.000002   0.000000   0.000000  -0.000002   0.000000  -0.000001
    32  H    0.000000   0.000000   0.000000   0.000000   0.000000   0.000000
    33  H    0.000000   0.000000   0.000000   0.000000   0.000000   0.000000
    34  H    0.000000  -0.000001   0.000064   0.000142   0.000000   0.000000
    35  H    0.000000   0.000000   0.000012  -0.000001   0.000000   0.000000
    36  H    0.000000   0.000000   0.000000   0.000000   0.000000   0.000000
    37  C   -0.000012   0.000001  -0.000004  -0.000004   0.000000  -0.000002
    38  C   -0.000039   0.000000   0.000000   0.000000   0.000000   0.000001
    39  C    0.000000   0.000000   0.000000   0.000000   0.000000   0.000000
    40  H    0.000000   0.000000   0.000000   0.000000   0.000000   0.000000
    41  H   -0.000011   0.000000   0.000000   0.000000   0.000000   0.000000
    42  H   -0.000066   0.000000   0.000000   0.000000   0.000000  -0.000001
    43  H    0.000000   0.000000   0.000000   0.000000   0.000000   0.000000
    44  H    0.000000   0.000000   0.000000   0.000000   0.000000   0.000000
              25         26         27         28         29         30
     1  C    0.000000   0.000000   0.000000   0.000000   0.004018  -0.003899
     2  C    0.000003   0.000001  -0.000001  -0.000009  -0.029352  -0.026872
     3  C   -0.000045   0.000021  -0.000025  -0.000062  -0.008727   0.003960
     4  C   -0.000006   0.000026  -0.000114   0.000388   0.000295  -0.000127
     5  C    0.000000   0.000000   0.000000  -0.000013  -0.000022  -0.000011
     6  H    0.000000   0.000000   0.000000   0.000000  -0.000045  -0.000172
     7  H    0.000000   0.000001   0.000001  -0.000008  -0.001643  -0.006742
     8  H    0.000001   0.000030   0.000058   0.000527   0.000008  -0.000004
     9  H    0.000000   0.000024   0.000268   0.000630  -0.000007   0.000003
    10  O    0.000000   0.000000   0.000000   0.000000  -0.000048  -0.000013
    11  O    0.000000   0.000000   0.000000   0.000000   0.000000   0.000000
    12  C    0.000000   0.000000   0.000000   0.000000   0.000031   0.001226
    13  C    0.000000   0.000000   0.000000   0.000000  -0.000012   0.000392
    14  C    0.000000   0.000000   0.000000   0.000000   0.379902   0.379794
    15  O   -0.000546   0.000568  -0.000669  -0.000486   0.009796   0.000116
    16  Si  -0.022960  -0.013994  -0.025031  -0.023485   0.003086  -0.000120
    17  C   -0.001243   0.367736   0.378962   0.376769   0.000011   0.000000
    18  C    0.001189  -0.000113   0.001183  -0.001321  -0.000253  -0.000004
    19  C    0.377393  -0.000598  -0.001053   0.001192  -0.000117   0.000000
    20  H    0.000008   0.000050   0.000009  -0.000028   0.000002   0.000000
    21  H   -0.000021  -0.000033   0.000002   0.000441   0.000003   0.000000
    22  H   -0.000001   0.000003  -0.000021   0.000004   0.000080   0.000049
    23  H   -0.024063   0.000010  -0.000038   0.000002   0.000002   0.000000
    24  H   -0.022477   0.000008   0.000000  -0.000021   0.000489  -0.000001
    25  H    0.569964  -0.000028   0.000440   0.000006  -0.000007   0.000000
    26  H   -0.000028   0.574386  -0.023852  -0.023903   0.000000   0.000000
    27  H    0.000440  -0.023852   0.571091  -0.023285   0.000000   0.000000
    28  H    0.000006  -0.023903  -0.023285   0.573195   0.000000   0.000000
    29  H   -0.000007   0.000000   0.000000   0.000000   0.565432  -0.027796
    30  H    0.000000   0.000000   0.000000   0.000000  -0.027796   0.596104
    31  H    0.000000   0.000000   0.000000   0.000000  -0.028120  -0.031900
    32  H    0.000000   0.000000   0.000000   0.000000   0.000002   0.000931
    33  H    0.000000   0.000000   0.000000   0.000000   0.000001  -0.000013
    34  H    0.000000   0.000000   0.000000   0.000000  -0.000013   0.000866
    35  H    0.000000   0.000000   0.000000   0.000000   0.000002  -0.000024
    36  H    0.000000   0.000000   0.000000   0.000000   0.000000  -0.000042
    37  C    0.000009   0.000000   0.000011   0.000008  -0.000520   0.000130
    38  C   -0.000016   0.000003   0.000151  -0.000032  -0.000060  -0.000001
    39  C    0.000000   0.000000   0.000012  -0.000007   0.000000   0.000000
    40  H    0.000000   0.000000   0.000000   0.000000   0.000045  -0.000014
    41  H   -0.000002   0.000000   0.000001   0.000000   0.001156  -0.000098
    42  H    0.000101   0.000001   0.000419  -0.000011   0.000000   0.000000
    43  H    0.000000   0.000000  -0.000001   0.000000   0.000000   0.000000
    44  H    0.000000   0.000000   0.000000   0.000000   0.000000   0.000000
              31         32         33         34         35         36
     1  C   -0.006048  -0.030548  -0.030751  -0.004985  -0.007206   0.004184
     2  C   -0.034365  -0.005713   0.005247   0.001679  -0.000628   0.000210
     3  C   -0.006004  -0.000052  -0.000084  -0.000009  -0.000119  -0.000003
     4  C    0.000018   0.000035   0.000013  -0.000007   0.000199   0.000001
     5  C   -0.000008  -0.000059   0.000028   0.000022   0.000504  -0.000009
     6  H    0.006723  -0.000333  -0.005653  -0.000054   0.000254  -0.000131
     7  H    0.005484   0.000226   0.000059   0.002158   0.000745  -0.000166
     8  H    0.000002  -0.000001   0.000000  -0.000008   0.000016   0.000000
     9  H    0.000004   0.000000  -0.000001   0.000000  -0.000001   0.000000
    10  O    0.000029   0.003314   0.000496  -0.000068   0.008080   0.000080
    11  O    0.000000   0.000001  -0.000010   0.000000  -0.000056   0.000000
    12  C   -0.001213   0.373318   0.379646  -0.034472  -0.037475  -0.027568
    13  C    0.000097  -0.035210  -0.039100   0.386448   0.388775   0.383092
    14  C    0.382870   0.002601  -0.000034   0.000227   0.000076  -0.000011
    15  O    0.000045   0.000000   0.000000   0.000004   0.000000   0.000000
    16  Si  -0.000222  -0.000003   0.000002  -0.000017  -0.000010   0.000001
    17  C    0.000000   0.000000   0.000000   0.000000   0.000000   0.000000
    18  C    0.000003   0.000000   0.000000   0.000018   0.000000   0.000000
    19  C    0.000002   0.000000   0.000000   0.000000   0.000000   0.000000
    20  H    0.000000   0.000000   0.000000  -0.000001   0.000000   0.000000
    21  H    0.000000   0.000000   0.000000   0.000064   0.000012   0.000000
    22  H   -0.000002   0.000000   0.000000   0.000142  -0.000001   0.000000
    23  H    0.000000   0.000000   0.000000   0.000000   0.000000   0.000000
    24  H   -0.000001   0.000000   0.000000   0.000000   0.000000   0.000000
    25  H    0.000000   0.000000   0.000000   0.000000   0.000000   0.000000
    26  H    0.000000   0.000000   0.000000   0.000000   0.000000   0.000000
    27  H    0.000000   0.000000   0.000000   0.000000   0.000000   0.000000
    28  H    0.000000   0.000000   0.000000   0.000000   0.000000   0.000000
    29  H   -0.028120   0.000002   0.000001  -0.000013   0.000002   0.000000
    30  H   -0.031900   0.000931  -0.000013   0.000866  -0.000024  -0.000042
    31  H    0.596011   0.000563  -0.000040  -0.000022  -0.000001   0.000002
    32  H    0.000563   0.614480  -0.032353  -0.005129   0.005280  -0.002373
    33  H   -0.000040  -0.032353   0.609218   0.005030  -0.003387  -0.004360
    34  H   -0.000022  -0.005129   0.005030   0.600261  -0.032465  -0.030339
    35  H   -0.000001   0.005280  -0.003387  -0.032465   0.587349  -0.029889
    36  H    0.000002  -0.002373  -0.004360  -0.030339  -0.029889   0.595667
    37  C    0.001934  -0.000006  -0.000001  -0.000002   0.000001   0.000000
    38  C   -0.000042   0.000000   0.000000   0.000000   0.000000   0.000000
    39  C    0.000000   0.000000   0.000000   0.000000   0.000000   0.000000
    40  H    0.000032  -0.000001   0.000002   0.000000   0.000000   0.000000
    41  H    0.002189  -0.000001   0.000001   0.000000   0.000000   0.000000
    42  H    0.000003   0.000000   0.000000   0.000000   0.000000   0.000000
    43  H    0.000000   0.000000   0.000000   0.000000   0.000000   0.000000
    44  H    0.000000   0.000000   0.000000   0.000000   0.000000   0.000000
              37         38         39         40         41         42
     1  C   -0.001788   0.000015  -0.000019   0.001900  -0.000497   0.000001
     2  C   -0.056970   0.005029  -0.000032  -0.004175  -0.009085   0.000040
     3  C    0.348377  -0.036081  -0.002028  -0.026035  -0.032267  -0.004914
     4  C   -0.071157  -0.009622  -0.000663  -0.004689   0.006317  -0.000306
     5  C    0.001791  -0.000266   0.000242   0.002397  -0.000097   0.000027
     6  H    0.004860  -0.000009   0.000001   0.000183   0.000223   0.000001
     7  H    0.005917  -0.000121   0.000000  -0.000059   0.000013   0.000000
     8  H    0.005560   0.000142   0.000006   0.000043  -0.000165  -0.000001
     9  H   -0.010069   0.011763   0.004524   0.000181   0.000222   0.000267
    10  O   -0.002547   0.000029  -0.000005   0.001876   0.000052   0.000000
    11  O    0.000124  -0.000054  -0.000022  -0.000263   0.000001   0.000000
    12  C   -0.000093  -0.000001   0.000000   0.000160  -0.000023   0.000000
    13  C    0.000004   0.000000   0.000000  -0.000002   0.000000   0.000000
    14  C   -0.009809   0.000062   0.000002   0.000131   0.003220  -0.000004
    15  O   -0.066210   0.001139   0.000474   0.003534  -0.000294   0.005137
    16  Si  -0.001892   0.001254   0.000135   0.000120   0.000453   0.002137
    17  C    0.000035  -0.000186  -0.000013   0.000000   0.000001  -0.000079
    18  C   -0.000061   0.000004   0.000000   0.000001   0.000000   0.000005
    19  C   -0.000012  -0.000039   0.000000   0.000000  -0.000011  -0.000066
    20  H    0.000001   0.000000   0.000000   0.000000   0.000000   0.000000
    21  H   -0.000004   0.000000   0.000000   0.000000   0.000000   0.000000
    22  H   -0.000004   0.000000   0.000000   0.000000   0.000000   0.000000
    23  H    0.000000   0.000000   0.000000   0.000000   0.000000   0.000000
    24  H   -0.000002   0.000001   0.000000   0.000000   0.000000  -0.000001
    25  H    0.000009  -0.000016   0.000000   0.000000  -0.000002   0.000101
    26  H    0.000000   0.000003   0.000000   0.000000   0.000000   0.000001
    27  H    0.000011   0.000151   0.000012   0.000000   0.000001   0.000419
    28  H    0.000008  -0.000032  -0.000007   0.000000   0.000000  -0.000011
    29  H   -0.000520  -0.000060   0.000000   0.000045   0.001156   0.000000
    30  H    0.000130  -0.000001   0.000000  -0.000014  -0.000098   0.000000
    31  H    0.001934  -0.000042   0.000000   0.000032   0.002189   0.000003
    32  H   -0.000006   0.000000   0.000000  -0.000001  -0.000001   0.000000
    33  H   -0.000001   0.000000   0.000000   0.000002   0.000001   0.000000
    34  H   -0.000002   0.000000   0.000000   0.000000   0.000000   0.000000
    35  H    0.000001   0.000000   0.000000   0.000000   0.000000   0.000000
    36  H    0.000000   0.000000   0.000000   0.000000   0.000000   0.000000
    37  C    5.061652   0.386609  -0.041048   0.362953   0.367883  -0.049523
    38  C    0.386609   4.764423   0.655252  -0.038829  -0.033033   0.385514
    39  C   -0.041048   0.655252   4.934299  -0.005969   0.001030  -0.045788
    40  H    0.362953  -0.038829  -0.005969   0.619923  -0.031074   0.005184
    41  H    0.367883  -0.033033   0.001030  -0.031074   0.604827  -0.002159
    42  H   -0.049523   0.385514  -0.045788   0.005184  -0.002159   0.600191
    43  H    0.004684  -0.025907   0.376562   0.000092  -0.000214  -0.007947
    44  H   -0.012110  -0.034114   0.381647   0.006259   0.000184   0.005609
              43         44
     1  C    0.000000  -0.000006
     2  C    0.000003  -0.000010
     3  C   -0.000046   0.000058
     4  C   -0.000049  -0.000019
     5  C   -0.000003   0.000172
     6  H    0.000000   0.000004
     7  H    0.000000   0.000000
     8  H    0.000000   0.000001
     9  H    0.000064   0.000028
    10  O    0.000000  -0.000008
    11  O    0.000000   0.000023
    12  C    0.000000   0.000000
    13  C    0.000000   0.000000
    14  C    0.000000   0.000000
    15  O    0.000003  -0.000002
    16  Si   0.000013   0.000011
    17  C    0.000000   0.000000
    18  C    0.000000   0.000000
    19  C    0.000000   0.000000
    20  H    0.000000   0.000000
    21  H    0.000000   0.000000
    22  H    0.000000   0.000000
    23  H    0.000000   0.000000
    24  H    0.000000   0.000000
    25  H    0.000000   0.000000
    26  H    0.000000   0.000000
    27  H   -0.000001   0.000000
    28  H    0.000000   0.000000
    29  H    0.000000   0.000000
    30  H    0.000000   0.000000
    31  H    0.000000   0.000000
    32  H    0.000000   0.000000
    33  H    0.000000   0.000000
    34  H    0.000000   0.000000
    35  H    0.000000   0.000000
    36  H    0.000000   0.000000
    37  C    0.004684  -0.012110
    38  C   -0.025907  -0.034114
    39  C    0.376562   0.381647
    40  H    0.000092   0.006259
    41  H   -0.000214   0.000184
    42  H   -0.007947   0.005609
    43  H    0.591351  -0.043506
    44  H   -0.043506   0.592350
 Mulliken charges:
               1
     1  C    0.171129
     2  C   -0.094456
     3  C    0.310990
     4  C   -0.298575
     5  C    0.589817
     6  H    0.113882
     7  H    0.104555
     8  H    0.150231
     9  H    0.147771
    10  O   -0.486688
    11  O   -0.499539
    12  C   -0.191487
    13  C   -0.332201
    14  C   -0.340912
    15  O   -0.654036
    16  Si   0.917626
    17  C   -0.549424
    18  C   -0.558352
    19  C   -0.535014
    20  H    0.123197
    21  H    0.119174
    22  H    0.120796
    23  H    0.118685
    24  H    0.120329
    25  H    0.122302
    26  H    0.119655
    27  H    0.121483
    28  H    0.119509
    29  H    0.132379
    30  H    0.114283
    31  H    0.111976
    32  H    0.111031
    33  H    0.116044
    34  H    0.110673
    35  H    0.119970
    36  H    0.111653
    37  C   -0.228716
    38  C   -0.032977
    39  C   -0.258595
    40  H    0.106093
    41  H    0.121248
    42  H    0.106161
    43  H    0.104901
    44  H    0.103432
 Sum of Mulliken charges =   0.00000
 Mulliken charges with hydrogens summed into heavy atoms:
               1
     1  C    0.285010
     2  C    0.010099
     3  C    0.310990
     4  C   -0.000574
     5  C    0.589817
    10  O   -0.486688
    11  O   -0.499539
    12  C    0.035588
    13  C    0.010094
    14  C    0.017726
    15  O   -0.654036
    16  Si   0.917626
    17  C   -0.188778
    18  C   -0.195185
    19  C   -0.173698
    37  C   -0.001375
    38  C    0.073184
    39  C   -0.050262
 Electronic spatial extent (au):  <R**2>=           5319.4960
 Charge=              0.0000 electrons
 Dipole moment (field-independent basis, Debye):
    X=             -2.0634    Y=             -3.6213    Z=              3.1002  Tot=              5.1945
 Quadrupole moment (field-independent basis, Debye-Ang):
   XX=           -118.4773   YY=           -119.0802   ZZ=           -125.0311
   XY=             -6.7225   XZ=             12.7929   YZ=              6.6943
 Traceless Quadrupole moment (field-independent basis, Debye-Ang):
   XX=              2.3856   YY=              1.7826   ZZ=             -4.1682
   XY=             -6.7225   XZ=             12.7929   YZ=              6.6943
 Octapole moment (field-independent basis, Debye-Ang**2):
  XXX=            -10.7835  YYY=             -0.3965  ZZZ=             12.8709  XYY=             -7.5209
  XXY=            -23.0340  XXZ=             19.2496  XZZ=            -10.9056  YZZ=            -23.1698
  YYZ=             10.5615  XYZ=             12.8234
 Hexadecapole moment (field-independent basis, Debye-Ang**3):
 XXXX=          -3644.3711 YYYY=          -2240.7405 ZZZZ=          -1214.6999 XXXY=            -37.4388
 XXXZ=             62.1023 YYYX=            -17.0034 YYYZ=            -14.6110 ZZZX=             29.1921
 ZZZY=             18.9005 XXYY=           -974.1160 XXZZ=           -850.8126 YYZZ=           -633.0129
 XXYZ=             47.3227 YYXZ=             32.0669 ZZXY=            -26.6316
 N-N= 1.632999401534D+03 E-N=-5.756290492387D+03  KE= 1.055907221878D+03
 1\1\GINC-CPU-E-611\FOpt\RB3LYP\6-31G(d,p)\C14H26O3Si1\KE291\06-Feb-201
 9\0\\# b3lyp/6-31g(d,p) Opt=(maxcycles=25) scrf=(solvent=chloroform)\\
 P_ng_2ginp002\\0,1\C,-0.1121066345,-0.0443930297,0.9921530045\C,-0.902
 8893883,1.1482408766,0.4341452135\C,-2.1623190769,1.4386154559,1.29820
 26279\C,-1.6723344785,1.7192776455,2.7267206345\C,-0.7177282009,0.6862
 023789,3.2955773368\H,-0.6776246544,-0.9620790718,0.7890785639\H,-0.28
 17938468,2.0477753874,0.5223205528\H,-1.1205554051,2.6670029737,2.7427
 461951\H,-2.5033270441,1.8144323687,3.4276963695\O,0.0594755651,-0.015
 6582524,2.4450050767\O,-0.5775621734,0.5155047181,4.4885738974\C,1.299
 8754702,-0.2282306988,0.4216219919\C,2.2483327444,0.9568375515,0.62522
 73161\C,-1.2141611186,0.9336538137,-1.0547807167\O,-2.8565437515,2.557
 2026842,0.7535845119\Si,-2.7919710536,4.2322306643,0.8976690851\C,-3.4
 791985898,4.800079147,2.5609055469\C,-1.046077515,4.9134582466,0.65967
 22197\C,-3.9055666958,4.8347728408,-0.4929768698\H,-1.0798073559,6.009
 4635566,0.6513906324\H,-0.3568464208,4.619243891,1.4581222713\H,-0.615
 1806748,4.5901878681,-0.2938622836\H,-3.9770824954,5.9281273096,-0.489
 1206271\H,-3.5210806697,4.5269950118,-1.4709587271\H,-4.9189430215,4.4
 330859112,-0.3900625051\H,-3.5715619594,5.8924444067,2.5746582527\H,-4
 .4754082565,4.3808246396,2.7376424843\H,-2.8419906647,4.5133821228,3.4
 033926112\H,-1.9193230516,1.6914022668,-1.4019923012\H,-0.3075423581,1
 .0123574471,-1.6604183291\H,-1.6536984033,-0.0514211154,-1.2438243196\
 H,1.2093901345,-0.4666302747,-0.6436583095\H,1.7215243628,-1.119237201
 5,0.8999186815\H,1.9302294703,1.8428360074,0.0668591076\H,2.3149519504
 ,1.2268589381,1.6832833051\H,3.2546462448,0.6989408258,0.2822900882\C,
 -3.1745774855,0.2604239626,1.2884138035\C,-4.4314605732,0.5279398967,2
 .0706570173\C,-4.8597534682,-0.207482321,3.0980455514\H,-2.693570523,-
 0.6455292427,1.6736840987\H,-3.4408090076,0.0669685612,0.2422387524\H,
 -5.0177388819,1.384193865,1.7430745086\H,-5.7850791852,0.0238361872,3.
 6177264487\H,-4.3037048591,-1.0714572202,3.4553452295\\Version=ES64L-G
 09RevD.01\State=1-A\HF=-1064.4242459\RMSD=4.214e-09\RMSF=4.517e-06\Dip
 ole=-0.1560911,0.7533364,-1.8933285\Quadrupole=2.4404954,5.6328551,-8.
 0733505,0.523113,-7.4005555,6.4026218\PG=C01 [X(C14H26O3Si1)]\\@


 ERWIN WITH HIS PSI CAN DO
 CALCULATIONS QUITE A FEW.
 BUT ONE THING HAS NOT BEEN SEEN
 JUST WHAT DOES PSI REALLY MEAN.
 -- WALTER HUCKEL, TRANS. BY FELIX BLOCH
 Job cpu time:       0 days  2 hours 20 minutes 50.8 seconds.
 File lengths (MBytes):  RWF=    375 Int=      0 D2E=      0 Chk=     17 Scr=      1
 Normal termination of Gaussian 09 at Wed Feb  6 11:21:21 2019.
