 Entering Gaussian System, Link 0=/usr/local/shared/gaussian/em64t/09-D01/g09/g09
 Initial command:
 /usr/local/shared/gaussian/em64t/09-D01/g09/l1.exe "/scratch/ke291/P_ng_2ginp015/Gau-7580.inp" -scrdir="/scratch/ke291/P_ng_2ginp015/"
 Entering Link 1 = /usr/local/shared/gaussian/em64t/09-D01/g09/l1.exe PID=      7594.
  
 Copyright (c) 1988,1990,1992,1993,1995,1998,2003,2009,2013,
            Gaussian, Inc.  All Rights Reserved.
  
 This is part of the Gaussian(R) 09 program.  It is based on
 the Gaussian(R) 03 system (copyright 2003, Gaussian, Inc.),
 the Gaussian(R) 98 system (copyright 1998, Gaussian, Inc.),
 the Gaussian(R) 94 system (copyright 1995, Gaussian, Inc.),
 the Gaussian 92(TM) system (copyright 1992, Gaussian, Inc.),
 the Gaussian 90(TM) system (copyright 1990, Gaussian, Inc.),
 the Gaussian 88(TM) system (copyright 1988, Gaussian, Inc.),
 the Gaussian 86(TM) system (copyright 1986, Carnegie Mellon
 University), and the Gaussian 82(TM) system (copyright 1983,
 Carnegie Mellon University). Gaussian is a federally registered
 trademark of Gaussian, Inc.
  
 This software contains proprietary and confidential information,
 including trade secrets, belonging to Gaussian, Inc.
  
 This software is provided under written license and may be
 used, copied, transmitted, or stored only in accord with that
 written license.
  
 The following legend is applicable only to US Government
 contracts under FAR:
  
                    RESTRICTED RIGHTS LEGEND
  
 Use, reproduction and disclosure by the US Government is
 subject to restrictions as set forth in subparagraphs (a)
 and (c) of the Commercial Computer Software - Restricted
 Rights clause in FAR 52.227-19.
  
 Gaussian, Inc.
 340 Quinnipiac St., Bldg. 40, Wallingford CT 06492
  
  
 ---------------------------------------------------------------
 Warning -- This program may not be used in any manner that
 competes with the business of Gaussian, Inc. or will provide
 assistance to any competitor of Gaussian, Inc.  The licensee
 of this program is prohibited from giving any competitor of
 Gaussian, Inc. access to this program.  By using this program,
 the user acknowledges that Gaussian, Inc. is engaged in the
 business of creating and licensing software in the field of
 computational chemistry and represents and warrants to the
 licensee that it is not a competitor of Gaussian, Inc. and that
 it will not use this program in any manner prohibited above.
 ---------------------------------------------------------------
  

 Cite this work as:
 Gaussian 09, Revision D.01,
 M. J. Frisch, G. W. Trucks, H. B. Schlegel, G. E. Scuseria, 
 M. A. Robb, J. R. Cheeseman, G. Scalmani, V. Barone, B. Mennucci, 
 G. A. Petersson, H. Nakatsuji, M. Caricato, X. Li, H. P. Hratchian, 
 A. F. Izmaylov, J. Bloino, G. Zheng, J. L. Sonnenberg, M. Hada, 
 M. Ehara, K. Toyota, R. Fukuda, J. Hasegawa, M. Ishida, T. Nakajima, 
 Y. Honda, O. Kitao, H. Nakai, T. Vreven, J. A. Montgomery, Jr., 
 J. E. Peralta, F. Ogliaro, M. Bearpark, J. J. Heyd, E. Brothers, 
 K. N. Kudin, V. N. Staroverov, T. Keith, R. Kobayashi, J. Normand, 
 K. Raghavachari, A. Rendell, J. C. Burant, S. S. Iyengar, J. Tomasi, 
 M. Cossi, N. Rega, J. M. Millam, M. Klene, J. E. Knox, J. B. Cross, 
 V. Bakken, C. Adamo, J. Jaramillo, R. Gomperts, R. E. Stratmann, 
 O. Yazyev, A. J. Austin, R. Cammi, C. Pomelli, J. W. Ochterski, 
 R. L. Martin, K. Morokuma, V. G. Zakrzewski, G. A. Voth, 
 P. Salvador, J. J. Dannenberg, S. Dapprich, A. D. Daniels, 
 O. Farkas, J. B. Foresman, J. V. Ortiz, J. Cioslowski, 
 and D. J. Fox, Gaussian, Inc., Wallingford CT, 2013.
 
 ******************************************
 Gaussian 09:  EM64L-G09RevD.01 24-Apr-2013
                 6-Feb-2019 
 ******************************************
 %nprocshared=2
 Will use up to    2 processors via shared memory.
 %mem=6000MB
 %chk=P_ng_2ginp015.chk
 ---------------------------------------------------------------
 # b3lyp/6-31g(d,p) Opt=(maxcycles=50) scrf=(solvent=chloroform)
 ---------------------------------------------------------------
 1/6=50,14=-1,18=20,19=15,26=3,38=1/1,3;
 2/9=110,12=2,17=6,18=5,40=1/2;
 3/5=1,6=6,7=101,11=2,16=1,25=1,30=1,70=2201,71=1,72=7,74=-5/1,2,3;
 4//1;
 5/5=2,38=5,53=7/2;
 6/7=2,8=2,9=2,10=2,28=1/1;
 7//1,2,3,16;
 1/6=50,14=-1,18=20,19=15,26=3/3(2);
 2/9=110/2;
 99//99;
 2/9=110/2;
 3/5=1,6=6,7=101,11=2,16=1,25=1,30=1,70=2205,71=1,72=7,74=-5/1,2,3;
 4/5=5,16=3,69=1/1;
 5/5=2,38=5,53=7/2;
 7//1,2,3,16;
 1/6=50,14=-1,18=20,19=15,26=3/3(-5);
 2/9=110/2;
 6/7=2,8=2,9=2,10=2,19=2,28=1/1;
 99/9=1/99;
 -------------
 P_ng_2ginp015
 -------------
 Symbolic Z-matrix:
 Charge =  0 Multiplicity = 1
 C                    -0.03224  -0.12633   1.02201 
 C                    -0.85225   1.02779   0.42564 
 C                    -2.03527   1.42794   1.35459 
 C                    -1.40768   1.82643   2.70023 
 C                    -0.46836   0.79496   3.29628 
 H                    -0.61473  -1.05074   0.92651 
 H                    -0.21755   1.92131   0.38085 
 H                    -0.8016    2.72886   2.55064 
 H                    -2.15378   2.06443   3.45886 
 O                     0.22741   0.00053   2.45793 
 O                    -0.27047   0.70177   4.4895 
 C                     1.33945  -0.36898   0.37787 
 C                     2.30787   0.81681   0.42585 
 C                    -1.28478   0.68844  -1.00854 
 O                    -2.72472   2.51184   0.74834 
 Si                   -2.9141    4.1649    0.98458 
 C                    -3.71129   4.55918   2.64807 
 C                    -1.2743    5.08799   0.81739 
 C                    -4.06664   4.67308  -0.41242 
 H                    -1.45535   6.16947   0.83745 
 H                    -0.56993   4.86429   1.62553 
 H                    -0.78401   4.85514  -0.13397 
 H                    -4.27107   5.74919  -0.37789 
 H                    -3.62642   4.44777  -1.38927 
 H                    -5.02489   4.1477   -0.34641 
 H                    -3.98455   5.62041   2.68479 
 H                    -4.62437   3.97187   2.78527 
 H                    -3.0498    4.36224   3.49736 
 H                    -1.98918   1.4398   -1.37014 
 H                    -0.4259    0.67661  -1.6848 
 H                    -1.76823  -0.29228  -1.06991 
 H                     1.17934  -0.68747  -0.65801 
 H                     1.78619  -1.22529   0.89506 
 H                     1.96202   1.65911  -0.18139 
 H                     2.44425   1.16992   1.45229 
 H                     3.28835   0.51952   0.04249 
 C                    -3.06623   0.27576   1.52009 
 C                    -4.23608   0.59141   2.41279 
 C                    -5.5019    0.67748   2.00101 
 H                    -2.54799  -0.60683   1.91833 
 H                    -3.43443   0.01226   0.52442 
 H                    -4.02079   0.73072   3.47198 
 H                    -6.31341   0.88853   2.69136 
 H                    -5.77251   0.53453   0.95738 
 

 GradGradGradGradGradGradGradGradGradGradGradGradGradGradGradGradGradGrad
 Berny optimization.
 Initialization pass.
                           ----------------------------
                           !    Initial Parameters    !
                           ! (Angstroms and Degrees)  !
 --------------------------                            --------------------------
 ! Name  Definition              Value          Derivative Info.                !
 --------------------------------------------------------------------------------
 ! R1    R(1,2)                  1.5363         estimate D2E/DX2                !
 ! R2    R(1,6)                  1.0968         estimate D2E/DX2                !
 ! R3    R(1,10)                 1.4647         estimate D2E/DX2                !
 ! R4    R(1,12)                 1.5347         estimate D2E/DX2                !
 ! R5    R(2,3)                  1.5565         estimate D2E/DX2                !
 ! R6    R(2,7)                  1.0969         estimate D2E/DX2                !
 ! R7    R(2,14)                 1.5359         estimate D2E/DX2                !
 ! R8    R(3,4)                  1.5373         estimate D2E/DX2                !
 ! R9    R(3,15)                 1.4205         estimate D2E/DX2                !
 ! R10   R(3,37)                 1.5549         estimate D2E/DX2                !
 ! R11   R(4,5)                  1.5171         estimate D2E/DX2                !
 ! R12   R(4,8)                  1.0973         estimate D2E/DX2                !
 ! R13   R(4,9)                  1.0903         estimate D2E/DX2                !
 ! R14   R(5,10)                 1.3483         estimate D2E/DX2                !
 ! R15   R(5,11)                 1.2131         estimate D2E/DX2                !
 ! R16   R(12,13)                1.5317         estimate D2E/DX2                !
 ! R17   R(12,32)                1.0955         estimate D2E/DX2                !
 ! R18   R(12,33)                1.0956         estimate D2E/DX2                !
 ! R19   R(13,34)                1.0944         estimate D2E/DX2                !
 ! R20   R(13,35)                1.094          estimate D2E/DX2                !
 ! R21   R(13,36)                1.0939         estimate D2E/DX2                !
 ! R22   R(14,29)                1.0915         estimate D2E/DX2                !
 ! R23   R(14,30)                1.0932         estimate D2E/DX2                !
 ! R24   R(14,31)                1.0951         estimate D2E/DX2                !
 ! R25   R(15,16)                1.6806         estimate D2E/DX2                !
 ! R26   R(16,17)                1.8863         estimate D2E/DX2                !
 ! R27   R(16,18)                1.8892         estimate D2E/DX2                !
 ! R28   R(16,19)                1.881          estimate D2E/DX2                !
 ! R29   R(17,26)                1.0965         estimate D2E/DX2                !
 ! R30   R(17,27)                1.0943         estimate D2E/DX2                !
 ! R31   R(17,28)                1.0944         estimate D2E/DX2                !
 ! R32   R(18,20)                1.0967         estimate D2E/DX2                !
 ! R33   R(18,21)                1.0951         estimate D2E/DX2                !
 ! R34   R(18,22)                1.0953         estimate D2E/DX2                !
 ! R35   R(19,23)                1.0959         estimate D2E/DX2                !
 ! R36   R(19,24)                1.0949         estimate D2E/DX2                !
 ! R37   R(19,25)                1.0948         estimate D2E/DX2                !
 ! R38   R(37,38)                1.505          estimate D2E/DX2                !
 ! R39   R(37,40)                1.0982         estimate D2E/DX2                !
 ! R40   R(37,41)                1.0938         estimate D2E/DX2                !
 ! R41   R(38,39)                1.3339         estimate D2E/DX2                !
 ! R42   R(38,42)                1.0898         estimate D2E/DX2                !
 ! R43   R(39,43)                1.0861         estimate D2E/DX2                !
 ! R44   R(39,44)                1.0876         estimate D2E/DX2                !
 ! A1    A(2,1,6)              108.4153         estimate D2E/DX2                !
 ! A2    A(2,1,10)             114.2127         estimate D2E/DX2                !
 ! A3    A(2,1,12)             115.653          estimate D2E/DX2                !
 ! A4    A(6,1,10)             104.6259         estimate D2E/DX2                !
 ! A5    A(6,1,12)             107.7502         estimate D2E/DX2                !
 ! A6    A(10,1,12)            105.4692         estimate D2E/DX2                !
 ! A7    A(1,2,3)              111.5401         estimate D2E/DX2                !
 ! A8    A(1,2,7)              108.5997         estimate D2E/DX2                !
 ! A9    A(1,2,14)             110.2922         estimate D2E/DX2                !
 ! A10   A(3,2,7)              104.7586         estimate D2E/DX2                !
 ! A11   A(3,2,14)             113.5814         estimate D2E/DX2                !
 ! A12   A(7,2,14)             107.7453         estimate D2E/DX2                !
 ! A13   A(2,3,4)              106.1865         estimate D2E/DX2                !
 ! A14   A(2,3,15)             108.0811         estimate D2E/DX2                !
 ! A15   A(2,3,37)             112.1462         estimate D2E/DX2                !
 ! A16   A(4,3,15)             111.9583         estimate D2E/DX2                !
 ! A17   A(4,3,37)             111.6893         estimate D2E/DX2                !
 ! A18   A(15,3,37)            106.7999         estimate D2E/DX2                !
 ! A19   A(3,4,5)              114.8615         estimate D2E/DX2                !
 ! A20   A(3,4,8)              108.6224         estimate D2E/DX2                !
 ! A21   A(3,4,9)              112.7215         estimate D2E/DX2                !
 ! A22   A(5,4,8)              105.7079         estimate D2E/DX2                !
 ! A23   A(5,4,9)              107.381          estimate D2E/DX2                !
 ! A24   A(8,4,9)              107.0549         estimate D2E/DX2                !
 ! A25   A(4,5,10)             118.4118         estimate D2E/DX2                !
 ! A26   A(4,5,11)             122.6624         estimate D2E/DX2                !
 ! A27   A(10,5,11)            118.8246         estimate D2E/DX2                !
 ! A28   A(1,10,5)             124.6869         estimate D2E/DX2                !
 ! A29   A(1,12,13)            115.4377         estimate D2E/DX2                !
 ! A30   A(1,12,32)            108.1926         estimate D2E/DX2                !
 ! A31   A(1,12,33)            106.8514         estimate D2E/DX2                !
 ! A32   A(13,12,32)           110.3091         estimate D2E/DX2                !
 ! A33   A(13,12,33)           109.4192         estimate D2E/DX2                !
 ! A34   A(32,12,33)           106.1853         estimate D2E/DX2                !
 ! A35   A(12,13,34)           112.2485         estimate D2E/DX2                !
 ! A36   A(12,13,35)           110.9817         estimate D2E/DX2                !
 ! A37   A(12,13,36)           110.2005         estimate D2E/DX2                !
 ! A38   A(34,13,35)           108.1529         estimate D2E/DX2                !
 ! A39   A(34,13,36)           107.3345         estimate D2E/DX2                !
 ! A40   A(35,13,36)           107.7444         estimate D2E/DX2                !
 ! A41   A(2,14,29)            109.8139         estimate D2E/DX2                !
 ! A42   A(2,14,30)            111.0237         estimate D2E/DX2                !
 ! A43   A(2,14,31)            111.9936         estimate D2E/DX2                !
 ! A44   A(29,14,30)           108.0302         estimate D2E/DX2                !
 ! A45   A(29,14,31)           108.2394         estimate D2E/DX2                !
 ! A46   A(30,14,31)           107.6062         estimate D2E/DX2                !
 ! A47   A(3,15,16)            138.1823         estimate D2E/DX2                !
 ! A48   A(15,16,17)           112.1601         estimate D2E/DX2                !
 ! A49   A(15,16,18)           111.7385         estimate D2E/DX2                !
 ! A50   A(15,16,19)           103.3197         estimate D2E/DX2                !
 ! A51   A(17,16,18)           110.0442         estimate D2E/DX2                !
 ! A52   A(17,16,19)           109.8485         estimate D2E/DX2                !
 ! A53   A(18,16,19)           109.5184         estimate D2E/DX2                !
 ! A54   A(16,17,26)           109.7045         estimate D2E/DX2                !
 ! A55   A(16,17,27)           110.5496         estimate D2E/DX2                !
 ! A56   A(16,17,28)           113.0359         estimate D2E/DX2                !
 ! A57   A(26,17,27)           107.8974         estimate D2E/DX2                !
 ! A58   A(26,17,28)           107.3871         estimate D2E/DX2                !
 ! A59   A(27,17,28)           108.0875         estimate D2E/DX2                !
 ! A60   A(16,18,20)           109.6891         estimate D2E/DX2                !
 ! A61   A(16,18,21)           113.1519         estimate D2E/DX2                !
 ! A62   A(16,18,22)           111.1942         estimate D2E/DX2                !
 ! A63   A(20,18,21)           107.1046         estimate D2E/DX2                !
 ! A64   A(20,18,22)           107.4228         estimate D2E/DX2                !
 ! A65   A(21,18,22)           108.0379         estimate D2E/DX2                !
 ! A66   A(16,19,23)           110.8658         estimate D2E/DX2                !
 ! A67   A(16,19,24)           111.1407         estimate D2E/DX2                !
 ! A68   A(16,19,25)           111.2151         estimate D2E/DX2                !
 ! A69   A(23,19,24)           107.7685         estimate D2E/DX2                !
 ! A70   A(23,19,25)           107.8208         estimate D2E/DX2                !
 ! A71   A(24,19,25)           107.8765         estimate D2E/DX2                !
 ! A72   A(3,37,38)            115.0304         estimate D2E/DX2                !
 ! A73   A(3,37,40)            108.7365         estimate D2E/DX2                !
 ! A74   A(3,37,41)            107.7469         estimate D2E/DX2                !
 ! A75   A(38,37,40)           108.6783         estimate D2E/DX2                !
 ! A76   A(38,37,41)           109.1963         estimate D2E/DX2                !
 ! A77   A(40,37,41)           107.1773         estimate D2E/DX2                !
 ! A78   A(37,38,39)           124.6148         estimate D2E/DX2                !
 ! A79   A(37,38,42)           116.7274         estimate D2E/DX2                !
 ! A80   A(39,38,42)           118.6369         estimate D2E/DX2                !
 ! A81   A(38,39,43)           121.6915         estimate D2E/DX2                !
 ! A82   A(38,39,44)           121.592          estimate D2E/DX2                !
 ! A83   A(43,39,44)           116.7158         estimate D2E/DX2                !
 ! D1    D(6,1,2,3)             73.4769         estimate D2E/DX2                !
 ! D2    D(6,1,2,7)           -171.5747         estimate D2E/DX2                !
 ! D3    D(6,1,2,14)           -53.7158         estimate D2E/DX2                !
 ! D4    D(10,1,2,3)           -42.7246         estimate D2E/DX2                !
 ! D5    D(10,1,2,7)            72.2238         estimate D2E/DX2                !
 ! D6    D(10,1,2,14)         -169.9173         estimate D2E/DX2                !
 ! D7    D(12,1,2,3)          -165.4347         estimate D2E/DX2                !
 ! D8    D(12,1,2,7)           -50.4863         estimate D2E/DX2                !
 ! D9    D(12,1,2,14)           67.3726         estimate D2E/DX2                !
 ! D10   D(2,1,10,5)            18.759          estimate D2E/DX2                !
 ! D11   D(6,1,10,5)           -99.6215         estimate D2E/DX2                !
 ! D12   D(12,1,10,5)          146.854          estimate D2E/DX2                !
 ! D13   D(2,1,12,13)           59.1112         estimate D2E/DX2                !
 ! D14   D(2,1,12,32)          -65.0058         estimate D2E/DX2                !
 ! D15   D(2,1,12,33)         -178.9672         estimate D2E/DX2                !
 ! D16   D(6,1,12,13)         -179.4427         estimate D2E/DX2                !
 ! D17   D(6,1,12,32)           56.4403         estimate D2E/DX2                !
 ! D18   D(6,1,12,33)          -57.5211         estimate D2E/DX2                !
 ! D19   D(10,1,12,13)         -68.1162         estimate D2E/DX2                !
 ! D20   D(10,1,12,32)         167.7668         estimate D2E/DX2                !
 ! D21   D(10,1,12,33)          53.8054         estimate D2E/DX2                !
 ! D22   D(1,2,3,4)             58.6075         estimate D2E/DX2                !
 ! D23   D(1,2,3,15)           178.8965         estimate D2E/DX2                !
 ! D24   D(1,2,3,37)           -63.6428         estimate D2E/DX2                !
 ! D25   D(7,2,3,4)            -58.6883         estimate D2E/DX2                !
 ! D26   D(7,2,3,15)            61.6006         estimate D2E/DX2                !
 ! D27   D(7,2,3,37)           179.0613         estimate D2E/DX2                !
 ! D28   D(14,2,3,4)          -176.0042         estimate D2E/DX2                !
 ! D29   D(14,2,3,15)          -55.7152         estimate D2E/DX2                !
 ! D30   D(14,2,3,37)           61.7455         estimate D2E/DX2                !
 ! D31   D(1,2,14,29)          171.4589         estimate D2E/DX2                !
 ! D32   D(1,2,14,30)          -69.1392         estimate D2E/DX2                !
 ! D33   D(1,2,14,31)           51.1729         estimate D2E/DX2                !
 ! D34   D(3,2,14,29)           45.4073         estimate D2E/DX2                !
 ! D35   D(3,2,14,30)          164.8092         estimate D2E/DX2                !
 ! D36   D(3,2,14,31)          -74.8787         estimate D2E/DX2                !
 ! D37   D(7,2,14,29)          -70.1575         estimate D2E/DX2                !
 ! D38   D(7,2,14,30)           49.2445         estimate D2E/DX2                !
 ! D39   D(7,2,14,31)          169.5566         estimate D2E/DX2                !
 ! D40   D(2,3,4,5)            -52.6938         estimate D2E/DX2                !
 ! D41   D(2,3,4,8)             65.4063         estimate D2E/DX2                !
 ! D42   D(2,3,4,9)           -176.1276         estimate D2E/DX2                !
 ! D43   D(15,3,4,5)          -170.4352         estimate D2E/DX2                !
 ! D44   D(15,3,4,8)           -52.3351         estimate D2E/DX2                !
 ! D45   D(15,3,4,9)            66.131          estimate D2E/DX2                !
 ! D46   D(37,3,4,5)            69.8463         estimate D2E/DX2                !
 ! D47   D(37,3,4,8)          -172.0536         estimate D2E/DX2                !
 ! D48   D(37,3,4,9)           -53.5875         estimate D2E/DX2                !
 ! D49   D(2,3,15,16)         -107.55           estimate D2E/DX2                !
 ! D50   D(4,3,15,16)            9.0535         estimate D2E/DX2                !
 ! D51   D(37,3,15,16)         131.5991         estimate D2E/DX2                !
 ! D52   D(2,3,37,38)          179.7191         estimate D2E/DX2                !
 ! D53   D(2,3,37,40)           57.6044         estimate D2E/DX2                !
 ! D54   D(2,3,37,41)          -58.2441         estimate D2E/DX2                !
 ! D55   D(4,3,37,38)           60.6558         estimate D2E/DX2                !
 ! D56   D(4,3,37,40)          -61.4589         estimate D2E/DX2                !
 ! D57   D(4,3,37,41)         -177.3074         estimate D2E/DX2                !
 ! D58   D(15,3,37,38)         -62.0581         estimate D2E/DX2                !
 ! D59   D(15,3,37,40)         175.8272         estimate D2E/DX2                !
 ! D60   D(15,3,37,41)          59.9787         estimate D2E/DX2                !
 ! D61   D(3,4,5,10)            30.68           estimate D2E/DX2                !
 ! D62   D(3,4,5,11)          -153.0241         estimate D2E/DX2                !
 ! D63   D(8,4,5,10)           -89.0501         estimate D2E/DX2                !
 ! D64   D(8,4,5,11)            87.2458         estimate D2E/DX2                !
 ! D65   D(9,4,5,10)           156.9161         estimate D2E/DX2                !
 ! D66   D(9,4,5,11)           -26.788          estimate D2E/DX2                !
 ! D67   D(4,5,10,1)           -12.2285         estimate D2E/DX2                !
 ! D68   D(11,5,10,1)          171.3306         estimate D2E/DX2                !
 ! D69   D(1,12,13,34)         -66.4556         estimate D2E/DX2                !
 ! D70   D(1,12,13,35)          54.7024         estimate D2E/DX2                !
 ! D71   D(1,12,13,36)         173.9714         estimate D2E/DX2                !
 ! D72   D(32,12,13,34)         56.5471         estimate D2E/DX2                !
 ! D73   D(32,12,13,35)        177.7051         estimate D2E/DX2                !
 ! D74   D(32,12,13,36)        -63.0259         estimate D2E/DX2                !
 ! D75   D(33,12,13,34)        173.0102         estimate D2E/DX2                !
 ! D76   D(33,12,13,35)        -65.8319         estimate D2E/DX2                !
 ! D77   D(33,12,13,36)         53.4371         estimate D2E/DX2                !
 ! D78   D(3,15,16,17)         -61.688          estimate D2E/DX2                !
 ! D79   D(3,15,16,18)          62.4238         estimate D2E/DX2                !
 ! D80   D(3,15,16,19)        -179.9285         estimate D2E/DX2                !
 ! D81   D(15,16,17,26)       -169.6235         estimate D2E/DX2                !
 ! D82   D(15,16,17,27)        -50.7507         estimate D2E/DX2                !
 ! D83   D(15,16,17,28)         70.5613         estimate D2E/DX2                !
 ! D84   D(18,16,17,26)         65.3265         estimate D2E/DX2                !
 ! D85   D(18,16,17,27)       -175.8006         estimate D2E/DX2                !
 ! D86   D(18,16,17,28)        -54.4886         estimate D2E/DX2                !
 ! D87   D(19,16,17,26)        -55.325          estimate D2E/DX2                !
 ! D88   D(19,16,17,27)         63.5479         estimate D2E/DX2                !
 ! D89   D(19,16,17,28)       -175.1401         estimate D2E/DX2                !
 ! D90   D(15,16,18,20)        172.1415         estimate D2E/DX2                !
 ! D91   D(15,16,18,21)        -68.3367         estimate D2E/DX2                !
 ! D92   D(15,16,18,22)         53.4667         estimate D2E/DX2                !
 ! D93   D(17,16,18,20)        -62.5674         estimate D2E/DX2                !
 ! D94   D(17,16,18,21)         56.9544         estimate D2E/DX2                !
 ! D95   D(17,16,18,22)        178.7579         estimate D2E/DX2                !
 ! D96   D(19,16,18,20)         58.2826         estimate D2E/DX2                !
 ! D97   D(19,16,18,21)        177.8043         estimate D2E/DX2                !
 ! D98   D(19,16,18,22)        -60.3922         estimate D2E/DX2                !
 ! D99   D(15,16,19,23)       -179.6612         estimate D2E/DX2                !
 ! D100  D(15,16,19,24)        -59.8229         estimate D2E/DX2                !
 ! D101  D(15,16,19,25)         60.3853         estimate D2E/DX2                !
 ! D102  D(17,16,19,23)         60.4995         estimate D2E/DX2                !
 ! D103  D(17,16,19,24)       -179.6622         estimate D2E/DX2                !
 ! D104  D(17,16,19,25)        -59.454          estimate D2E/DX2                !
 ! D105  D(18,16,19,23)        -60.4691         estimate D2E/DX2                !
 ! D106  D(18,16,19,24)         59.3692         estimate D2E/DX2                !
 ! D107  D(18,16,19,25)        179.5774         estimate D2E/DX2                !
 ! D108  D(3,37,38,39)         114.4106         estimate D2E/DX2                !
 ! D109  D(3,37,38,42)         -67.2816         estimate D2E/DX2                !
 ! D110  D(40,37,38,39)       -123.4434         estimate D2E/DX2                !
 ! D111  D(40,37,38,42)         54.8644         estimate D2E/DX2                !
 ! D112  D(41,37,38,39)         -6.8405         estimate D2E/DX2                !
 ! D113  D(41,37,38,42)        171.4673         estimate D2E/DX2                !
 ! D114  D(37,38,39,43)        178.7242         estimate D2E/DX2                !
 ! D115  D(37,38,39,44)         -0.9559         estimate D2E/DX2                !
 ! D116  D(42,38,39,43)          0.4463         estimate D2E/DX2                !
 ! D117  D(42,38,39,44)       -179.2338         estimate D2E/DX2                !
 --------------------------------------------------------------------------------
 Trust Radius=3.00D-01 FncErr=1.00D-07 GrdErr=1.00D-06
 Number of steps in this run=     50 maximum allowed number of steps=    264.
 GradGradGradGradGradGradGradGradGradGradGradGradGradGradGradGradGradGrad

                          Input orientation:                          
 ---------------------------------------------------------------------
 Center     Atomic      Atomic             Coordinates (Angstroms)
 Number     Number       Type             X           Y           Z
 ---------------------------------------------------------------------
      1          6           0       -0.032243   -0.126329    1.022010
      2          6           0       -0.852251    1.027793    0.425639
      3          6           0       -2.035269    1.427943    1.354587
      4          6           0       -1.407677    1.826433    2.700225
      5          6           0       -0.468359    0.794962    3.296277
      6          1           0       -0.614733   -1.050738    0.926507
      7          1           0       -0.217553    1.921306    0.380845
      8          1           0       -0.801603    2.728856    2.550639
      9          1           0       -2.153781    2.064433    3.458863
     10          8           0        0.227408    0.000529    2.457930
     11          8           0       -0.270473    0.701767    4.489502
     12          6           0        1.339450   -0.368979    0.377865
     13          6           0        2.307865    0.816811    0.425846
     14          6           0       -1.284782    0.688436   -1.008544
     15          8           0       -2.724722    2.511841    0.748336
     16         14           0       -2.914099    4.164897    0.984580
     17          6           0       -3.711294    4.559182    2.648069
     18          6           0       -1.274295    5.087988    0.817390
     19          6           0       -4.066641    4.673075   -0.412420
     20          1           0       -1.455353    6.169472    0.837448
     21          1           0       -0.569934    4.864294    1.625533
     22          1           0       -0.784010    4.855139   -0.133973
     23          1           0       -4.271065    5.749194   -0.377895
     24          1           0       -3.626416    4.447767   -1.389265
     25          1           0       -5.024894    4.147703   -0.346405
     26          1           0       -3.984550    5.620408    2.684793
     27          1           0       -4.624366    3.971873    2.785268
     28          1           0       -3.049795    4.362236    3.497362
     29          1           0       -1.989182    1.439797   -1.370144
     30          1           0       -0.425902    0.676608   -1.684798
     31          1           0       -1.768233   -0.292284   -1.069912
     32          1           0        1.179340   -0.687465   -0.658009
     33          1           0        1.786192   -1.225285    0.895059
     34          1           0        1.962015    1.659109   -0.181388
     35          1           0        2.444245    1.169918    1.452287
     36          1           0        3.288355    0.519522    0.042493
     37          6           0       -3.066228    0.275762    1.520092
     38          6           0       -4.236076    0.591407    2.412788
     39          6           0       -5.501904    0.677479    2.001007
     40          1           0       -2.547993   -0.606829    1.918327
     41          1           0       -3.434428    0.012259    0.524416
     42          1           0       -4.020786    0.730721    3.471981
     43          1           0       -6.313406    0.888528    2.691363
     44          1           0       -5.772511    0.534526    0.957379
 ---------------------------------------------------------------------
                    Distance matrix (angstroms):
                    1          2          3          4          5
     1  C    0.000000
     2  C    1.536251   0.000000
     3  C    2.557045   1.556469   0.000000
     4  C    2.919162   2.473877   1.537338   0.000000
     5  C    2.492240   2.905536   2.574108   1.517079   0.000000
     6  H    1.096790   2.151180   2.888777   3.471736   3.007299
     7  H    2.153657   1.096911   2.120300   2.608625   3.135490
     8  H    3.328768   2.722463   2.155191   1.097301   2.099279
     9  H    3.903667   3.459632   2.201623   1.090343   2.116279
    10  O    1.464711   2.520147   2.893887   2.462953   1.348347
    11  O    3.572953   4.118220   3.670085   2.399920   1.213108
    12  C    1.534713   2.599386   3.946092   4.214250   3.624922
    13  C    2.592495   3.167151   4.483175   4.471845   3.993404
    14  C    2.521080   1.535945   2.587371   3.881380   4.382850
    15  O    3.779455   2.410950   1.420465   2.452399   3.811935
    16  Si   5.169247   3.795399   2.898304   3.268204   4.762567
    17  C    6.175232   5.058066   3.779790   3.574532   5.010603
    18  C    5.364109   4.100826   3.776717   3.768369   5.022398
    19  C    6.431815   4.931808   4.216595   4.986183   6.460791
    20  H    6.457275   5.193282   4.804772   4.725907   5.992107
    21  H    5.055657   4.029664   3.745548   3.329471   4.400133
    22  H    5.168798   3.868644   3.940448   4.194604   5.324593
    23  H    7.378964   5.884351   5.164638   5.749945   7.246000
    24  H    6.297197   4.762993   4.379477   5.340237   6.728344
    25  H    6.713156   5.266958   4.385012   5.268255   6.728448
    26  H    7.170116   6.000599   4.811020   4.586367   6.001870
    27  H    6.402494   5.335195   3.901519   3.867457   5.256071
    28  H    5.948126   5.038173   3.772376   3.124463   4.407912
    29  H    3.464789   2.164994   2.725146   4.129836   4.950172
    30  H    2.850700   2.181525   3.520288   4.638363   4.982662
    31  H    2.723479   2.195062   2.984741   4.339689   4.683522
    32  H    2.145989   2.871195   4.342718   4.928497   4.533087
    33  H    2.128503   3.501156   4.674863   4.772045   3.863968
    34  H    2.934795   2.947395   4.288465   4.436950   4.329853
    35  H    2.828142   3.455588   4.488002   4.101910   3.467586
    36  H    3.521782   4.189243   5.557678   5.551962   4.977537
    37  C    3.100779   2.581680   1.554925   2.558923   3.189565
    38  C    4.485713   3.948350   2.581305   3.099637   3.875265
    39  C    5.614422   4.921766   3.605360   4.309489   5.198856
    40  H    2.713533   2.788484   2.172783   2.798651   2.861580
    41  H    3.441173   2.776455   2.156616   3.483259   4.134417
    42  H    4.758715   4.405458   2.985256   2.936755   3.557349
    43  H    6.577970   5.914145   4.514466   4.994589   5.877010
    44  H    5.778545   4.973431   3.863023   4.874250   5.802784
                    6          7          8          9         10
     6  H    0.000000
     7  H    3.047711   0.000000
     8  H    4.118016   2.387731   0.000000
     9  H    4.299511   3.639185   1.759181   0.000000
    10  O    2.039515   2.863853   2.917400   3.306301   0.000000
    11  O    3.985564   4.286156   2.854887   2.542818   2.206105
    12  C    2.141176   2.769417   4.347601   5.255161   2.387435
    13  C    3.504280   2.756750   4.223678   5.537332   3.020593
    14  C    2.686655   2.142276   4.130927   4.754604   3.844006
    15  O    4.144366   2.601861   2.644575   2.805905   4.236091
    16  Si   5.700290   3.559433   2.996230   3.333483   5.420497
    17  C    6.635033   4.930002   3.438879   3.050738   6.027506
    18  C    6.175021   3.366772   2.965315   4.110081   5.552362
    19  C    6.816923   4.797602   4.818732   5.044887   6.964945
    20  H    7.269526   4.448320   3.898750   4.920464   6.596476
    21  H    5.956363   3.214748   2.338715   3.702553   4.998485
    22  H    6.002721   3.032044   3.424695   4.751083   5.595370
    23  H    7.830026   5.626667   5.453065   5.725475   7.831048
    24  H    6.683308   4.597461   5.143644   5.599401   7.030704
    25  H    6.934956   5.347548   5.314337   5.202247   7.256033
    26  H    7.677984   5.760365   4.302351   4.073802   7.026742
    27  H    6.690200   5.422737   4.026619   3.193093   6.278410
    28  H    6.468316   4.867486   2.935742   2.466621   5.553824
    29  H    3.656020   2.537023   4.294713   4.872020   4.651765
    30  H    3.136606   2.420654   4.721419   5.600793   4.248070
    31  H    2.427241   3.067455   4.813527   5.119821   4.063741
    32  H    2.421023   3.136273   5.088301   5.969194   3.329953
    33  H    2.407466   3.765693   5.007281   5.737485   2.524875
    34  H    3.900043   2.266135   4.030622   5.509583   3.567317
    35  H    3.816426   2.966098   3.764597   5.095915   2.700584
    36  H    4.298988   3.790893   5.282017   6.608720   3.933585
    37  C    2.849873   3.481472   3.494027   2.791189   3.435598
    38  C    4.244973   4.695312   4.047629   2.756816   4.502651
    39  C    5.293933   5.665369   5.157817   3.906266   5.787232
    40  H    2.217714   3.766466   3.817917   3.108745   2.891869
    41  H    3.040118   3.743442   4.291532   3.802954   4.140973
    42  H    4.610231   5.043530   3.899302   2.294486   4.428163
    43  H    6.272985   6.600345   5.812623   4.390249   6.604944
    44  H    5.395988   5.754399   5.662463   4.657601   6.207724
                   11         12         13         14         15
    11  O    0.000000
    12  C    4.543556   0.000000
    13  C    4.813976   1.531740   0.000000
    14  C    5.590841   3.150691   3.870538   0.000000
    15  O    4.826596   4.995385   5.320157   2.912879   0.000000
    16  Si   5.591646   6.246344   6.228224   4.325852   1.680556
    17  C    5.487237   7.412868   7.427913   5.851619   2.962079
    18  C    5.807840   6.066575   5.588214   4.763423   2.957202
    19  C    7.362813   7.434560   7.497186   4.896065   2.796254
    20  H    6.681110   7.125551   6.556082   5.786063   3.872661
    21  H    5.061485   5.708728   5.109120   4.988703   3.308569
    22  H    6.236244   5.662374   5.116756   4.286847   3.167946
    23  H    8.072968   8.335532   8.261763   5.909896   3.760323
    24  H    7.736587   7.140282   7.189866   4.445309   3.021623
    25  H    7.606904   7.837720   8.090771   5.137450   3.027423
    26  H    6.422179   8.339044   8.232368   6.727097   3.873012
    27  H    5.705645   7.759232   7.973526   6.027171   3.144746
    28  H    4.701915   7.168063   7.121010   6.075793   3.329681
    29  H    6.150943   4.172170   4.698756   1.091548   2.485610
    30  H    6.176307   2.909348   3.456582   1.093222   3.817433
    31  H    5.842816   3.429232   4.481290   1.095127   3.476207
    32  H    5.525286   1.095492   2.170520   2.843919   5.239758
    33  H    4.567649   1.095595   2.159273   4.088632   5.859691
    34  H    5.264762   2.193968   1.094446   3.488278   4.853561
    35  H    4.100431   2.177879   1.094014   4.493679   5.386513
    36  H    5.698627   2.167980   1.093938   4.695401   6.373747
    37  C    4.100625   4.596779   5.510988   3.120553   2.390038
    38  C    4.477826   6.012466   6.842654   4.519410   2.956798
    39  C    5.793192   7.108713   7.968252   5.180892   3.556235
    40  H    3.675658   4.188294   5.275757   3.440928   3.335597
    41  H    5.119369   4.791318   5.799220   2.725465   2.608013
    42  H    3.886005   6.286097   7.024114   5.250010   3.502914
    43  H    6.307553   8.093195   8.914260   6.246312   4.391941
    44  H    6.540358   7.192507   8.102758   4.901863   3.639023
                   16         17         18         19         20
    16  Si   0.000000
    17  C    1.886312   0.000000
    18  C    1.889182   3.093539   0.000000
    19  C    1.881012   3.083153   3.079250   0.000000
    20  H    2.483528   3.310688   1.096718   3.258865   0.000000
    21  H    2.528851   3.317652   1.095107   4.051762   1.763103
    22  H    2.502973   4.049239   1.095303   3.299446   1.766870
    23  H    2.491524   3.299383   3.293407   1.095907   3.095469
    24  H    2.494505   4.039763   3.288112   1.094892   3.554720
    25  H    2.495450   3.295715   4.038012   1.094816   4.269740
    26  H    2.480948   1.096458   3.334089   3.239893   3.179779
    27  H    2.490933   1.094283   4.042429   3.320836   4.320427
    28  H    2.524169   1.094379   3.295659   4.051789   3.589358
    29  H    3.718383   5.370500   4.313429   3.960702   5.246738
    30  H    5.048254   6.681460   5.142080   5.553889   6.131317
    31  H    5.039882   6.413703   5.723042   5.510877   6.744642
    32  H    6.557420   7.897832   6.446160   7.504400   7.496371
    33  H    7.152259   8.170401   7.016412   8.411647   8.074240
    34  H    5.604904   6.971562   4.819593   6.744040   5.749765
    35  H    6.156338   7.127949   5.438925   7.625017   6.370277
    36  H    7.255806   8.491346   6.503009   8.459014   7.420016
    37  C    3.928776   4.476173   5.182888   4.906301   6.147905
    38  C    4.069058   4.009238   5.615753   4.966943   6.428758
    39  C    4.460038   4.323493   6.223039   4.883585   6.920291
    40  H    4.875990   5.345414   5.938460   5.967919   6.948411
    41  H    4.210332   5.026039   5.524042   4.795891   6.475029
    42  H    4.382406   3.928323   5.794466   5.534693   6.565228
    43  H    5.020257   4.499618   6.822014   5.385556   7.411211
    44  H    4.620698   4.827515   6.402153   4.681232   7.099637
                   21         22         23         24         25
    21  H    0.000000
    22  H    1.772505   0.000000
    23  H    4.300598   3.608100   0.000000
    24  H    4.313304   3.133845   1.769789   0.000000
    25  H    4.924298   4.304728   1.770317   1.770123   0.000000
    26  H    3.654223   4.332959   3.078755   4.254562   3.526944
    27  H    4.310431   4.904127   3.645448   4.318462   3.162075
    28  H    3.147304   4.308519   4.293340   4.921274   4.326845
    29  H    4.766082   3.826895   4.976189   3.424732   4.194799
    30  H    5.340015   4.471400   6.498031   4.955025   5.915278
    31  H    5.940677   5.323593   6.575904   5.101266   5.553628
    32  H    6.252724   5.903374   8.438955   7.071113   7.872005
    33  H    6.570228   6.681048   9.324920   8.166884   8.763625
    34  H    4.466424   4.213967   7.457795   6.361301   7.418708
    35  H    4.771132   5.149632   8.331550   7.461343   8.239571
    36  H    6.022413   5.950872   9.201686   8.080539   9.078824
    37  C    5.224675   5.377280   5.917131   5.117011   4.723569
    38  C    5.684887   6.048319   5.864461   5.449662   4.569751
    39  C    6.480334   6.653534   5.735541   5.406152   4.216674
    40  H    5.825087   6.095627   6.974284   6.136131   5.819761
    41  H    5.741083   5.559827   5.867414   4.834540   4.515508
    42  H    5.692467   6.363210   6.330028   6.132183   5.221500
    43  H    7.066129   7.368225   6.100620   6.044801   4.637943
    44  H    6.801480   6.689087   5.588386   5.042412   3.913289
                   26         27         28         29         30
    26  H    0.000000
    27  H    1.771194   0.000000
    28  H    1.765513   1.771647   0.000000
    29  H    6.156421   5.533810   5.775653   0.000000
    30  H    7.496563   6.961850   6.879204   1.767854   0.000000
    31  H    7.346414   6.418952   6.645821   1.771740   1.765981
    32  H    8.810752   8.200523   7.787950   3.882256   2.343458
    33  H    9.130615   8.466321   7.834484   5.146577   3.894383
    34  H    7.698606   7.584876   6.779258   4.131973   2.987926
    35  H    7.915513   7.719653   6.675156   5.262531   4.280468
    36  H    9.268006   9.058294   8.177696   5.540293   4.099258
    37  C    5.546628   4.205912   4.539728   3.296736   4.171729
    38  C    5.042629   3.423019   4.099111   4.480946   5.595972
    39  C    5.215599   3.498310   4.672189   4.927982   6.273034
    40  H    6.436587   5.101707   5.238011   3.913437   4.374127
    41  H    6.034998   4.712319   5.282864   2.777761   3.791202
    42  H    4.952779   3.367632   3.759171   5.298714   6.286373
    43  H    5.273926   3.516915   4.833987   5.958074   7.338828
    44  H    5.661003   4.058913   5.340043   4.533261   5.965527
                   31         32         33         34         35
    31  H    0.000000
    32  H    3.002335   0.000000
    33  H    4.167197   1.752010   0.000000
    34  H    4.302576   2.519158   3.083729   0.000000
    35  H    5.122938   3.082727   2.545690   1.772215   0.000000
    36  H    5.240759   2.528926   2.455141   1.762940   1.767217
    37  C    2.952217   4.867934   5.117596   5.485610   5.582959
    38  C    4.358940   6.355473   6.470825   6.803387   6.773768
    39  C    4.930647   7.319321   7.613145   7.838147   7.980281
    40  H    3.104277   4.531779   4.496079   5.466576   5.319442
    41  H    2.326119   4.814000   5.378081   5.686112   6.062995
    42  H    5.171974   6.790388   6.647366   7.071274   6.787391
    43  H    6.016652   8.357230   8.561448   8.793696   8.849347
    44  H    4.563745   7.240923   7.761109   7.898378   8.256133
                   36         37         38         39         40
    36  H    0.000000
    37  C    6.528663   0.000000
    38  C    7.889267   1.505019   0.000000
    39  C    9.007185   2.514990   1.333901   0.000000
    40  H    6.233007   1.098237   2.128352   3.222091   0.000000
    41  H    6.759096   1.093789   2.131666   2.626271   1.764093
    42  H    8.076480   2.219918   1.089793   2.088135   2.524282
    43  H    9.967271   3.505927   2.116881   1.086125   4.124562
    44  H    9.106950   2.776251   2.117093   1.087577   3.552974
                   41         42         43         44
    41  H    0.000000
    42  H    3.090007   0.000000
    43  H    3.708372   2.427010   0.000000
    44  H    2.434513   3.070872   1.850563   0.000000
 Stoichiometry    C14H26O3Si
 Framework group  C1[X(C14H26O3Si)]
 Deg. of freedom   126
 Full point group                 C1      NOp   1
 Largest Abelian subgroup         C1      NOp   1
 Largest concise Abelian subgroup C1      NOp   1
                         Standard orientation:                         
 ---------------------------------------------------------------------
 Center     Atomic      Atomic             Coordinates (Angstroms)
 Number     Number       Type             X           Y           Z
 ---------------------------------------------------------------------
      1          6           0       -2.535373    0.116398   -0.609831
      2          6           0       -1.155459   -0.516965   -0.843831
      3          6           0       -0.010777    0.395390   -0.314770
      4          6           0       -0.283912    0.599947    1.184218
      5          6           0       -1.679155    1.094210    1.516677
      6          1           0       -2.662981    0.941535   -1.321037
      7          1           0       -1.083970   -1.431838   -0.242906
      8          1           0       -0.181708   -0.366324    1.694066
      9          1           0        0.424205    1.284674    1.651727
     10          8           0       -2.696535    0.735534    0.707771
     11          8           0       -1.924318    1.741568    2.512896
     12          6           0       -3.735120   -0.827478   -0.768095
     13          6           0       -3.741078   -2.045421    0.160779
     14          6           0       -0.994029   -0.912184   -2.319253
     15          8           0        1.223842   -0.268625   -0.543938
     16         14           0        2.405668   -1.059580    0.351577
     17          6           0        3.226968    0.080605    1.609997
     18          6           0        1.719054   -2.591859    1.217423
     19          6           0        3.658814   -1.581938   -0.950334
     20          1           0        2.540313   -3.157460    1.673953
     21          1           0        1.009192   -2.353141    2.016403
     22          1           0        1.218043   -3.257416    0.506289
     23          1           0        4.494431   -2.123524   -0.492687
     24          1           0        3.202109   -2.240698   -1.696152
     25          1           0        4.069777   -0.713669   -1.475540
     26          1           0        4.106567   -0.414294    2.038483
     27          1           0        3.561887    1.005013    1.129628
     28          1           0        2.566090    0.349118    2.439942
     29          1           0        0.035970   -1.219454   -2.509426
     30          1           0       -1.649467   -1.748882   -2.575128
     31          1           0       -1.234919   -0.084221   -2.994346
     32          1           0       -3.782951   -1.147304   -1.814769
     33          1           0       -4.635535   -0.229226   -0.590117
     34          1           0       -2.925314   -2.740274   -0.061753
     35          1           0       -3.652759   -1.740136    1.207616
     36          1           0       -4.678798   -2.598324    0.052707
     37          6           0        0.059016    1.749340   -1.076177
     38          6           0        1.141240    2.686250   -0.611341
     39          6           0        2.189268    3.058297   -1.347894
     40          1           0       -0.910169    2.257259   -0.982247
     41          1           0        0.206222    1.527981   -2.137170
     42          1           0        1.032731    3.102035    0.390156
     43          1           0        2.933047    3.754450   -0.971288
     44          1           0        2.337990    2.682872   -2.357726
 ---------------------------------------------------------------------
 Rotational constants (GHZ):      0.4813709      0.2729883      0.2446148
 Standard basis: 6-31G(d,p) (6D, 7F)
 There are   404 symmetry adapted cartesian basis functions of A   symmetry.
 There are   404 symmetry adapted basis functions of A   symmetry.
   404 basis functions,   710 primitive gaussians,   404 cartesian basis functions
    74 alpha electrons       74 beta electrons
       nuclear repulsion energy      1630.6371028018 Hartrees.
 NAtoms=   44 NActive=   44 NUniq=   44 SFac= 1.00D+00 NAtFMM=   60 NAOKFM=F Big=F
 Integral buffers will be    131072 words long.
 Raffenetti 2 integral format.
 Two-electron integral symmetry is turned on.
 ------------------------------------------------------------------------------
 Polarizable Continuum Model (PCM)
 =================================
 Model                : PCM (using non-symmetric T matrix).
 Atomic radii         : UFF (Universal Force Field).
 Polarization charges : Total charges.
 Charge compensation  : None.
 Solution method      : On-the-fly selection.
 Cavity type          : Scaled VdW (van der Waals Surface) (Alpha=1.100).
 Cavity algorithm     : GePol (No added spheres)
                        Default sphere list used, NSphG=   44.
                        Lebedev-Laikov grids with approx.  5.0 points / Ang**2.
                        Smoothing algorithm: Karplus/York (Gamma=1.0000).
                        Polarization charges: spherical gaussians, with
                                              point-specific exponents (IZeta= 3).
                        Self-potential: point-specific (ISelfS= 7).
                        Self-field    : sphere-specific E.n sum rule (ISelfD= 2).
 1st derivatives      : Analytical E(r).r(x)/FMM algorithm (CHGder, D1EAlg=3).
                        Cavity 1st derivative terms included.
 Solvent              : Chloroform, Eps=   4.711300 Eps(inf)=   2.090627
 ------------------------------------------------------------------------------
 One-electron integrals computed using PRISM.
 NBasis=   404 RedAO= T EigKep=  1.69D-03  NBF=   404
 NBsUse=   404 1.00D-06 EigRej= -1.00D+00 NBFU=   404
 ExpMin= 7.78D-02 ExpMax= 1.61D+04 ExpMxC= 2.43D+03 IAcc=2 IRadAn=         4 AccDes= 0.00D+00
 Harris functional with IExCor=  402 and IRadAn=       4 diagonalized for initial guess.
 HarFok:  IExCor=  402 AccDes= 0.00D+00 IRadAn=         4 IDoV= 1 UseB2=F ITyADJ=14
 ICtDFT=  3500011 ScaDFX=  1.000000  1.000000  1.000000  1.000000
 FoFCou: FMM=F IPFlag=           0 FMFlag=      100000 FMFlg1=           0
         NFxFlg=           0 DoJE=T BraDBF=F KetDBF=T FulRan=T
         wScrn=  0.000000 ICntrl=     500 IOpCl=  0 I1Cent=   200000004 NGrid=           0
         NMat0=    1 NMatS0=      1 NMatT0=    0 NMatD0=    1 NMtDS0=    0 NMtDT0=    0
 Petite list used in FoFCou.
 Requested convergence on RMS density matrix=1.00D-08 within 128 cycles.
 Requested convergence on MAX density matrix=1.00D-06.
 Requested convergence on             energy=1.00D-06.
 No special actions if energy rises.
 Inv3:  Mode=1 IEnd=    26107500.
 Iteration    1 A*A^-1 deviation from unit magnitude is 9.77D-15 for   1895.
 Iteration    1 A*A^-1 deviation from orthogonality  is 6.00D-15 for   2737   1290.
 Iteration    1 A^-1*A deviation from unit magnitude is 1.12D-14 for   1941.
 Iteration    1 A^-1*A deviation from orthogonality  is 1.35D-12 for   2909   2546.
 Error on total polarization charges =  0.00916
 SCF Done:  E(RB3LYP) =  -1064.42266234     A.U. after   13 cycles
            NFock= 13  Conv=0.51D-08     -V/T= 2.0081

 **********************************************************************

            Population analysis using the SCF density.

 **********************************************************************

 Orbital symmetries:
       Occupied  (A) (A) (A) (A) (A) (A) (A) (A) (A) (A) (A) (A)
                 (A) (A) (A) (A) (A) (A) (A) (A) (A) (A) (A) (A)
                 (A) (A) (A) (A) (A) (A) (A) (A) (A) (A) (A) (A)
                 (A) (A) (A) (A) (A) (A) (A) (A) (A) (A) (A) (A)
                 (A) (A) (A) (A) (A) (A) (A) (A) (A) (A) (A) (A)
                 (A) (A) (A) (A) (A) (A) (A) (A) (A) (A) (A) (A)
                 (A) (A)
       Virtual   (A) (A) (A) (A) (A) (A) (A) (A) (A) (A) (A) (A)
                 (A) (A) (A) (A) (A) (A) (A) (A) (A) (A) (A) (A)
                 (A) (A) (A) (A) (A) (A) (A) (A) (A) (A) (A) (A)
                 (A) (A) (A) (A) (A) (A) (A) (A) (A) (A) (A) (A)
                 (A) (A) (A) (A) (A) (A) (A) (A) (A) (A) (A) (A)
                 (A) (A) (A) (A) (A) (A) (A) (A) (A) (A) (A) (A)
                 (A) (A) (A) (A) (A) (A) (A) (A) (A) (A) (A) (A)
                 (A) (A) (A) (A) (A) (A) (A) (A) (A) (A) (A) (A)
                 (A) (A) (A) (A) (A) (A) (A) (A) (A) (A) (A) (A)
                 (A) (A) (A) (A) (A) (A) (A) (A) (A) (A) (A) (A)
                 (A) (A) (A) (A) (A) (A) (A) (A) (A) (A) (A) (A)
                 (A) (A) (A) (A) (A) (A) (A) (A) (A) (A) (A) (A)
                 (A) (A) (A) (A) (A) (A) (A) (A) (A) (A) (A) (A)
                 (A) (A) (A) (A) (A) (A) (A) (A) (A) (A) (A) (A)
                 (A) (A) (A) (A) (A) (A) (A) (A) (A) (A) (A) (A)
                 (A) (A) (A) (A) (A) (A) (A) (A) (A) (A) (A) (A)
                 (A) (A) (A) (A) (A) (A) (A) (A) (A) (A) (A) (A)
                 (A) (A) (A) (A) (A) (A) (A) (A) (A) (A) (A) (A)
                 (A) (A) (A) (A) (A) (A) (A) (A) (A) (A) (A) (A)
                 (A) (A) (A) (A) (A) (A) (A) (A) (A) (A) (A) (A)
                 (A) (A) (A) (A) (A) (A) (A) (A) (A) (A) (A) (A)
                 (A) (A) (A) (A) (A) (A) (A) (A) (A) (A) (A) (A)
                 (A) (A) (A) (A) (A) (A) (A) (A) (A) (A) (A) (A)
                 (A) (A) (A) (A) (A) (A) (A) (A) (A) (A) (A) (A)
                 (A) (A) (A) (A) (A) (A) (A) (A) (A) (A) (A) (A)
                 (A) (A) (A) (A) (A) (A) (A) (A) (A) (A) (A) (A)
                 (A) (A) (A) (A) (A) (A) (A) (A) (A) (A) (A) (A)
                 (A) (A) (A) (A) (A) (A)
 The electronic state is 1-A.
 Alpha  occ. eigenvalues --  -66.14308 -19.18939 -19.13559 -19.13190 -10.32016
 Alpha  occ. eigenvalues --  -10.26255 -10.25421 -10.20155 -10.20016 -10.19149
 Alpha  occ. eigenvalues --  -10.19054 -10.19040 -10.17992 -10.17979 -10.17759
 Alpha  occ. eigenvalues --  -10.16069 -10.15812 -10.15737  -5.28343  -3.64445
 Alpha  occ. eigenvalues --   -3.64145  -3.64133  -1.09639  -1.01419  -1.00527
 Alpha  occ. eigenvalues --   -0.82897  -0.80270  -0.77627  -0.74978  -0.71290
 Alpha  occ. eigenvalues --   -0.70009  -0.69469  -0.67659  -0.67446  -0.64542
 Alpha  occ. eigenvalues --   -0.60553  -0.60124  -0.56259  -0.53419  -0.51640
 Alpha  occ. eigenvalues --   -0.50396  -0.48172  -0.47198  -0.46115  -0.45183
 Alpha  occ. eigenvalues --   -0.44972  -0.43321  -0.42295  -0.42242  -0.41612
 Alpha  occ. eigenvalues --   -0.41028  -0.40512  -0.40317  -0.39664  -0.39278
 Alpha  occ. eigenvalues --   -0.38852  -0.38500  -0.38007  -0.37744  -0.37574
 Alpha  occ. eigenvalues --   -0.36626  -0.35766  -0.35177  -0.34969  -0.34363
 Alpha  occ. eigenvalues --   -0.33866  -0.32367  -0.31640  -0.30644  -0.29224
 Alpha  occ. eigenvalues --   -0.28622  -0.26564  -0.26432  -0.25558
 Alpha virt. eigenvalues --    0.00453   0.01480   0.06613   0.07601   0.08577
 Alpha virt. eigenvalues --    0.09247   0.09374   0.10691   0.11438   0.11942
 Alpha virt. eigenvalues --    0.12058   0.12747   0.13120   0.13995   0.14587
 Alpha virt. eigenvalues --    0.14904   0.15364   0.15633   0.16605   0.16707
 Alpha virt. eigenvalues --    0.16979   0.17383   0.17639   0.18244   0.18806
 Alpha virt. eigenvalues --    0.19439   0.19679   0.20300   0.20767   0.21119
 Alpha virt. eigenvalues --    0.21641   0.21901   0.22281   0.23121   0.23746
 Alpha virt. eigenvalues --    0.24409   0.24887   0.26719   0.27346   0.28546
 Alpha virt. eigenvalues --    0.29621   0.30250   0.31765   0.35354   0.36022
 Alpha virt. eigenvalues --    0.37410   0.37708   0.40181   0.40382   0.43495
 Alpha virt. eigenvalues --    0.46557   0.46942   0.47762   0.48781   0.51099
 Alpha virt. eigenvalues --    0.52980   0.53332   0.54124   0.54687   0.55676
 Alpha virt. eigenvalues --    0.57308   0.57994   0.59191   0.60521   0.60943
 Alpha virt. eigenvalues --    0.61403   0.62469   0.63675   0.64221   0.65929
 Alpha virt. eigenvalues --    0.66656   0.67004   0.67384   0.68345   0.68737
 Alpha virt. eigenvalues --    0.69206   0.70900   0.71370   0.72072   0.72970
 Alpha virt. eigenvalues --    0.73752   0.74922   0.75245   0.76411   0.77645
 Alpha virt. eigenvalues --    0.78112   0.79756   0.82135   0.82492   0.83223
 Alpha virt. eigenvalues --    0.83821   0.84187   0.84711   0.85006   0.86177
 Alpha virt. eigenvalues --    0.86657   0.86717   0.87793   0.88212   0.88921
 Alpha virt. eigenvalues --    0.89375   0.90088   0.90315   0.90816   0.91335
 Alpha virt. eigenvalues --    0.91395   0.92086   0.92338   0.92689   0.93187
 Alpha virt. eigenvalues --    0.94108   0.95166   0.95869   0.96557   0.97682
 Alpha virt. eigenvalues --    0.98169   0.99489   0.99654   1.00430   1.01675
 Alpha virt. eigenvalues --    1.02621   1.02791   1.03783   1.05207   1.06270
 Alpha virt. eigenvalues --    1.07968   1.10388   1.12304   1.14699   1.16565
 Alpha virt. eigenvalues --    1.17745   1.20119   1.21182   1.22028   1.26356
 Alpha virt. eigenvalues --    1.26911   1.27909   1.30362   1.31398   1.34468
 Alpha virt. eigenvalues --    1.37608   1.39144   1.40939   1.40972   1.43163
 Alpha virt. eigenvalues --    1.43554   1.44120   1.45740   1.46877   1.48210
 Alpha virt. eigenvalues --    1.48737   1.49967   1.53044   1.53962   1.57635
 Alpha virt. eigenvalues --    1.60332   1.60920   1.61567   1.63382   1.64646
 Alpha virt. eigenvalues --    1.66076   1.66528   1.69135   1.70681   1.72288
 Alpha virt. eigenvalues --    1.74435   1.75502   1.76222   1.77373   1.79584
 Alpha virt. eigenvalues --    1.80846   1.82198   1.83710   1.84764   1.85839
 Alpha virt. eigenvalues --    1.86572   1.87093   1.88783   1.90262   1.91563
 Alpha virt. eigenvalues --    1.92860   1.94224   1.95201   1.95484   1.97611
 Alpha virt. eigenvalues --    1.98806   1.99704   1.99862   2.01541   2.02475
 Alpha virt. eigenvalues --    2.04145   2.05075   2.05200   2.05220   2.05648
 Alpha virt. eigenvalues --    2.05837   2.07274   2.07487   2.08895   2.09233
 Alpha virt. eigenvalues --    2.09364   2.10173   2.10981   2.11763   2.12053
 Alpha virt. eigenvalues --    2.12740   2.12928   2.13133   2.13566   2.14463
 Alpha virt. eigenvalues --    2.14581   2.15143   2.15906   2.16985   2.17826
 Alpha virt. eigenvalues --    2.20390   2.21617   2.22905   2.25356   2.25900
 Alpha virt. eigenvalues --    2.27282   2.29378   2.29968   2.30605   2.31878
 Alpha virt. eigenvalues --    2.32711   2.33855   2.34494   2.35065   2.35884
 Alpha virt. eigenvalues --    2.36928   2.37783   2.38128   2.38917   2.40604
 Alpha virt. eigenvalues --    2.42813   2.44812   2.46984   2.49078   2.49798
 Alpha virt. eigenvalues --    2.51002   2.52661   2.55966   2.56677   2.58269
 Alpha virt. eigenvalues --    2.59392   2.60363   2.62398   2.62567   2.64677
 Alpha virt. eigenvalues --    2.65249   2.67302   2.68091   2.69449   2.69576
 Alpha virt. eigenvalues --    2.70597   2.71065   2.72129   2.74970   2.76270
 Alpha virt. eigenvalues --    2.76922   2.78978   2.79776   2.81062   2.81602
 Alpha virt. eigenvalues --    2.82349   2.83024   2.84258   2.84516   2.84949
 Alpha virt. eigenvalues --    2.85086   2.85651   2.86467   2.88012   2.89830
 Alpha virt. eigenvalues --    2.90488   2.91165   2.92268   2.93356   2.95938
 Alpha virt. eigenvalues --    2.97681   2.99744   3.03670   3.07232   3.11215
 Alpha virt. eigenvalues --    3.18449   3.19511   3.20198   3.20566   3.21168
 Alpha virt. eigenvalues --    3.21899   3.23575   3.25391   3.30768   3.33060
 Alpha virt. eigenvalues --    3.35077   3.38238   3.41361   3.42905   3.43435
 Alpha virt. eigenvalues --    3.44103   3.44243   3.44499   3.45053   3.45218
 Alpha virt. eigenvalues --    3.46161   3.46586   3.48118   3.49187   3.52200
 Alpha virt. eigenvalues --    3.54871   3.55284   3.67034   4.02361   4.14509
 Alpha virt. eigenvalues --    4.20880   4.23618   4.33917   4.41534   4.45552
 Alpha virt. eigenvalues --    4.46034   4.46876   4.51041   4.57110   4.60059
 Alpha virt. eigenvalues --    4.64764   4.67020   4.69961   4.78712   4.82163
          Condensed to atoms (all electrons):
               1          2          3          4          5          6
     1  C    4.818553   0.321718  -0.030412  -0.009776  -0.006780   0.383107
     2  C    0.321718   5.094504   0.341466  -0.048492  -0.015879  -0.048247
     3  C   -0.030412   0.341466   4.818427   0.294210  -0.015831  -0.011606
     4  C   -0.009776  -0.048492   0.294210   5.348128   0.283695   0.001158
     5  C   -0.006780  -0.015879  -0.015831   0.283695   4.356792  -0.001280
     6  H    0.383107  -0.048247  -0.011606   0.001158  -0.001280   0.639047
     7  H   -0.039327   0.376153  -0.043603  -0.007793   0.000743   0.006506
     8  H    0.000398  -0.008022  -0.026399   0.361959  -0.023938   0.000010
     9  H    0.000178   0.005299  -0.027893   0.360831  -0.022835   0.000060
    10  O    0.163206  -0.027989   0.003621  -0.094015   0.260609  -0.040390
    11  O    0.002461  -0.000107   0.001967  -0.080468   0.586207  -0.000017
    12  C    0.373366  -0.036022   0.005176  -0.000517   0.001330  -0.047396
    13  C   -0.037682  -0.009115  -0.000089  -0.000133   0.000309   0.005191
    14  C   -0.037973   0.350768  -0.029002   0.005132   0.000445  -0.005725
    15  O    0.002911  -0.046860   0.187872  -0.025033   0.001710  -0.000044
    16  Si   0.000438  -0.002898  -0.016516   0.001418  -0.000462  -0.000031
    17  C    0.000001  -0.000060  -0.000769  -0.000425   0.000045   0.000000
    18  C   -0.000002  -0.000122   0.000506  -0.002876  -0.000004   0.000000
    19  C    0.000000  -0.000036   0.000943  -0.000034   0.000000   0.000000
    20  H    0.000000   0.000011  -0.000006   0.000066   0.000000   0.000000
    21  H   -0.000006  -0.000026   0.000182  -0.001286  -0.000019   0.000000
    22  H   -0.000001   0.000024  -0.000266   0.000168   0.000002   0.000000
    23  H    0.000000   0.000000  -0.000013   0.000002   0.000000   0.000000
    24  H    0.000000   0.000003  -0.000055   0.000001   0.000000   0.000000
    25  H    0.000000   0.000001  -0.000052  -0.000004   0.000000   0.000000
    26  H    0.000000   0.000001   0.000019   0.000031   0.000000   0.000000
    27  H    0.000000   0.000000  -0.000087  -0.000135   0.000000   0.000000
    28  H    0.000000  -0.000008  -0.000036  -0.000126  -0.000009   0.000000
    29  H    0.004070  -0.029381  -0.008530   0.000320  -0.000023  -0.000035
    30  H   -0.003989  -0.027150   0.004039  -0.000130  -0.000011  -0.000194
    31  H   -0.006046  -0.034756  -0.006016   0.000047  -0.000012   0.006804
    32  H   -0.030480  -0.005493  -0.000053   0.000036  -0.000058  -0.000378
    33  H   -0.030712   0.005156  -0.000083   0.000015   0.000030  -0.005642
    34  H   -0.004931   0.001583  -0.000022  -0.000009   0.000025  -0.000051
    35  H   -0.007160  -0.000565  -0.000126   0.000192   0.000504   0.000251
    36  H    0.004163   0.000213  -0.000002   0.000001  -0.000010  -0.000131
    37  C   -0.001641  -0.056758   0.343368  -0.070182   0.001568   0.004524
    38  C    0.000052   0.004804  -0.036824  -0.006383  -0.000363  -0.000052
    39  C    0.000003  -0.000053  -0.002653   0.000136   0.000011   0.000001
    40  H    0.001725  -0.004760  -0.031464  -0.003970   0.002660   0.000437
    41  H   -0.000442  -0.008543  -0.027360   0.005730  -0.000066   0.000221
    42  H   -0.000017  -0.000073  -0.003719   0.001180   0.000371   0.000010
    43  H    0.000000   0.000002  -0.000007   0.000003  -0.000001   0.000000
    44  H    0.000000  -0.000017   0.000033   0.000018   0.000000   0.000000
               7          8          9         10         11         12
     1  C   -0.039327   0.000398   0.000178   0.163206   0.002461   0.373366
     2  C    0.376153  -0.008022   0.005299  -0.027989  -0.000107  -0.036022
     3  C   -0.043603  -0.026399  -0.027893   0.003621   0.001967   0.005176
     4  C   -0.007793   0.361959   0.360831  -0.094015  -0.080468  -0.000517
     5  C    0.000743  -0.023938  -0.022835   0.260609   0.586207   0.001330
     6  H    0.006506   0.000010   0.000060  -0.040390  -0.000017  -0.047396
     7  H    0.638077   0.004867   0.000081  -0.000300  -0.000032  -0.011721
     8  H    0.004867   0.555568  -0.026928   0.000532  -0.000388  -0.000062
     9  H    0.000081  -0.026928   0.558605   0.002919   0.002444   0.000003
    10  O   -0.000300   0.000532   0.002919   8.341403  -0.083368  -0.049891
    11  O   -0.000032  -0.000388   0.002444  -0.083368   8.070272  -0.000079
    12  C   -0.011721  -0.000062   0.000003  -0.049891  -0.000079   4.942272
    13  C    0.005252   0.000086   0.000002  -0.003385  -0.000011   0.363522
    14  C   -0.040260   0.000004  -0.000131   0.002373   0.000002  -0.002908
    15  O   -0.001065  -0.004032  -0.000093  -0.000002  -0.000014  -0.000038
    16  Si  -0.000053   0.004559   0.002202  -0.000020  -0.000077  -0.000015
    17  C    0.000001  -0.001013  -0.000596   0.000000   0.000001   0.000000
    18  C    0.000711   0.001054  -0.000021   0.000000   0.000000   0.000000
    19  C   -0.000026  -0.000004  -0.000002   0.000000   0.000000   0.000000
    20  H    0.000009  -0.000032   0.000000   0.000000   0.000000   0.000000
    21  H    0.000114   0.003435   0.000000   0.000000   0.000000   0.000000
    22  H    0.000658  -0.000145   0.000004   0.000000   0.000000   0.000000
    23  H    0.000000   0.000001   0.000000   0.000000   0.000000   0.000000
    24  H   -0.000007  -0.000001   0.000000   0.000000   0.000000   0.000000
    25  H    0.000000   0.000001   0.000000   0.000000   0.000000   0.000000
    26  H    0.000000   0.000017   0.000026   0.000000   0.000000   0.000000
    27  H    0.000000   0.000045   0.000310   0.000000   0.000000   0.000000
    28  H   -0.000002   0.000020   0.001511   0.000000  -0.000003   0.000000
    29  H   -0.001670   0.000008  -0.000007  -0.000047   0.000000   0.000013
    30  H   -0.006614  -0.000007   0.000002  -0.000012   0.000000   0.001250
    31  H    0.005442   0.000003   0.000004   0.000029   0.000000  -0.001108
    32  H    0.000191  -0.000001   0.000000   0.003292   0.000001   0.373265
    33  H    0.000078   0.000001  -0.000001   0.000462  -0.000010   0.379806
    34  H    0.002480  -0.000007   0.000000  -0.000062   0.000000  -0.034383
    35  H    0.000676   0.000048  -0.000001   0.007860  -0.000060  -0.037528
    36  H   -0.000161   0.000000   0.000000   0.000074   0.000000  -0.027517
    37  C    0.005990   0.005644  -0.008695  -0.002622   0.000166  -0.000076
    38  C   -0.000123  -0.000007   0.004578   0.000006  -0.000058  -0.000001
    39  C   -0.000001  -0.000009   0.000182   0.000000   0.000000   0.000000
    40  H   -0.000066   0.000017   0.000258   0.001847  -0.000271   0.000181
    41  H    0.000047  -0.000154   0.000017   0.000050   0.000001  -0.000019
    42  H    0.000003   0.000020   0.002072  -0.000004   0.000088   0.000000
    43  H    0.000000   0.000000   0.000012   0.000000   0.000000   0.000000
    44  H    0.000000   0.000001   0.000005   0.000000   0.000000   0.000000
              13         14         15         16         17         18
     1  C   -0.037682  -0.037973   0.002911   0.000438   0.000001  -0.000002
     2  C   -0.009115   0.350768  -0.046860  -0.002898  -0.000060  -0.000122
     3  C   -0.000089  -0.029002   0.187872  -0.016516  -0.000769   0.000506
     4  C   -0.000133   0.005132  -0.025033   0.001418  -0.000425  -0.002876
     5  C    0.000309   0.000445   0.001710  -0.000462   0.000045  -0.000004
     6  H    0.005191  -0.005725  -0.000044  -0.000031   0.000000   0.000000
     7  H    0.005252  -0.040260  -0.001065  -0.000053   0.000001   0.000711
     8  H    0.000086   0.000004  -0.004032   0.004559  -0.001013   0.001054
     9  H    0.000002  -0.000131  -0.000093   0.002202  -0.000596  -0.000021
    10  O   -0.003385   0.002373  -0.000002  -0.000020   0.000000   0.000000
    11  O   -0.000011   0.000002  -0.000014  -0.000077   0.000001   0.000000
    12  C    0.363522  -0.002908  -0.000038  -0.000015   0.000000   0.000000
    13  C    4.924310  -0.000661  -0.000002  -0.000028   0.000000  -0.000003
    14  C   -0.000661   4.966850  -0.008135   0.000304  -0.000001  -0.000007
    15  O   -0.000002  -0.008135   8.316323   0.332850  -0.015835  -0.017427
    16  Si  -0.000028   0.000304   0.332850  11.845011   0.363474   0.363405
    17  C    0.000000  -0.000001  -0.015835   0.363474   5.150553  -0.033544
    18  C   -0.000003  -0.000007  -0.017427   0.363405  -0.033544   5.150672
    19  C    0.000000  -0.000031  -0.025593   0.378462  -0.027482  -0.028787
    20  H    0.000000   0.000000   0.000561  -0.013545  -0.000115   0.367764
    21  H    0.000001   0.000000  -0.000583  -0.026721  -0.001101   0.375659
    22  H   -0.000001   0.000031  -0.000633  -0.025305   0.001212   0.377769
    23  H    0.000000   0.000000   0.000680  -0.014902  -0.000341  -0.000317
    24  H    0.000000  -0.000022  -0.000590  -0.023736   0.001200  -0.001315
    25  H    0.000000   0.000000  -0.000532  -0.022863  -0.001261   0.001191
    26  H    0.000000   0.000000   0.000537  -0.013755   0.366502  -0.000052
    27  H    0.000000   0.000000  -0.000765  -0.024670   0.376737   0.001188
    28  H    0.000000   0.000000  -0.000378  -0.023536   0.376625  -0.001299
    29  H   -0.000012   0.379903   0.010692   0.002398   0.000008  -0.000103
    30  H    0.000370   0.379832   0.000108  -0.000051   0.000000   0.000000
    31  H    0.000085   0.383332   0.000072  -0.000144   0.000000   0.000001
    32  H   -0.035285   0.002380   0.000000  -0.000002   0.000000   0.000000
    33  H   -0.039209  -0.000025   0.000000   0.000001   0.000000   0.000000
    34  H    0.386877   0.000241   0.000003  -0.000002   0.000000  -0.000001
    35  H    0.388625   0.000068   0.000000  -0.000007   0.000000   0.000001
    36  H    0.383305  -0.000013   0.000000   0.000001   0.000000   0.000000
    37  C    0.000003  -0.009574  -0.063915  -0.003381   0.000078  -0.000053
    38  C    0.000000   0.000058   0.000329   0.006213  -0.001179   0.000004
    39  C    0.000000  -0.000009   0.000666   0.005267  -0.000920   0.000001
    40  H   -0.000002   0.000144   0.003860   0.000465  -0.000006   0.000002
    41  H    0.000000   0.003104  -0.001064   0.000289   0.000003   0.000000
    42  H    0.000000  -0.000001  -0.000053  -0.000365   0.000042   0.000001
    43  H    0.000000   0.000000   0.000003   0.000010  -0.000025   0.000000
    44  H    0.000000  -0.000007   0.000070   0.000176  -0.000001   0.000000
              19         20         21         22         23         24
     1  C    0.000000   0.000000  -0.000006  -0.000001   0.000000   0.000000
     2  C   -0.000036   0.000011  -0.000026   0.000024   0.000000   0.000003
     3  C    0.000943  -0.000006   0.000182  -0.000266  -0.000013  -0.000055
     4  C   -0.000034   0.000066  -0.001286   0.000168   0.000002   0.000001
     5  C    0.000000   0.000000  -0.000019   0.000002   0.000000   0.000000
     6  H    0.000000   0.000000   0.000000   0.000000   0.000000   0.000000
     7  H   -0.000026   0.000009   0.000114   0.000658   0.000000  -0.000007
     8  H   -0.000004  -0.000032   0.003435  -0.000145   0.000001  -0.000001
     9  H   -0.000002   0.000000   0.000000   0.000004   0.000000   0.000000
    10  O    0.000000   0.000000   0.000000   0.000000   0.000000   0.000000
    11  O    0.000000   0.000000   0.000000   0.000000   0.000000   0.000000
    12  C    0.000000   0.000000   0.000000   0.000000   0.000000   0.000000
    13  C    0.000000   0.000000   0.000001  -0.000001   0.000000   0.000000
    14  C   -0.000031   0.000000   0.000000   0.000031   0.000000  -0.000022
    15  O   -0.025593   0.000561  -0.000583  -0.000633   0.000680  -0.000590
    16  Si   0.378462  -0.013545  -0.026721  -0.025305  -0.014902  -0.023736
    17  C   -0.027482  -0.000115  -0.001101   0.001212  -0.000341   0.001200
    18  C   -0.028787   0.367764   0.375659   0.377769  -0.000317  -0.001315
    19  C    5.115906  -0.000650   0.001231  -0.001113   0.367948   0.376848
    20  H   -0.000650   0.571790  -0.023525  -0.023941   0.000068  -0.000022
    21  H    0.001231  -0.023525   0.577384  -0.023108  -0.000001   0.000006
    22  H   -0.001113  -0.023941  -0.023108   0.574330  -0.000040   0.000508
    23  H    0.367948   0.000068  -0.000001  -0.000040   0.578006  -0.024344
    24  H    0.376848  -0.000022   0.000006   0.000508  -0.024344   0.574087
    25  H    0.377488   0.000009  -0.000021  -0.000001  -0.024149  -0.022485
    26  H   -0.000789   0.000044  -0.000034   0.000004   0.000026   0.000009
    27  H   -0.001108   0.000009  -0.000001  -0.000020  -0.000043  -0.000003
    28  H    0.001216  -0.000046   0.000563   0.000003  -0.000002  -0.000021
    29  H   -0.000058   0.000000  -0.000001   0.000012   0.000001   0.000318
    30  H    0.000000   0.000000   0.000000   0.000001   0.000000   0.000000
    31  H    0.000001   0.000000   0.000000   0.000000   0.000000   0.000000
    32  H    0.000000   0.000000   0.000000   0.000000   0.000000   0.000000
    33  H    0.000000   0.000000   0.000000   0.000000   0.000000   0.000000
    34  H    0.000000   0.000000   0.000004   0.000024   0.000000   0.000000
    35  H    0.000000   0.000000   0.000001   0.000000   0.000000   0.000000
    36  H    0.000000   0.000000   0.000000   0.000000   0.000000   0.000000
    37  C   -0.000010   0.000001  -0.000006  -0.000003   0.000000  -0.000003
    38  C   -0.000131   0.000000   0.000001   0.000000   0.000000   0.000000
    39  C   -0.000145   0.000000   0.000000   0.000000  -0.000001  -0.000002
    40  H    0.000000   0.000000   0.000000   0.000000   0.000000   0.000000
    41  H   -0.000015   0.000000   0.000000   0.000000   0.000000  -0.000001
    42  H    0.000000   0.000000   0.000000   0.000000   0.000000   0.000000
    43  H    0.000000   0.000000   0.000000   0.000000   0.000000   0.000000
    44  H   -0.000008   0.000000   0.000000   0.000000   0.000000   0.000000
              25         26         27         28         29         30
     1  C    0.000000   0.000000   0.000000   0.000000   0.004070  -0.003989
     2  C    0.000001   0.000001   0.000000  -0.000008  -0.029381  -0.027150
     3  C   -0.000052   0.000019  -0.000087  -0.000036  -0.008530   0.004039
     4  C   -0.000004   0.000031  -0.000135  -0.000126   0.000320  -0.000130
     5  C    0.000000   0.000000   0.000000  -0.000009  -0.000023  -0.000011
     6  H    0.000000   0.000000   0.000000   0.000000  -0.000035  -0.000194
     7  H    0.000000   0.000000   0.000000  -0.000002  -0.001670  -0.006614
     8  H    0.000001   0.000017   0.000045   0.000020   0.000008  -0.000007
     9  H    0.000000   0.000026   0.000310   0.001511  -0.000007   0.000002
    10  O    0.000000   0.000000   0.000000   0.000000  -0.000047  -0.000012
    11  O    0.000000   0.000000   0.000000  -0.000003   0.000000   0.000000
    12  C    0.000000   0.000000   0.000000   0.000000   0.000013   0.001250
    13  C    0.000000   0.000000   0.000000   0.000000  -0.000012   0.000370
    14  C    0.000000   0.000000   0.000000   0.000000   0.379903   0.379832
    15  O   -0.000532   0.000537  -0.000765  -0.000378   0.010692   0.000108
    16  Si  -0.022863  -0.013755  -0.024670  -0.023536   0.002398  -0.000051
    17  C   -0.001261   0.366502   0.376737   0.376625   0.000008   0.000000
    18  C    0.001191  -0.000052   0.001188  -0.001299  -0.000103   0.000000
    19  C    0.377488  -0.000789  -0.001108   0.001216  -0.000058   0.000000
    20  H    0.000009   0.000044   0.000009  -0.000046   0.000000   0.000000
    21  H   -0.000021  -0.000034  -0.000001   0.000563  -0.000001   0.000000
    22  H   -0.000001   0.000004  -0.000020   0.000003   0.000012   0.000001
    23  H   -0.024149   0.000026  -0.000043  -0.000002   0.000001   0.000000
    24  H   -0.022485   0.000009  -0.000003  -0.000021   0.000318   0.000000
    25  H    0.569254  -0.000035   0.000463   0.000007  -0.000007   0.000000
    26  H   -0.000035   0.575562  -0.022845  -0.024061   0.000000   0.000000
    27  H    0.000463  -0.022845   0.566971  -0.023367   0.000000   0.000000
    28  H    0.000007  -0.024061  -0.023367   0.575228   0.000000   0.000000
    29  H   -0.000007   0.000000   0.000000   0.000000   0.564086  -0.027718
    30  H    0.000000   0.000000   0.000000   0.000000  -0.027718   0.597153
    31  H    0.000000   0.000000   0.000000   0.000000  -0.028298  -0.032099
    32  H    0.000000   0.000000   0.000000   0.000000  -0.000005   0.001120
    33  H    0.000000   0.000000   0.000000   0.000000   0.000002  -0.000020
    34  H    0.000000   0.000000   0.000000   0.000000  -0.000012   0.000751
    35  H    0.000000   0.000000   0.000000   0.000000   0.000002  -0.000022
    36  H    0.000000   0.000000   0.000000   0.000000   0.000000  -0.000039
    37  C    0.000014   0.000001   0.000017   0.000031  -0.000569   0.000110
    38  C    0.000005   0.000018   0.001801  -0.000074  -0.000061  -0.000001
    39  C    0.000098   0.000010   0.001789  -0.000022   0.000000   0.000000
    40  H    0.000000   0.000000   0.000003  -0.000001   0.000036  -0.000015
    41  H    0.000000   0.000000   0.000003  -0.000001   0.001235  -0.000116
    42  H    0.000000   0.000002   0.000103  -0.000007   0.000000   0.000000
    43  H   -0.000001   0.000000   0.000162   0.000000   0.000000   0.000000
    44  H    0.000057   0.000000  -0.000012   0.000000   0.000003   0.000000
              31         32         33         34         35         36
     1  C   -0.006046  -0.030480  -0.030712  -0.004931  -0.007160   0.004163
     2  C   -0.034756  -0.005493   0.005156   0.001583  -0.000565   0.000213
     3  C   -0.006016  -0.000053  -0.000083  -0.000022  -0.000126  -0.000002
     4  C    0.000047   0.000036   0.000015  -0.000009   0.000192   0.000001
     5  C   -0.000012  -0.000058   0.000030   0.000025   0.000504  -0.000010
     6  H    0.006804  -0.000378  -0.005642  -0.000051   0.000251  -0.000131
     7  H    0.005442   0.000191   0.000078   0.002480   0.000676  -0.000161
     8  H    0.000003  -0.000001   0.000001  -0.000007   0.000048   0.000000
     9  H    0.000004   0.000000  -0.000001   0.000000  -0.000001   0.000000
    10  O    0.000029   0.003292   0.000462  -0.000062   0.007860   0.000074
    11  O    0.000000   0.000001  -0.000010   0.000000  -0.000060   0.000000
    12  C   -0.001108   0.373265   0.379806  -0.034383  -0.037528  -0.027517
    13  C    0.000085  -0.035285  -0.039209   0.386877   0.388625   0.383305
    14  C    0.383332   0.002380  -0.000025   0.000241   0.000068  -0.000013
    15  O    0.000072   0.000000   0.000000   0.000003   0.000000   0.000000
[...]
    13  C    0.000000   0.000000   0.000001  -0.000001   0.000000   0.000000
    14  C   -0.000031   0.000000  -0.000001   0.000031   0.000000  -0.000022
    15  O   -0.025664   0.000566  -0.000597  -0.000631   0.000681  -0.000595
    16  Si   0.378269  -0.013515  -0.026619  -0.025253  -0.014881  -0.023642
    17  C   -0.027307  -0.000068  -0.001161   0.001224  -0.000386   0.001197
    18  C   -0.028891   0.367880   0.375688   0.377750  -0.000277  -0.001326
    19  C    5.116148  -0.000623   0.001226  -0.001109   0.367976   0.376874
    20  H   -0.000623   0.571936  -0.023706  -0.023853   0.000054  -0.000025
    21  H    0.001226  -0.023706   0.578134  -0.023249  -0.000001   0.000007
    22  H   -0.001109  -0.023853  -0.023249   0.574646  -0.000037   0.000502
    23  H    0.367976   0.000054  -0.000001  -0.000037   0.577969  -0.024378
    24  H    0.376874  -0.000025   0.000007   0.000502  -0.024378   0.574099
    25  H    0.377388   0.000009  -0.000021  -0.000002  -0.024085  -0.022530
    26  H   -0.000841   0.000034  -0.000031   0.000003   0.000045   0.000010
    27  H   -0.001022   0.000009   0.000001  -0.000020  -0.000038  -0.000005
    28  H    0.001211  -0.000051   0.000607   0.000006  -0.000002  -0.000021
    29  H   -0.000056   0.000000  -0.000001   0.000016   0.000001   0.000304
    30  H    0.000000   0.000000   0.000000   0.000001   0.000000   0.000000
    31  H    0.000001   0.000000   0.000000   0.000000   0.000000   0.000000
    32  H    0.000000   0.000000   0.000000   0.000000   0.000000   0.000000
    33  H    0.000000   0.000000   0.000000   0.000000   0.000000   0.000000
    34  H    0.000000   0.000000   0.000003   0.000019   0.000000   0.000000
    35  H    0.000000   0.000000   0.000001   0.000000   0.000000   0.000000
    36  H    0.000000   0.000000   0.000000   0.000000   0.000000   0.000000
    37  C   -0.000005   0.000001  -0.000005  -0.000003   0.000000  -0.000003
    38  C   -0.000141   0.000000   0.000001   0.000000   0.000000   0.000000
    39  C   -0.000164   0.000000   0.000000   0.000000  -0.000001  -0.000003
    40  H    0.000000   0.000000   0.000000   0.000000   0.000000   0.000000
    41  H   -0.000016   0.000000   0.000000   0.000000   0.000000   0.000000
    42  H    0.000000   0.000000   0.000000   0.000000   0.000000   0.000000
    43  H    0.000000   0.000000   0.000000   0.000000   0.000000   0.000000
    44  H   -0.000010   0.000000   0.000000   0.000000   0.000000  -0.000001
              25         26         27         28         29         30
     1  C    0.000000   0.000000   0.000000   0.000000   0.004082  -0.004071
     2  C    0.000001   0.000001   0.000000  -0.000007  -0.029258  -0.027191
     3  C   -0.000055   0.000018  -0.000092  -0.000038  -0.008548   0.004043
     4  C   -0.000005   0.000032  -0.000182  -0.000115   0.000316  -0.000129
     5  C    0.000000   0.000000   0.000000  -0.000008  -0.000023  -0.000011
     6  H    0.000000   0.000000   0.000000   0.000000  -0.000045  -0.000192
     7  H    0.000000   0.000000   0.000000  -0.000002  -0.001702  -0.006599
     8  H    0.000001   0.000017   0.000045   0.000060   0.000008  -0.000007
     9  H    0.000000   0.000028   0.000391   0.001413  -0.000007   0.000002
    10  O    0.000000   0.000000   0.000000   0.000000  -0.000048  -0.000011
    11  O    0.000000   0.000000   0.000000  -0.000002   0.000000   0.000000
    12  C    0.000000   0.000000   0.000000   0.000000   0.000019   0.001283
    13  C    0.000000   0.000000   0.000000   0.000000  -0.000012   0.000380
    14  C    0.000000   0.000000   0.000000   0.000000   0.379914   0.379873
    15  O   -0.000535   0.000532  -0.000752  -0.000329   0.010710   0.000113
    16  Si  -0.022884  -0.013790  -0.024387  -0.023532   0.002417  -0.000051
    17  C   -0.001232   0.366749   0.376215   0.376528   0.000009   0.000000
    18  C    0.001193  -0.000014   0.001190  -0.001388  -0.000108   0.000000
    19  C    0.377388  -0.000841  -0.001022   0.001211  -0.000056   0.000000
    20  H    0.000009   0.000034   0.000009  -0.000051   0.000000   0.000000
    21  H   -0.000021  -0.000031   0.000001   0.000607  -0.000001   0.000000
    22  H   -0.000002   0.000003  -0.000020   0.000006   0.000016   0.000001
    23  H   -0.024085   0.000045  -0.000038  -0.000002   0.000001   0.000000
    24  H   -0.022530   0.000010  -0.000005  -0.000021   0.000304   0.000000
    25  H    0.569420  -0.000033   0.000422   0.000006  -0.000007   0.000000
    26  H   -0.000033   0.575196  -0.022720  -0.024068   0.000000   0.000000
    27  H    0.000422  -0.022720   0.566891  -0.023533   0.000000   0.000000
    28  H    0.000006  -0.024068  -0.023533   0.575718   0.000000   0.000000
    29  H   -0.000007   0.000000   0.000000   0.000000   0.563881  -0.027716
    30  H    0.000000   0.000000   0.000000   0.000000  -0.027716   0.597168
    31  H    0.000000   0.000000   0.000000   0.000000  -0.028302  -0.032137
    32  H    0.000000   0.000000   0.000000   0.000000  -0.000004   0.001056
    33  H    0.000000   0.000000   0.000000   0.000000   0.000002  -0.000018
    34  H    0.000000   0.000000   0.000000   0.000000  -0.000014   0.000818
    35  H    0.000000   0.000000   0.000000   0.000000   0.000002  -0.000023
    36  H    0.000000   0.000000   0.000000   0.000000   0.000000  -0.000041
    37  C    0.000014   0.000001   0.000007   0.000031  -0.000535   0.000101
    38  C    0.000009   0.000018   0.002062  -0.000061  -0.000059  -0.000001
    39  C    0.000124   0.000011   0.001986  -0.000019   0.000000   0.000000
    40  H    0.000000   0.000000   0.000003  -0.000001   0.000034  -0.000014
    41  H    0.000000   0.000000   0.000003  -0.000001   0.001198  -0.000113
    42  H    0.000001   0.000002   0.000118  -0.000010   0.000000   0.000000
    43  H   -0.000002   0.000000   0.000169   0.000000   0.000000   0.000000
    44  H    0.000075   0.000000  -0.000012   0.000000   0.000003   0.000000
              31         32         33         34         35         36
     1  C   -0.005976  -0.030543  -0.030802  -0.004983  -0.007221   0.004180
     2  C   -0.034768  -0.005579   0.005184   0.001621  -0.000601   0.000214
     3  C   -0.006005  -0.000053  -0.000083  -0.000018  -0.000126  -0.000002
     4  C    0.000049   0.000035   0.000014  -0.000009   0.000193   0.000001
     5  C   -0.000011  -0.000059   0.000031   0.000024   0.000493  -0.000010
     6  H    0.006657  -0.000359  -0.005648  -0.000051   0.000255  -0.000131
     7  H    0.005444   0.000208   0.000074   0.002392   0.000714  -0.000159
     8  H    0.000003  -0.000001   0.000001  -0.000008   0.000041   0.000000
     9  H    0.000004   0.000000  -0.000001   0.000000  -0.000001   0.000000
    10  O    0.000028   0.003312   0.000476  -0.000060   0.008004   0.000077
    11  O    0.000000   0.000001  -0.000010   0.000000  -0.000058   0.000000
    12  C   -0.001140   0.373323   0.379762  -0.034398  -0.037514  -0.027562
    13  C    0.000090  -0.035215  -0.039168   0.386881   0.388639   0.383240
    14  C    0.383331   0.002440  -0.000023   0.000245   0.000073  -0.000012
    15  O    0.000068   0.000000   0.000000   0.000003   0.000000   0.000000
    16  Si  -0.000144  -0.000002   0.000001  -0.000002  -0.000007   0.000001
    17  C    0.000000   0.000000   0.000000   0.000000   0.000000   0.000000
    18  C    0.000001   0.000000   0.000000  -0.000002   0.000001   0.000000
    19  C    0.000001   0.000000   0.000000   0.000000   0.000000   0.000000
    20  H    0.000000   0.000000   0.000000   0.000000   0.000000   0.000000
    21  H    0.000000   0.000000   0.000000   0.000003   0.000001   0.000000
    22  H    0.000000   0.000000   0.000000   0.000019   0.000000   0.000000
    23  H    0.000000   0.000000   0.000000   0.000000   0.000000   0.000000
    24  H    0.000000   0.000000   0.000000   0.000000   0.000000   0.000000
    25  H    0.000000   0.000000   0.000000   0.000000   0.000000   0.000000
    26  H    0.000000   0.000000   0.000000   0.000000   0.000000   0.000000
    27  H    0.000000   0.000000   0.000000   0.000000   0.000000   0.000000
    28  H    0.000000   0.000000   0.000000   0.000000   0.000000   0.000000
    29  H   -0.028302  -0.000004   0.000002  -0.000014   0.000002   0.000000
    30  H   -0.032137   0.001056  -0.000018   0.000818  -0.000023  -0.000041
    31  H    0.596903   0.000523  -0.000037  -0.000020  -0.000001   0.000002
    32  H    0.000523   0.614162  -0.032307  -0.005173   0.005282  -0.002337
    33  H   -0.000037  -0.032307   0.609214   0.005015  -0.003337  -0.004417
    34  H   -0.000020  -0.005173   0.005015   0.599295  -0.032467  -0.030374
    35  H   -0.000001   0.005282  -0.003337  -0.032467   0.588076  -0.029888
    36  H    0.000002  -0.002337  -0.004417  -0.030374  -0.029888   0.595375
    37  C    0.001802  -0.000005   0.000000  -0.000002   0.000001   0.000000
    38  C   -0.000006   0.000000   0.000000   0.000000   0.000000   0.000000
    39  C   -0.000004   0.000000   0.000000   0.000000   0.000000   0.000000
    40  H    0.000017   0.000000   0.000001   0.000000   0.000000   0.000000
    41  H    0.002334  -0.000001   0.000001   0.000000   0.000000   0.000000
    42  H    0.000001   0.000000   0.000000   0.000000   0.000000   0.000000
    43  H    0.000000   0.000000   0.000000   0.000000   0.000000   0.000000
    44  H   -0.000002   0.000000   0.000000   0.000000   0.000000   0.000000
              37         38         39         40         41         42
     1  C   -0.001755   0.000058   0.000003   0.001673  -0.000422  -0.000018
     2  C   -0.056572   0.004796  -0.000053  -0.004862  -0.008398  -0.000072
     3  C    0.343043  -0.036729  -0.002639  -0.031530  -0.027229  -0.003703
     4  C   -0.070123  -0.006423   0.000138  -0.003789   0.005699   0.001124
     5  C    0.001558  -0.000367   0.000011   0.002559  -0.000064   0.000378
     6  H    0.004464  -0.000054   0.000001   0.000550   0.000235   0.000011
     7  H    0.005997  -0.000122  -0.000001  -0.000065   0.000040   0.000003
     8  H    0.005630  -0.000003  -0.000010   0.000011  -0.000153   0.000020
     9  H   -0.008800   0.004689   0.000191   0.000254   0.000022   0.002068
    10  O   -0.002514   0.000004   0.000000   0.001743   0.000048  -0.000004
    11  O    0.000152  -0.000057   0.000000  -0.000253   0.000001   0.000085
    12  C   -0.000069  -0.000001   0.000000   0.000181  -0.000020   0.000000
    13  C    0.000003   0.000000   0.000000  -0.000002   0.000000   0.000000
    14  C   -0.009499   0.000057  -0.000009   0.000157   0.003034  -0.000001
    15  O   -0.063859   0.000378   0.000653   0.003868  -0.001080  -0.000038
    16  Si  -0.003441   0.006284   0.005418   0.000471   0.000299  -0.000354
    17  C    0.000081  -0.001333  -0.001023  -0.000006   0.000003   0.000029
    18  C   -0.000052   0.000004   0.000001   0.000002   0.000000   0.000001
    19  C   -0.000005  -0.000141  -0.000164   0.000000  -0.000016   0.000000
    20  H    0.000001   0.000000   0.000000   0.000000   0.000000   0.000000
    21  H   -0.000005   0.000001   0.000000   0.000000   0.000000   0.000000
    22  H   -0.000003   0.000000   0.000000   0.000000   0.000000   0.000000
    23  H    0.000000   0.000000  -0.000001   0.000000   0.000000   0.000000
    24  H   -0.000003   0.000000  -0.000003   0.000000   0.000000   0.000000
    25  H    0.000014   0.000009   0.000124   0.000000   0.000000   0.000001
    26  H    0.000001   0.000018   0.000011   0.000000   0.000000   0.000002
    27  H    0.000007   0.002062   0.001986   0.000003   0.000003   0.000118
    28  H    0.000031  -0.000061  -0.000019  -0.000001  -0.000001  -0.000010
    29  H   -0.000535  -0.000059   0.000000   0.000034   0.001198   0.000000
    30  H    0.000101  -0.000001   0.000000  -0.000014  -0.000113   0.000000
    31  H    0.001802  -0.000006  -0.000004   0.000017   0.002334   0.000001
    32  H   -0.000005   0.000000   0.000000   0.000000  -0.000001   0.000000
    33  H    0.000000   0.000000   0.000000   0.000001   0.000001   0.000000
    34  H   -0.000002   0.000000   0.000000   0.000000   0.000000   0.000000
    35  H    0.000001   0.000000   0.000000   0.000000   0.000000   0.000000
    36  H    0.000000   0.000000   0.000000   0.000000   0.000000   0.000000
    37  C    5.060281   0.384308  -0.035102   0.356624   0.374019  -0.051727
    38  C    0.384308   4.744356   0.671142  -0.033034  -0.037978   0.381776
    39  C   -0.035102   0.671142   4.907637   0.001158  -0.007579  -0.044236
    40  H    0.356624  -0.033034   0.001158   0.626230  -0.031139  -0.002715
    41  H    0.374019  -0.037978  -0.007579  -0.031139   0.600813   0.005004
    42  H   -0.051727   0.381776  -0.044236  -0.002715   0.005004   0.615765
    43  H    0.004714  -0.025427   0.375482  -0.000210   0.000079  -0.008619
    44  H   -0.012468  -0.034417   0.382014   0.000159   0.006766   0.005916
              43         44
     1  C    0.000000   0.000000
     2  C    0.000002  -0.000017
     3  C   -0.000007   0.000030
     4  C    0.000003   0.000018
     5  C   -0.000001   0.000000
     6  H    0.000000   0.000000
     7  H    0.000000   0.000000
     8  H    0.000000   0.000001
     9  H    0.000012   0.000005
    10  O    0.000000   0.000000
    11  O    0.000000   0.000000
    12  C    0.000000   0.000000
    13  C    0.000000   0.000000
    14  C    0.000000  -0.000006
    15  O    0.000002   0.000074
    16  Si   0.000011   0.000181
    17  C   -0.000026  -0.000002
    18  C    0.000000   0.000000
    19  C    0.000000  -0.000010
    20  H    0.000000   0.000000
    21  H    0.000000   0.000000
    22  H    0.000000   0.000000
    23  H    0.000000   0.000000
    24  H    0.000000  -0.000001
    25  H   -0.000002   0.000075
    26  H    0.000000   0.000000
    27  H    0.000169  -0.000012
    28  H    0.000000   0.000000
    29  H    0.000000   0.000003
    30  H    0.000000   0.000000
    31  H    0.000000  -0.000002
    32  H    0.000000   0.000000
    33  H    0.000000   0.000000
    34  H    0.000000   0.000000
    35  H    0.000000   0.000000
    36  H    0.000000   0.000000
    37  C    0.004714  -0.012468
    38  C   -0.025427  -0.034417
    39  C    0.375482   0.382014
    40  H   -0.000210   0.000159
    41  H    0.000079   0.006766
    42  H   -0.008619   0.005916
    43  H    0.592791  -0.043779
    44  H   -0.043779   0.592628
 Mulliken charges:
               1
     1  C    0.170518
     2  C   -0.090069
     3  C    0.318090
     4  C   -0.312608
     5  C    0.590673
     6  H    0.113919
     7  H    0.104651
     8  H    0.153396
     9  H    0.145748
    10  O   -0.485767
    11  O   -0.498890
    12  C   -0.190921
    13  C   -0.332346
    14  C   -0.340467
    15  O   -0.646240
    16  Si   0.906374
    17  C   -0.552924
    18  C   -0.553207
    19  C   -0.534049
    20  H    0.121308
    21  H    0.117404
    22  H    0.119565
    23  H    0.117369
    24  H    0.119612
    25  H    0.122729
    26  H    0.118801
    27  H    0.123250
    28  H    0.117608
    29  H    0.133527
    30  H    0.113487
    31  H    0.111299
    32  H    0.111298
    33  H    0.116076
    34  H    0.111263
    35  H    0.119471
    36  H    0.111844
    37  C   -0.226294
    38  C   -0.023727
    39  C   -0.255130
    40  H    0.111926
    41  H    0.114594
    42  H    0.099194
    43  H    0.104804
    44  H    0.102843
 Sum of Mulliken charges =   0.00000
 Mulliken charges with hydrogens summed into heavy atoms:
               1
     1  C    0.284437
     2  C    0.014582
     3  C    0.318090
     4  C   -0.013465
     5  C    0.590673
    10  O   -0.485767
    11  O   -0.498890
    12  C    0.036452
    13  C    0.010232
    14  C    0.017846
    15  O   -0.646240
    16  Si   0.906374
    17  C   -0.193265
    18  C   -0.194930
    19  C   -0.174339
    37  C    0.000226
    38  C    0.075467
    39  C   -0.047483
 Electronic spatial extent (au):  <R**2>=           5375.2843
 Charge=              0.0000 electrons
 Dipole moment (field-independent basis, Debye):
    X=              1.5749    Y=             -2.9153    Z=             -3.2740  Tot=              4.6581
 Quadrupole moment (field-independent basis, Debye-Ang):
   XX=           -118.1910   YY=           -119.8003   ZZ=           -124.7750
   XY=              7.1699   XZ=             12.8244   YZ=             -7.4229
 Traceless Quadrupole moment (field-independent basis, Debye-Ang):
   XX=              2.7311   YY=              1.1218   ZZ=             -3.8529
   XY=              7.1699   XZ=             12.8244   YZ=             -7.4229
 Octapole moment (field-independent basis, Debye-Ang**2):
  XXX=              0.3666  YYY=             -5.7167  ZZZ=            -23.2647  XYY=             11.6371
  XXY=            -20.3195  XXZ=            -22.1454  XZZ=             15.0749  YZZ=            -18.8773
  YYZ=             -8.9325  XYZ=             12.3433
 Hexadecapole moment (field-independent basis, Debye-Ang**3):
 XXXX=          -3975.1992 YYYY=          -1929.8130 ZZZZ=          -1329.6517 XXXY=             36.2451
 XXXZ=             64.2121 YYYX=             15.8283 YYYZ=             25.4073 ZZZX=             30.5278
 ZZZY=            -44.3731 XXYY=           -967.5889 XXZZ=           -923.3673 YYZZ=           -569.1609
 XXYZ=            -50.7075 YYXZ=             29.8619 ZZXY=             39.2319
 N-N= 1.630429757670D+03 E-N=-5.751182358269D+03  KE= 1.055898673749D+03
 1\1\GINC-SWANNODE-0-15\FOpt\RB3LYP\6-31G(d,p)\C14H26O3Si1\KE291\06-Feb
 -2019\0\\# b3lyp/6-31g(d,p) Opt=(maxcycles=50) scrf=(solvent=chlorofor
 m)\\P_ng_2ginp015\\0,1\C,-0.0341469362,-0.1313651321,1.0281800132\C,-0
 .8409474116,1.0302752116,0.4299649821\C,-2.0287758729,1.4323858313,1.3
 522777606\C,-1.4095118555,1.8257648178,2.7032079451\C,-0.4657749296,0.
 7976431641,3.2987312803\H,-0.6255657109,-1.0506561241,0.9363162683\H,-
 0.1987821411,1.919230016,0.3971050691\H,-0.8081387564,2.7326501552,2.5
 641936494\H,-2.1600794064,2.0552114071,3.4602021262\O,0.2326712476,0.0
 045641265,2.4615438946\O,-0.265834275,0.7089760402,4.4922247736\C,1.33
 40495274,-0.3883984195,0.3842219706\C,2.3109545645,0.7904612059,0.4273
 717821\C,-1.2642133401,0.7031617986,-1.0095882612\O,-2.7088813176,2.51
 9154405,0.7418561107\Si,-2.9189409234,4.1682014484,0.9808449546\C,-3.7
 004965894,4.5532517242,2.6546408394\C,-1.2912498321,5.1108227328,0.802
 2055567\C,-4.0908236129,4.6621388707,-0.4049823308\H,-1.4824283998,6.1
 904125185,0.8214168092\H,-0.5823522953,4.8950715381,1.6085377918\H,-0.
 8000403902,4.8791768129,-0.1489327125\H,-4.318143396,5.7331575023,-0.3
 611380781\H,-3.6529527175,4.452777465,-1.3865457046\H,-5.0367470306,4.
 1153323294,-0.3357568385\H,-4.0131178113,5.6036453059,2.6855216008\H,-
 4.5869443202,3.9337998853,2.8230217478\H,-3.0117447146,4.3922151937,3.
 4899997897\H,-1.9579828609,1.4635749351,-1.373012984\H,-0.3995875907,0
 .6862483518,-1.6782974175\H,-1.7570742211,-0.2721930338,-1.0806743777\
 H,1.1698647492,-0.7102904657,-0.6498466715\H,1.7736905195,-1.245937011
 3,0.9054304033\H,1.971226948,1.6321986622,-0.1840891109\H,2.4487688401
 ,1.1476832596,1.4522642336\H,3.2895779424,0.4841512676,0.0463235393\C,
 -3.0651537611,0.2836459751,1.5091770283\C,-4.2337002643,0.5952779803,2
 .4048501795\C,-5.4984912743,0.6931209555,1.9922176081\H,-2.5505067798,
 -0.6044574236,1.899848711\H,-3.43575799,0.029315553,0.5119911755\H,-4.
 0196232068,0.7182360841,3.466235391\H,-6.310108226,0.8976786502,2.6844
 078993\H,-5.7681221769,0.5647504283,0.9464836025\\Version=EM64L-G09Rev
 D.01\State=1-A\HF=-1064.4226953\RMSD=4.916e-09\RMSF=5.788e-06\Dipole=-
 0.3320997,0.4944467,-1.7331481\Quadrupole=2.2639309,5.191326,-7.455256
 9,0.7974232,-8.2444261,6.6226867\PG=C01 [X(C14H26O3Si1)]\\@


 NEVER TEACH A PIG TO SING.
 IT WASTES YOUR TIME AND ANNOYS THE PIG.
     -- SEEN ON A GREETING CARD
 Job cpu time:       0 days  4 hours 13 minutes 17.5 seconds.
 File lengths (MBytes):  RWF=    383 Int=      0 D2E=      0 Chk=     15 Scr=      1
 Normal termination of Gaussian 09 at Wed Feb  6 15:03:45 2019.
