 Entering Gaussian System, Link 0=/usr/local/Cluster-Apps/gaussian/g09/g09
 Initial command:
 /usr/local/Cluster-Apps/gaussian/g09/l1.exe "/home/ke291/rds/hpc-work/06Feb0927IP1/Gau-172808.inp" -scrdir="/home/ke291/rds/hpc-work/06Feb0927IP1/"
 Entering Link 1 = /usr/local/Cluster-Apps/gaussian/g09/l1.exe PID=    172814.
  
 Copyright (c) 1988,1990,1992,1993,1995,1998,2003,2009,2013,
            Gaussian, Inc.  All Rights Reserved.
  
 This is part of the Gaussian(R) 09 program.  It is based on
 the Gaussian(R) 03 system (copyright 2003, Gaussian, Inc.),
 the Gaussian(R) 98 system (copyright 1998, Gaussian, Inc.),
 the Gaussian(R) 94 system (copyright 1995, Gaussian, Inc.),
 the Gaussian 92(TM) system (copyright 1992, Gaussian, Inc.),
 the Gaussian 90(TM) system (copyright 1990, Gaussian, Inc.),
 the Gaussian 88(TM) system (copyright 1988, Gaussian, Inc.),
 the Gaussian 86(TM) system (copyright 1986, Carnegie Mellon
 University), and the Gaussian 82(TM) system (copyright 1983,
 Carnegie Mellon University). Gaussian is a federally registered
 trademark of Gaussian, Inc.
  
 This software contains proprietary and confidential information,
 including trade secrets, belonging to Gaussian, Inc.
  
 This software is provided under written license and may be
 used, copied, transmitted, or stored only in accord with that
 written license.
  
 The following legend is applicable only to US Government
 contracts under FAR:
  
                    RESTRICTED RIGHTS LEGEND
  
 Use, reproduction and disclosure by the US Government is
 subject to restrictions as set forth in subparagraphs (a)
 and (c) of the Commercial Computer Software - Restricted
 Rights clause in FAR 52.227-19.
  
 Gaussian, Inc.
 340 Quinnipiac St., Bldg. 40, Wallingford CT 06492
  
  
 ---------------------------------------------------------------
 Warning -- This program may not be used in any manner that
 competes with the business of Gaussian, Inc. or will provide
 assistance to any competitor of Gaussian, Inc.  The licensee
 of this program is prohibited from giving any competitor of
 Gaussian, Inc. access to this program.  By using this program,
 the user acknowledges that Gaussian, Inc. is engaged in the
 business of creating and licensing software in the field of
 computational chemistry and represents and warrants to the
 licensee that it is not a competitor of Gaussian, Inc. and that
 it will not use this program in any manner prohibited above.
 ---------------------------------------------------------------
  

 Cite this work as:
 Gaussian 09, Revision D.01,
 M. J. Frisch, G. W. Trucks, H. B. Schlegel, G. E. Scuseria, 
 M. A. Robb, J. R. Cheeseman, G. Scalmani, V. Barone, B. Mennucci, 
 G. A. Petersson, H. Nakatsuji, M. Caricato, X. Li, H. P. Hratchian, 
 A. F. Izmaylov, J. Bloino, G. Zheng, J. L. Sonnenberg, M. Hada, 
 M. Ehara, K. Toyota, R. Fukuda, J. Hasegawa, M. Ishida, T. Nakajima, 
 Y. Honda, O. Kitao, H. Nakai, T. Vreven, J. A. Montgomery, Jr., 
 J. E. Peralta, F. Ogliaro, M. Bearpark, J. J. Heyd, E. Brothers, 
 K. N. Kudin, V. N. Staroverov, T. Keith, R. Kobayashi, J. Normand, 
 K. Raghavachari, A. Rendell, J. C. Burant, S. S. Iyengar, J. Tomasi, 
 M. Cossi, N. Rega, J. M. Millam, M. Klene, J. E. Knox, J. B. Cross, 
 V. Bakken, C. Adamo, J. Jaramillo, R. Gomperts, R. E. Stratmann, 
 O. Yazyev, A. J. Austin, R. Cammi, C. Pomelli, J. W. Ochterski, 
 R. L. Martin, K. Morokuma, V. G. Zakrzewski, G. A. Voth, 
 P. Salvador, J. J. Dannenberg, S. Dapprich, A. D. Daniels, 
 O. Farkas, J. B. Foresman, J. V. Ortiz, J. Cioslowski, 
 and D. J. Fox, Gaussian, Inc., Wallingford CT, 2013.
 
 ******************************************
 Gaussian 09:  ES64L-G09RevD.01 24-Apr-2013
                 6-Feb-2019 
 ******************************************
 %nprocshared=2
 Will use up to    2 processors via shared memory.
 %mem=6000MB
 %chk=/home/ke291/rds/hpc-work/06Feb0927IP1/P_ng_2ginp005.chk
 ---------------------------------------------------------------
 # b3lyp/6-31g(d,p) Opt=(maxcycles=25) scrf=(solvent=chloroform)
 ---------------------------------------------------------------
 1/6=25,14=-1,18=20,19=15,26=3,38=1/1,3;
 2/9=110,12=2,17=6,18=5,40=1/2;
 3/5=1,6=6,7=101,11=2,16=1,25=1,30=1,70=2201,71=1,72=7,74=-5/1,2,3;
 4//1;
 5/5=2,38=5,53=7/2;
 6/7=2,8=2,9=2,10=2,28=1/1;
 7//1,2,3,16;
 1/6=25,14=-1,18=20,19=15,26=3/3(2);
 2/9=110/2;
 99//99;
 2/9=110/2;
 3/5=1,6=6,7=101,11=2,16=1,25=1,30=1,70=2205,71=1,72=7,74=-5/1,2,3;
 4/5=5,16=3,69=1/1;
 5/5=2,38=5,53=7/2;
 7//1,2,3,16;
 1/6=25,14=-1,18=20,19=15,26=3/3(-5);
 2/9=110/2;
 6/7=2,8=2,9=2,10=2,19=2,28=1/1;
 99/9=1/99;
 -------------
 P_ng_2ginp005
 -------------
 Symbolic Z-matrix:
 Charge =  0 Multiplicity = 1
 C                    -0.0393    0.26154   1.13711 
 C                    -1.04469   1.12766   0.35935 
 C                    -2.3471    1.29039   1.21924 
 C                    -2.03944   1.19684   2.73073 
 C                    -0.63212   1.58542   3.07472 
 H                    -0.48372  -0.69453   1.44069 
 H                    -0.58851   2.11831   0.25846 
 H                    -2.73383   1.79615   3.32531 
 H                    -2.13337   0.1651    3.09608 
 O                     0.33131   0.99161   2.33006 
 O                    -0.35918   2.3305    4.00803 
 C                     1.25668  -0.02859   0.36521 
 C                     2.25791  -0.83081   1.18873 
 C                    -1.29656   0.66329  -1.07866 
 O                    -3.05074   2.47798   0.79726 
 Si                   -2.7863    4.07742   1.20841 
 C                    -3.36623   4.47454   2.95102 
 C                    -1.00976   4.64109   1.01394 
 C                    -3.82476   5.15636   0.03956 
 H                    -0.92237   5.70742   1.2444 
 H                    -0.34087   4.09935   1.68686 
 H                    -0.66427   4.4914   -0.0132 
 H                    -4.88485   4.90542   0.13691 
 H                    -3.69094   6.21494   0.2798 
 H                    -3.51922   4.9903   -0.99742 
 H                    -4.35783   4.04988   3.13277 
 H                    -2.67573   4.07862   3.70002 
 H                    -3.42693   5.55773   3.09422 
 H                    -2.09266   1.25056  -1.54814 
 H                    -0.40175   0.80099  -1.69481 
 H                    -1.56839  -0.39603  -1.12249 
 H                     1.73327   0.91431   0.07101 
 H                     1.0378   -0.59265  -0.54751 
 H                     3.14527  -1.05416   0.58782 
 H                     2.58506  -0.27658   2.07382 
 H                     1.82271  -1.7801    1.51684 
 C                    -3.36414   0.1318    0.89343 
 C                    -4.61988   0.14676   1.73356 
 C                    -5.02457  -0.86691   2.50914 
 H                    -2.86465  -0.84037   0.99027 
 H                    -3.70618   0.21868  -0.14555 
 H                    -5.22949   1.04765   1.677 
 H                    -5.94507  -0.79173   3.08101 
 H                    -4.46007  -1.79025   2.59098 
 

 GradGradGradGradGradGradGradGradGradGradGradGradGradGradGradGradGradGrad
 Berny optimization.
 Initialization pass.
                           ----------------------------
                           !    Initial Parameters    !
                           ! (Angstroms and Degrees)  !
 --------------------------                            --------------------------
 ! Name  Definition              Value          Derivative Info.                !
 --------------------------------------------------------------------------------
 ! R1    R(1,2)                  1.5381         estimate D2E/DX2                !
 ! R2    R(1,6)                  1.0972         estimate D2E/DX2                !
 ! R3    R(1,10)                 1.4469         estimate D2E/DX2                !
 ! R4    R(1,12)                 1.5361         estimate D2E/DX2                !
 ! R5    R(2,3)                  1.5691         estimate D2E/DX2                !
 ! R6    R(2,7)                  1.0953         estimate D2E/DX2                !
 ! R7    R(2,14)                 1.532          estimate D2E/DX2                !
 ! R8    R(3,4)                  1.5453         estimate D2E/DX2                !
 ! R9    R(3,15)                 1.4435         estimate D2E/DX2                !
 ! R10   R(3,37)                 1.5757         estimate D2E/DX2                !
 ! R11   R(4,5)                  1.5            estimate D2E/DX2                !
 ! R12   R(4,8)                  1.0931         estimate D2E/DX2                !
 ! R13   R(4,9)                  1.0985         estimate D2E/DX2                !
 ! R14   R(5,10)                 1.3547         estimate D2E/DX2                !
 ! R15   R(5,11)                 1.225          estimate D2E/DX2                !
 ! R16   R(12,13)                1.5245         estimate D2E/DX2                !
 ! R17   R(12,32)                1.0967         estimate D2E/DX2                !
 ! R18   R(12,33)                1.095          estimate D2E/DX2                !
 ! R19   R(13,34)                1.0947         estimate D2E/DX2                !
 ! R20   R(13,35)                1.0943         estimate D2E/DX2                !
 ! R21   R(13,36)                1.0946         estimate D2E/DX2                !
 ! R22   R(14,29)                1.095          estimate D2E/DX2                !
 ! R23   R(14,30)                1.0951         estimate D2E/DX2                !
 ! R24   R(14,31)                1.0945         estimate D2E/DX2                !
 ! R25   R(15,16)                1.6725         estimate D2E/DX2                !
 ! R26   R(16,17)                1.879          estimate D2E/DX2                !
 ! R27   R(16,18)                1.8739         estimate D2E/DX2                !
 ! R28   R(16,19)                1.8997         estimate D2E/DX2                !
 ! R29   R(17,26)                1.0939         estimate D2E/DX2                !
 ! R30   R(17,27)                1.093          estimate D2E/DX2                !
 ! R31   R(17,28)                1.0943         estimate D2E/DX2                !
 ! R32   R(18,20)                1.0944         estimate D2E/DX2                !
 ! R33   R(18,21)                1.0926         estimate D2E/DX2                !
 ! R34   R(18,22)                1.094          estimate D2E/DX2                !
 ! R35   R(19,23)                1.0937         estimate D2E/DX2                !
 ! R36   R(19,24)                1.0937         estimate D2E/DX2                !
 ! R37   R(19,25)                1.0937         estimate D2E/DX2                !
 ! R38   R(37,38)                1.5109         estimate D2E/DX2                !
 ! R39   R(37,40)                1.0973         estimate D2E/DX2                !
 ! R40   R(37,41)                1.0973         estimate D2E/DX2                !
 ! R41   R(38,39)                1.339          estimate D2E/DX2                !
 ! R42   R(38,42)                1.0892         estimate D2E/DX2                !
 ! R43   R(39,43)                1.0863         estimate D2E/DX2                !
 ! R44   R(39,44)                1.0853         estimate D2E/DX2                !
 ! A1    A(2,1,6)              111.4586         estimate D2E/DX2                !
 ! A2    A(2,1,10)             107.4699         estimate D2E/DX2                !
 ! A3    A(2,1,12)             113.8116         estimate D2E/DX2                !
 ! A4    A(6,1,10)             108.3797         estimate D2E/DX2                !
 ! A5    A(6,1,12)             108.4333         estimate D2E/DX2                !
 ! A6    A(10,1,12)            107.0689         estimate D2E/DX2                !
 ! A7    A(1,2,3)              108.8944         estimate D2E/DX2                !
 ! A8    A(1,2,7)              106.4771         estimate D2E/DX2                !
 ! A9    A(1,2,14)             114.2935         estimate D2E/DX2                !
 ! A10   A(3,2,7)              107.6002         estimate D2E/DX2                !
 ! A11   A(3,2,14)             114.1655         estimate D2E/DX2                !
 ! A12   A(7,2,14)             104.8437         estimate D2E/DX2                !
 ! A13   A(2,3,4)              111.3763         estimate D2E/DX2                !
 ! A14   A(2,3,15)             109.2522         estimate D2E/DX2                !
 ! A15   A(2,3,37)             110.2533         estimate D2E/DX2                !
 ! A16   A(4,3,15)             115.645          estimate D2E/DX2                !
 ! A17   A(4,3,37)             106.633          estimate D2E/DX2                !
 ! A18   A(15,3,37)            103.2886         estimate D2E/DX2                !
 ! A19   A(3,4,5)              113.2924         estimate D2E/DX2                !
 ! A20   A(3,4,8)              111.8618         estimate D2E/DX2                !
 ! A21   A(3,4,9)              111.4151         estimate D2E/DX2                !
 ! A22   A(5,4,8)              109.2229         estimate D2E/DX2                !
 ! A23   A(5,4,9)              104.3154         estimate D2E/DX2                !
 ! A24   A(8,4,9)              106.243          estimate D2E/DX2                !
 ! A25   A(4,5,10)             115.3168         estimate D2E/DX2                !
 ! A26   A(4,5,11)             122.7734         estimate D2E/DX2                !
 ! A27   A(10,5,11)            121.7981         estimate D2E/DX2                !
 ! A28   A(1,10,5)             119.4864         estimate D2E/DX2                !
 ! A29   A(1,12,13)            112.4594         estimate D2E/DX2                !
 ! A30   A(1,12,32)            109.8186         estimate D2E/DX2                !
 ! A31   A(1,12,33)            110.3338         estimate D2E/DX2                !
 ! A32   A(13,12,32)           108.1753         estimate D2E/DX2                !
 ! A33   A(13,12,33)           108.0875         estimate D2E/DX2                !
 ! A34   A(32,12,33)           107.8264         estimate D2E/DX2                !
 ! A35   A(12,13,34)           110.0715         estimate D2E/DX2                !
 ! A36   A(12,13,35)           111.514          estimate D2E/DX2                !
 ! A37   A(12,13,36)           110.9251         estimate D2E/DX2                !
 ! A38   A(34,13,35)           107.7561         estimate D2E/DX2                !
 ! A39   A(34,13,36)           108.0511         estimate D2E/DX2                !
 ! A40   A(35,13,36)           108.3996         estimate D2E/DX2                !
 ! A41   A(2,14,29)            111.0633         estimate D2E/DX2                !
 ! A42   A(2,14,30)            110.8345         estimate D2E/DX2                !
 ! A43   A(2,14,31)            111.8263         estimate D2E/DX2                !
 ! A44   A(29,14,30)           106.5814         estimate D2E/DX2                !
 ! A45   A(29,14,31)           108.7436         estimate D2E/DX2                !
 ! A46   A(30,14,31)           107.5839         estimate D2E/DX2                !
 ! A47   A(3,15,16)            129.633          estimate D2E/DX2                !
 ! A48   A(15,16,17)           112.4142         estimate D2E/DX2                !
 ! A49   A(15,16,18)           114.3336         estimate D2E/DX2                !
 ! A50   A(15,16,19)           107.786          estimate D2E/DX2                !
 ! A51   A(17,16,18)           108.9817         estimate D2E/DX2                !
 ! A52   A(17,16,19)           106.3721         estimate D2E/DX2                !
 ! A53   A(18,16,19)           106.4721         estimate D2E/DX2                !
 ! A54   A(16,17,26)           110.5981         estimate D2E/DX2                !
 ! A55   A(16,17,27)           111.3464         estimate D2E/DX2                !
 ! A56   A(16,17,28)           110.3453         estimate D2E/DX2                !
 ! A57   A(26,17,27)           108.5543         estimate D2E/DX2                !
 ! A58   A(26,17,28)           108.194          estimate D2E/DX2                !
 ! A59   A(27,17,28)           107.6942         estimate D2E/DX2                !
 ! A60   A(16,18,20)           110.2989         estimate D2E/DX2                !
 ! A61   A(16,18,21)           111.5507         estimate D2E/DX2                !
 ! A62   A(16,18,22)           110.8347         estimate D2E/DX2                !
 ! A63   A(20,18,21)           107.7297         estimate D2E/DX2                !
 ! A64   A(20,18,22)           107.807          estimate D2E/DX2                !
 ! A65   A(21,18,22)           108.4867         estimate D2E/DX2                !
 ! A66   A(16,19,23)           110.1679         estimate D2E/DX2                !
 ! A67   A(16,19,24)           110.3452         estimate D2E/DX2                !
 ! A68   A(16,19,25)           110.1468         estimate D2E/DX2                !
 ! A69   A(23,19,24)           108.7291         estimate D2E/DX2                !
 ! A70   A(23,19,25)           108.6825         estimate D2E/DX2                !
 ! A71   A(24,19,25)           108.7249         estimate D2E/DX2                !
 ! A72   A(3,37,38)            114.4679         estimate D2E/DX2                !
 ! A73   A(3,37,40)            109.8394         estimate D2E/DX2                !
 ! A74   A(3,37,41)            109.8017         estimate D2E/DX2                !
 ! A75   A(38,37,40)           109.7574         estimate D2E/DX2                !
 ! A76   A(38,37,41)           105.4642         estimate D2E/DX2                !
 ! A77   A(40,37,41)           107.1943         estimate D2E/DX2                !
 ! A78   A(37,38,39)           124.4557         estimate D2E/DX2                !
 ! A79   A(37,38,42)           116.3891         estimate D2E/DX2                !
 ! A80   A(39,38,42)           119.1483         estimate D2E/DX2                !
 ! A81   A(38,39,43)           120.575          estimate D2E/DX2                !
 ! A82   A(38,39,44)           122.0422         estimate D2E/DX2                !
 ! A83   A(43,39,44)           117.3821         estimate D2E/DX2                !
 ! D1    D(6,1,2,3)             54.1303         estimate D2E/DX2                !
 ! D2    D(6,1,2,7)            169.8848         estimate D2E/DX2                !
 ! D3    D(6,1,2,14)           -74.8621         estimate D2E/DX2                !
 ! D4    D(10,1,2,3)           -64.4827         estimate D2E/DX2                !
 ! D5    D(10,1,2,7)            51.2719         estimate D2E/DX2                !
 ! D6    D(10,1,2,14)          166.5249         estimate D2E/DX2                !
 ! D7    D(12,1,2,3)           177.1431         estimate D2E/DX2                !
 ! D8    D(12,1,2,7)           -67.1024         estimate D2E/DX2                !
 ! D9    D(12,1,2,14)           48.1506         estimate D2E/DX2                !
 ! D10   D(2,1,10,5)            45.549          estimate D2E/DX2                !
 ! D11   D(6,1,10,5)           -75.0286         estimate D2E/DX2                !
 ! D12   D(12,1,10,5)          168.1911         estimate D2E/DX2                !
 ! D13   D(2,1,12,13)          177.209          estimate D2E/DX2                !
 ! D14   D(2,1,12,32)           56.6946         estimate D2E/DX2                !
 ! D15   D(2,1,12,33)          -62.0292         estimate D2E/DX2                !
 ! D16   D(6,1,12,13)          -58.14           estimate D2E/DX2                !
 ! D17   D(6,1,12,32)         -178.6544         estimate D2E/DX2                !
 ! D18   D(6,1,12,33)           62.6218         estimate D2E/DX2                !
 ! D19   D(10,1,12,13)          58.605          estimate D2E/DX2                !
 ! D20   D(10,1,12,32)         -61.9095         estimate D2E/DX2                !
 ! D21   D(10,1,12,33)         179.3668         estimate D2E/DX2                !
 ! D22   D(1,2,3,4)             28.1483         estimate D2E/DX2                !
 ! D23   D(1,2,3,15)           157.125          estimate D2E/DX2                !
 ! D24   D(1,2,3,37)           -90.0207         estimate D2E/DX2                !
 ! D25   D(7,2,3,4)            -86.881          estimate D2E/DX2                !
 ! D26   D(7,2,3,15)            42.0957         estimate D2E/DX2                !
 ! D27   D(7,2,3,37)           154.95           estimate D2E/DX2                !
 ! D28   D(14,2,3,4)           157.2118         estimate D2E/DX2                !
 ! D29   D(14,2,3,15)          -73.8115         estimate D2E/DX2                !
 ! D30   D(14,2,3,37)           39.0428         estimate D2E/DX2                !
 ! D31   D(1,2,14,29)          174.1565         estimate D2E/DX2                !
 ! D32   D(1,2,14,30)          -67.5642         estimate D2E/DX2                !
 ! D33   D(1,2,14,31)           52.4763         estimate D2E/DX2                !
 ! D34   D(3,2,14,29)           47.8616         estimate D2E/DX2                !
 ! D35   D(3,2,14,30)          166.1409         estimate D2E/DX2                !
 ! D36   D(3,2,14,31)          -73.8186         estimate D2E/DX2                !
 ! D37   D(7,2,14,29)          -69.6401         estimate D2E/DX2                !
 ! D38   D(7,2,14,30)           48.6392         estimate D2E/DX2                !
 ! D39   D(7,2,14,31)          168.6797         estimate D2E/DX2                !
 ! D40   D(2,3,4,5)             25.7554         estimate D2E/DX2                !
 ! D41   D(2,3,4,8)            149.7396         estimate D2E/DX2                !
 ! D42   D(2,3,4,9)            -91.5034         estimate D2E/DX2                !
 ! D43   D(15,3,4,5)           -99.7438         estimate D2E/DX2                !
 ! D44   D(15,3,4,8)            24.2404         estimate D2E/DX2                !
 ! D45   D(15,3,4,9)           142.9974         estimate D2E/DX2                !
 ! D46   D(37,3,4,5)           146.0809         estimate D2E/DX2                !
 ! D47   D(37,3,4,8)           -89.9349         estimate D2E/DX2                !
 ! D48   D(37,3,4,9)            28.8221         estimate D2E/DX2                !
 ! D49   D(2,3,15,16)          -81.4841         estimate D2E/DX2                !
 ! D50   D(4,3,15,16)           45.0959         estimate D2E/DX2                !
 ! D51   D(37,3,15,16)         161.1769         estimate D2E/DX2                !
 ! D52   D(2,3,37,38)          176.3547         estimate D2E/DX2                !
 ! D53   D(2,3,37,40)           52.3675         estimate D2E/DX2                !
 ! D54   D(2,3,37,41)          -65.2731         estimate D2E/DX2                !
 ! D55   D(4,3,37,38)           55.3098         estimate D2E/DX2                !
 ! D56   D(4,3,37,40)          -68.6774         estimate D2E/DX2                !
 ! D57   D(4,3,37,41)          173.682          estimate D2E/DX2                !
 ! D58   D(15,3,37,38)         -67.0123         estimate D2E/DX2                !
 ! D59   D(15,3,37,40)         169.0005         estimate D2E/DX2                !
 ! D60   D(15,3,37,41)          51.3599         estimate D2E/DX2                !
 ! D61   D(3,4,5,10)           -49.555          estimate D2E/DX2                !
 ! D62   D(3,4,5,11)           134.2271         estimate D2E/DX2                !
 ! D63   D(8,4,5,10)          -174.9676         estimate D2E/DX2                !
 ! D64   D(8,4,5,11)             8.8145         estimate D2E/DX2                !
 ! D65   D(9,4,5,10)            71.7852         estimate D2E/DX2                !
 ! D66   D(9,4,5,11)          -104.4327         estimate D2E/DX2                !
 ! D67   D(4,5,10,1)            11.671          estimate D2E/DX2                !
 ! D68   D(11,5,10,1)         -172.0705         estimate D2E/DX2                !
 ! D69   D(1,12,13,34)         177.4328         estimate D2E/DX2                !
 ! D70   D(1,12,13,35)         -63.027          estimate D2E/DX2                !
 ! D71   D(1,12,13,36)          57.901          estimate D2E/DX2                !
 ! D72   D(32,12,13,34)        -61.1106         estimate D2E/DX2                !
 ! D73   D(32,12,13,35)         58.4295         estimate D2E/DX2                !
 ! D74   D(32,12,13,36)        179.3576         estimate D2E/DX2                !
 ! D75   D(33,12,13,34)         55.3888         estimate D2E/DX2                !
 ! D76   D(33,12,13,35)        174.9289         estimate D2E/DX2                !
 ! D77   D(33,12,13,36)        -64.143          estimate D2E/DX2                !
 ! D78   D(3,15,16,17)         -74.5216         estimate D2E/DX2                !
 ! D79   D(3,15,16,18)          50.4155         estimate D2E/DX2                !
 ! D80   D(3,15,16,19)         168.5722         estimate D2E/DX2                !
 ! D81   D(15,16,17,26)        -45.375          estimate D2E/DX2                !
 ! D82   D(15,16,17,27)         75.4126         estimate D2E/DX2                !
 ! D83   D(15,16,17,28)       -165.0524         estimate D2E/DX2                !
 ! D84   D(18,16,17,26)       -173.1982         estimate D2E/DX2                !
 ! D85   D(18,16,17,27)        -52.4107         estimate D2E/DX2                !
 ! D86   D(18,16,17,28)         67.1243         estimate D2E/DX2                !
 ! D87   D(19,16,17,26)         72.3718         estimate D2E/DX2                !
 ! D88   D(19,16,17,27)       -166.8406         estimate D2E/DX2                !
 ! D89   D(19,16,17,28)        -47.3056         estimate D2E/DX2                !
 ! D90   D(15,16,18,20)        176.7578         estimate D2E/DX2                !
 ! D91   D(15,16,18,21)        -63.5607         estimate D2E/DX2                !
 ! D92   D(15,16,18,22)         57.441          estimate D2E/DX2                !
 ! D93   D(17,16,18,20)        -56.5088         estimate D2E/DX2                !
 ! D94   D(17,16,18,21)         63.1727         estimate D2E/DX2                !
 ! D95   D(17,16,18,22)       -175.8256         estimate D2E/DX2                !
 ! D96   D(19,16,18,20)         57.8562         estimate D2E/DX2                !
 ! D97   D(19,16,18,21)        177.5377         estimate D2E/DX2                !
 ! D98   D(19,16,18,22)        -61.4606         estimate D2E/DX2                !
 ! D99   D(15,16,19,23)         59.3177         estimate D2E/DX2                !
 ! D100  D(15,16,19,24)        179.3854         estimate D2E/DX2                !
 ! D101  D(15,16,19,25)        -60.5658         estimate D2E/DX2                !
 ! D102  D(17,16,19,23)        -61.4533         estimate D2E/DX2                !
 ! D103  D(17,16,19,24)         58.6144         estimate D2E/DX2                !
 ! D104  D(17,16,19,25)        178.6632         estimate D2E/DX2                !
 ! D105  D(18,16,19,23)       -177.5821         estimate D2E/DX2                !
 ! D106  D(18,16,19,24)        -57.5144         estimate D2E/DX2                !
 ! D107  D(18,16,19,25)         62.5344         estimate D2E/DX2                !
 ! D108  D(3,37,38,39)        -121.9924         estimate D2E/DX2                !
 ! D109  D(3,37,38,42)          58.9735         estimate D2E/DX2                !
 ! D110  D(40,37,38,39)          2.0385         estimate D2E/DX2                !
 ! D111  D(40,37,38,42)       -176.9956         estimate D2E/DX2                !
 ! D112  D(41,37,38,39)        117.2064         estimate D2E/DX2                !
 ! D113  D(41,37,38,42)        -61.8277         estimate D2E/DX2                !
 ! D114  D(37,38,39,43)       -179.4302         estimate D2E/DX2                !
 ! D115  D(37,38,39,44)          0.247          estimate D2E/DX2                !
 ! D116  D(42,38,39,43)         -0.421          estimate D2E/DX2                !
 ! D117  D(42,38,39,44)        179.2562         estimate D2E/DX2                !
 --------------------------------------------------------------------------------
 Trust Radius=3.00D-01 FncErr=1.00D-07 GrdErr=1.00D-06
 Number of steps in this run=     25 maximum allowed number of steps=    264.
 GradGradGradGradGradGradGradGradGradGradGradGradGradGradGradGradGradGrad

                          Input orientation:                          
 ---------------------------------------------------------------------
 Center     Atomic      Atomic             Coordinates (Angstroms)
 Number     Number       Type             X           Y           Z
 ---------------------------------------------------------------------
      1          6           0       -0.039298    0.261544    1.137111
      2          6           0       -1.044694    1.127662    0.359345
      3          6           0       -2.347095    1.290385    1.219244
      4          6           0       -2.039440    1.196844    2.730733
      5          6           0       -0.632116    1.585419    3.074721
      6          1           0       -0.483721   -0.694534    1.440694
      7          1           0       -0.588513    2.118315    0.258464
      8          1           0       -2.733828    1.796151    3.325305
      9          1           0       -2.133371    0.165103    3.096079
     10          8           0        0.331305    0.991611    2.330057
     11          8           0       -0.359184    2.330502    4.008026
     12          6           0        1.256683   -0.028594    0.365209
     13          6           0        2.257908   -0.830807    1.188734
     14          6           0       -1.296557    0.663285   -1.078658
     15          8           0       -3.050743    2.477979    0.797263
     16         14           0       -2.786296    4.077418    1.208413
     17          6           0       -3.366225    4.474535    2.951020
     18          6           0       -1.009760    4.641094    1.013938
     19          6           0       -3.824762    5.156355    0.039558
     20          1           0       -0.922369    5.707416    1.244397
     21          1           0       -0.340874    4.099349    1.686860
     22          1           0       -0.664274    4.491399   -0.013197
     23          1           0       -4.884854    4.905424    0.136910
     24          1           0       -3.690943    6.214939    0.279804
     25          1           0       -3.519220    4.990304   -0.997422
     26          1           0       -4.357825    4.049877    3.132769
     27          1           0       -2.675725    4.078619    3.700020
     28          1           0       -3.426929    5.557728    3.094218
     29          1           0       -2.092658    1.250555   -1.548138
     30          1           0       -0.401748    0.800992   -1.694805
     31          1           0       -1.568388   -0.396034   -1.122486
     32          1           0        1.733265    0.914307    0.071009
     33          1           0        1.037795   -0.592652   -0.547509
     34          1           0        3.145269   -1.054161    0.587824
     35          1           0        2.585062   -0.276575    2.073823
     36          1           0        1.822710   -1.780096    1.516835
     37          6           0       -3.364140    0.131798    0.893430
     38          6           0       -4.619884    0.146763    1.733555
     39          6           0       -5.024574   -0.866909    2.509137
     40          1           0       -2.864646   -0.840371    0.990265
     41          1           0       -3.706179    0.218679   -0.145550
     42          1           0       -5.229486    1.047646    1.677004
     43          1           0       -5.945066   -0.791734    3.081015
     44          1           0       -4.460074   -1.790246    2.590977
 ---------------------------------------------------------------------
                    Distance matrix (angstroms):
                    1          2          3          4          5
     1  C    0.000000
     2  C    1.538149   0.000000
     3  C    2.528080   1.569125   0.000000
     4  C    2.723047   2.572506   1.545316   0.000000
     5  C    2.420415   2.784426   2.543815   1.499960   0.000000
     6  H    1.097160   2.191895   2.731503   2.767991   2.808959
     7  H    2.126325   1.095295   2.168220   3.011048   2.866563
     8  H    3.795221   3.478070   2.200194   1.093096   2.127062
     9  H    2.869146   3.098621   2.198738   1.098540   2.066766
    10  O    1.446881   2.407403   2.914961   2.413109   1.354737
    11  O    3.553177   3.902515   3.579237   2.395813   1.225030
    12  C    1.536092   2.575519   3.931450   4.238140   3.676147
    13  C    2.544219   3.928189   5.070152   4.995631   4.212758
    14  C    2.579094   1.531970   2.603313   3.917655   4.306085
    15  O    3.754581   2.457511   1.443457   2.530286   3.439947
    16  Si   4.702337   3.529186   2.821448   3.342598   3.785982
    17  C    5.666392   4.827820   3.765167   3.542900   3.979654
    18  C    4.487474   3.574062   3.613567   3.983778   3.704941
    19  C    6.284388   4.905243   4.303590   5.109552   5.670695
    20  H    5.518047   4.666093   4.641189   4.878760   4.519424
    21  H    3.888691   3.329952   3.483370   3.521269   2.886317
    22  H    4.427807   3.405618   3.820640   4.502702   4.240400
    23  H    6.785679   5.391455   4.547546   5.345827   6.143203
    24  H    7.036505   5.734924   5.190347   5.823727   6.212925
    25  H    6.247180   4.783733   4.469551   5.520800   6.042430
    26  H    6.081430   5.216134   3.914002   3.698153   4.467419
    27  H    5.299935   4.746422   3.746531   3.106284   3.283806
    28  H    6.584518   5.725387   4.784536   4.590703   4.857015
    29  H    3.522072   2.179868   2.779339   4.279539   4.859644
    30  H    2.905533   2.177068   3.537734   4.735411   4.839088
    31  H    2.806475   2.189002   2.988995   4.196004   4.734903
    32  H    2.169021   2.801020   4.255492   4.624636   3.881714
    33  H    2.174333   2.849320   4.257314   4.839271   4.544573
    34  H    3.489164   4.729518   6.005135   6.044856   5.236476
    35  H    2.838004   4.252816   5.245173   4.897807   3.849552
    36  H    2.789186   4.244625   5.186876   5.025129   4.447457
    37  C    3.336284   2.580082   1.575709   2.502965   3.786159
    38  C    4.620680   3.953808   2.595757   2.959007   4.446431
    39  C    5.292338   4.943619   3.672415   3.635823   5.062360
    40  H    3.036177   2.753804   2.204634   2.803647   3.900462
    41  H    3.884980   2.857389   2.204161   3.465232   4.657036
    42  H    5.277072   4.388065   2.928591   3.362885   4.835145
    43  H    6.306049   5.924965   4.554866   4.396709   5.820510
    44  H    5.085944   5.015894   3.979525   3.847299   5.126635
                    6          7          8          9         10
     6  H    0.000000
     7  H    3.052993   0.000000
     8  H    3.849448   3.756552   0.000000
     9  H    2.490104   3.775405   1.753115   0.000000
    10  O    2.073239   2.531210   3.321572   2.710080   0.000000
    11  O    3.969578   3.762556   2.527958   2.944204   2.254991
    12  C    2.151546   2.832907   5.293018   4.357480   2.399535
    13  C    2.756553   4.202956   6.031855   4.890106   2.887148
    14  C    2.975149   2.099127   4.769069   4.286825   3.791711
    15  O    4.131397   2.546024   2.637484   3.387554   3.999624
    16  Si   5.303521   3.093661   3.112582   4.392699   4.527662
    17  C    6.108125   4.529604   2.777365   4.484660   5.117429
    18  C    5.378454   2.666947   4.050744   5.062836   4.104796
    19  C    6.881761   4.444200   4.824649   6.092267   6.313824
    20  H    6.419962   3.737000   4.786393   5.967620   4.998917
    21  H    4.802324   2.454819   3.703438   4.547223   3.244004
    22  H    5.388905   2.389784   4.763718   5.526543   4.327879
    23  H    7.240812   5.122626   4.945741   6.228803   6.880127
    24  H    7.705502   5.138857   5.451315   6.852587   6.903997
    25  H    6.890286   4.291225   5.431889   6.477646   6.472110
    26  H    6.354623   5.118620   2.784550   4.476719   5.655553
    27  H    5.717729   4.477003   2.313752   3.996811   4.522018
    28  H    7.105448   5.284663   3.831873   5.545602   5.963027
    29  H    3.912182   2.505847   4.945626   4.769551   4.580725
    30  H    3.474863   2.363362   5.624095   5.133755   4.095512
    31  H    2.799196   3.031358   5.093797   4.293061   4.177852
    32  H    3.062586   2.622104   5.596696   4.966209   2.659843
    33  H    2.505662   3.262486   5.910178   4.889399   3.359971
    34  H    3.745169   4.910622   7.083916   5.970091   3.890881
    35  H    3.161166   4.370653   5.844056   4.848061   2.598725
    36  H    2.550268   4.753431   6.068125   4.682776   3.250843
    37  C    3.046167   3.471820   3.013533   2.523403   4.057030
    38  C    4.231004   4.723861   2.968393   2.835411   5.058049
    39  C    4.668043   5.801356   3.606319   3.125477   5.672002
    40  H    2.427542   3.803963   3.524312   2.445443   3.919860
    41  H    3.705990   3.673103   3.934554   3.603436   4.798680
    42  H    5.060960   4.969630   3.083093   3.518321   5.599287
    43  H    5.703191   6.717726   4.131450   3.929985   6.567883
    44  H    4.281953   5.975487   4.047395   3.080919   5.546541
                   11         12         13         14         15
    11  O    0.000000
    12  C    4.631034   0.000000
    13  C    4.979102   1.524530   0.000000
    14  C    5.434394   3.013716   4.472985   0.000000
    15  O    4.192283   5.002349   6.267622   3.144736   0.000000
    16  Si   4.096391   5.823745   7.038114   4.371078   1.672478
    17  C    3.841411   6.952400   7.929891   5.920089   2.953715
    18  C    3.837531   5.231023   6.375728   4.503796   2.981883
    19  C    5.978663   7.267106   8.611945   5.275406   2.889104
    20  H    4.399815   6.198633   7.270875   5.565955   3.893478
    21  H    2.918384   4.619401   5.595376   4.513087   3.280795
    22  H    4.575237   4.925810   6.189480   4.023611   3.225824
    23  H    6.488255   7.881315   9.221157   5.687638   3.113281
    24  H    6.331596   7.966681   9.265933   6.196722   3.826551
    25  H    6.489598   7.060832   8.487627   4.865175   3.122842
    26  H    4.439758   7.471012   8.447974   6.210997   3.103855
    27  H    2.918414   6.591964   7.399308   6.033438   3.335968
    28  H    4.545447   7.784003   8.761371   6.775467   3.860359
    29  H    5.919643   4.063890   5.545265   1.095023   2.815209
    30  H    5.904532   2.771690   4.248686   1.095118   4.004980
    31  H    5.934503   3.213919   4.491248   1.094518   3.760687
    32  H    4.678040   1.096698   2.137752   3.250318   5.085199
    33  H    5.590105   1.095047   2.135400   2.703460   5.287091
    34  H    5.952723   2.160579   1.094710   5.045454   7.135155
    35  H    4.382531   2.178405   1.094342   5.088068   6.401521
    36  H    5.278609   2.171264   1.094622   4.736721   6.511492
    37  C    4.854356   4.653681   5.711500   2.906288   2.368973
    38  C    5.300519   6.036320   6.968249   4.384044   2.961995
    39  C    5.851151   6.689797   7.401305   5.395542   4.244384
    40  H    5.043675   4.246767   5.126406   3.000054   3.329163
    41  H    5.737104   4.995199   6.200973   2.621954   2.534350
    42  H    5.549705   6.704438   7.734860   4.817607   2.750767
    43  H    6.466049   7.734544   8.418494   6.405357   4.927845
    44  H    5.983802   6.382693   6.929509   5.430826   4.839563
                   16         17         18         19         20
    16  Si   0.000000
    17  C    1.879015   0.000000
    18  C    1.873935   3.054989   0.000000
    19  C    1.899668   3.025185   3.023102   0.000000
    20  H    2.476371   3.225677   1.094436   3.190484   0.000000
    21  H    2.491883   3.300244   1.092575   3.996041   1.766293
    22  H    2.483282   4.010911   1.093972   3.230114   1.768291
    23  H    2.497530   3.226626   3.981884   1.093727   4.191778
    24  H    2.499939   3.204660   3.194477   1.093721   2.975403
    25  H    2.497248   3.984924   3.234951   1.093735   3.504802
    26  H    2.484675   1.093909   4.006061   3.328123   4.256259
    27  H    2.494060   1.092950   3.210429   3.985070   3.428895
    28  H    2.481530   1.094302   3.318206   3.106496   3.117221
    29  H    4.008848   5.679652   4.385505   4.558096   5.388083
    30  H    4.984948   6.623197   4.738497   5.804673   5.743079
    31  H    5.189235   6.599099   5.499912   6.104965   6.578114
    32  H    5.632530   6.853793   4.722525   6.991969   5.603849
    33  H    6.286214   7.570435   5.832898   7.552496   6.836960
    34  H    7.867763   8.862885   7.062703   9.351601   7.918061
    35  H    6.968334   7.665529   6.183007   8.645277   6.985569
    36  H    7.459794   8.252414   7.036155   9.065905   7.979506
    37  C    4.000129   4.805522   5.088357   5.117367   6.096962
    38  C    4.368966   4.667279   5.809463   5.347696   6.695652
    39  C    5.581052   5.610384   6.977997   6.619523   7.851713
    40  H    4.923249   5.687211   5.786849   6.147063   6.834511
    41  H    4.191571   5.274147   5.307810   4.942567   6.309341
    42  H    3.920239   4.103465   5.581990   4.640686   6.360178
    43  H    6.098615   5.865229   7.625331   7.008988   8.416626
    44  H    6.256396   6.369742   7.466850   7.427559   8.399022
                   21         22         23         24         25
    21  H    0.000000
    22  H    1.774397   0.000000
    23  H    4.868250   4.243494   0.000000
    24  H    4.204580   3.495306   1.777828   0.000000
    25  H    4.254533   3.060771   1.777321   1.777787   0.000000
    26  H    4.269543   4.871793   3.159888   3.643025   4.318118
    27  H    3.082981   4.243148   4.273127   4.158414   4.858870
    28  H    3.692054   4.292476   3.361059   2.902164   4.131828
    29  H    4.652912   3.859973   4.898348   5.526391   4.040308
    30  H    4.724248   4.063967   6.348211   6.635413   5.268331
    31  H    5.441294   5.092636   6.378909   7.083546   5.730098
    32  H    4.130075   4.307072   7.728703   7.586984   6.733788
    33  H    5.376617   5.387959   8.110181   8.329988   7.220679
    34  H    6.318207   6.754782  10.010137   9.983411   9.135862
    35  H    5.278215   6.135749   9.295396   9.205786   8.627562
    36  H    6.267207   6.917929   9.570360   9.790363   8.983096
    37  C    5.050854   5.207434   5.066794   6.122740   5.215789
    38  C    5.825379   6.129752   5.026364   6.308651   5.668297
    39  C    6.875820   7.354308   6.242340   7.543280   6.990636
    40  H    5.590662   5.854600   6.150091   7.138972   6.194848
    41  H    5.453678   5.246603   4.840933   6.011347   4.850675
    42  H    5.762943   5.963000   4.168107   5.569578   5.061829
    43  H    7.567914   8.085320   6.499955   7.875362   7.479996
    44  H    7.243795   7.787739   7.143870   8.367561   7.729015
                   26         27         28         29         30
    26  H    0.000000
    27  H    1.775404   0.000000
    28  H    1.772475   1.766088   0.000000
    29  H    5.905766   5.990081   6.471745   0.000000
    30  H    7.036424   6.709541   7.396824   1.755789   0.000000
    31  H    6.756795   6.671228   7.528748   1.779689   1.766768
    32  H    7.503836   6.528536   7.571575   4.168019   2.772944
    33  H    8.013129   7.324787   8.427521   3.768077   2.308856
    34  H    9.424668   8.361529   9.653646   6.108185   4.607962
    35  H    8.248832   7.020549   8.439451   6.109975   4.927955
    36  H    8.648632   7.702386   9.159176   5.823144   4.682399
    37  C    4.620973   4.891652   5.855606   2.971454   3.990307
    38  C    4.154609   4.806894   5.705531   4.286576   5.474883
    39  C    5.000825   5.602994   6.646108   5.435188   6.467267
    40  H    5.543864   5.619157   6.758584   3.378080   3.996191
    41  H    5.084299   5.545212   6.251362   2.373915   3.695747
    42  H    3.448541   4.449841   5.059501   4.503599   5.893809
    43  H    5.095411   5.898483   6.830582   6.359328   7.488231
    44  H    5.866092   6.233575   7.437295   5.655387   6.446119
                   31         32         33         34         35
    31  H    0.000000
    32  H    3.747311   0.000000
    33  H    2.676088   1.771205   0.000000
    34  H    5.057356   2.477038   2.437913   0.000000
    35  H    5.242309   2.480932   3.060281   1.768238   0.000000
    36  H    4.514553   3.059121   2.507515   1.771780   1.775385
    37  C    2.750863   5.222282   4.688088   6.623617   6.078906
    38  C    4.214644   6.611784   6.144861   7.940562   7.225389
    39  C    5.035437   7.401729   6.794897   8.394810   7.644904
    40  H    2.518221   5.006467   4.201804   6.027167   5.584916
    41  H    2.429491   5.488019   4.829609   7.007161   6.689589
    42  H    4.829596   7.146811   6.849660   8.702898   7.935880
    43  H    6.081226   8.421845   7.871859   9.429690   8.604819
    44  H    4.908715   7.212648   6.442894   7.899094   7.224444
                   36         37         38         39         40
    36  H    0.000000
    37  C    5.563037   0.000000
    38  C    6.728058   1.510936   0.000000
    39  C    6.978816   2.522888   1.338967   0.000000
    40  H    4.809539   1.097262   2.146573   2.640637   0.000000
    41  H    6.109602   1.097278   2.090709   3.156585   1.766307
    42  H    7.599687   2.220874   1.089221   2.097607   3.103013
    43  H    7.985103   3.507081   2.110102   1.086279   3.723250
    44  H    6.373952   2.788726   2.124315   1.085315   2.451516
                   41         42         43         44
    41  H    0.000000
    42  H    2.515821   0.000000
    43  H    4.055154   2.422111   0.000000
    44  H    3.477458   3.079119   1.855361   0.000000
 Stoichiometry    C14H26O3Si
 Framework group  C1[X(C14H26O3Si)]
 Deg. of freedom   126
 Full point group                 C1      NOp   1
 Largest Abelian subgroup         C1      NOp   1
 Largest concise Abelian subgroup C1      NOp   1
                         Standard orientation:                         
 ---------------------------------------------------------------------
 Center     Atomic      Atomic             Coordinates (Angstroms)
 Number     Number       Type             X           Y           Z
 ---------------------------------------------------------------------
      1          6           0       -2.293456   -0.118885   -0.185683
      2          6           0       -1.001066   -0.107222   -1.019644
      3          6           0        0.085726    0.732600   -0.260870
      4          6           0       -0.139337    0.695348    1.267514
      5          6           0       -0.871564   -0.529507    1.729526
      6          1           0       -2.621765    0.898752    0.060057
      7          1           0       -0.649079   -1.143568   -1.061641
      8          1           0        0.800086    0.782697    1.819522
      9          1           0       -0.770227    1.530738    1.600518
     10          8           0       -2.007315   -0.816624    1.049124
     11          8           0       -0.515164   -1.189236    2.698254
     12          6           0       -3.460150   -0.856071   -0.860191
     13          6           0       -4.703478   -0.907762    0.020522
     14          6           0       -1.199075    0.299626   -2.483270
     15          8           0        1.397292    0.329655   -0.709196
     16         14           0        2.329393   -0.978004   -0.241864
     17          6           0        3.093159   -0.742211    1.458654
     18          6           0        1.430077   -2.621513   -0.283569
     19          6           0        3.776894   -1.124906   -1.463297
     20          1           0        2.113840   -3.435201   -0.022472
     21          1           0        0.600425   -2.643162    0.427015
     22          1           0        1.035603   -2.823931   -1.283665
     23          1           0        4.371848   -0.207190   -1.455076
     24          1           0        4.422221   -1.964271   -1.188988
     25          1           0        3.399516   -1.288719   -2.476711
     26          1           0        3.522011    0.259759    1.552352
     27          1           0        2.351862   -0.878636    2.250113
     28          1           0        3.891843   -1.472321    1.621571
     29          1           0       -0.237917    0.390367   -3.000005
     30          1           0       -1.774238   -0.459299   -3.024107
     31          1           0       -1.737386    1.248416   -2.572642
     32          1           0       -3.163765   -1.885666   -1.094364
     33          1           0       -3.729502   -0.362777   -1.799999
     34          1           0       -5.522340   -1.399808   -0.514029
     35          1           0       -4.520126   -1.470437    0.941046
     36          1           0       -5.032747    0.100360    0.291577
     37          6           0        0.004730    2.246032   -0.691939
     38          6           0        0.954886    3.159017    0.047377
     39          6           0        0.577299    4.224292    0.765325
     40          1           0       -1.023858    2.610955   -0.578701
     41          1           0        0.269210    2.345200   -1.752238
     42          1           0        2.015224    2.924198   -0.035978
     43          1           0        1.316401    4.844067    1.264933
     44          1           0       -0.465010    4.508155    0.869834
 ---------------------------------------------------------------------
 Rotational constants (GHZ):      0.4444952      0.2927839      0.2509601
 Standard basis: 6-31G(d,p) (6D, 7F)
 There are   404 symmetry adapted cartesian basis functions of A   symmetry.
 There are   404 symmetry adapted basis functions of A   symmetry.
   404 basis functions,   710 primitive gaussians,   404 cartesian basis functions
    74 alpha electrons       74 beta electrons
       nuclear repulsion energy      1639.3985208203 Hartrees.
 NAtoms=   44 NActive=   44 NUniq=   44 SFac= 1.00D+00 NAtFMM=   60 NAOKFM=F Big=F
 Integral buffers will be    131072 words long.
 Raffenetti 2 integral format.
 Two-electron integral symmetry is turned on.
 ------------------------------------------------------------------------------
 Polarizable Continuum Model (PCM)
 =================================
 Model                : PCM (using non-symmetric T matrix).
 Atomic radii         : UFF (Universal Force Field).
 Polarization charges : Total charges.
 Charge compensation  : None.
 Solution method      : On-the-fly selection.
 Cavity type          : Scaled VdW (van der Waals Surface) (Alpha=1.100).
 Cavity algorithm     : GePol (No added spheres)
                        Default sphere list used, NSphG=   44.
                        Lebedev-Laikov grids with approx.  5.0 points / Ang**2.
                        Smoothing algorithm: Karplus/York (Gamma=1.0000).
                        Polarization charges: spherical gaussians, with
                                              point-specific exponents (IZeta= 3).
                        Self-potential: point-specific (ISelfS= 7).
                        Self-field    : sphere-specific E.n sum rule (ISelfD= 2).
 1st derivatives      : Analytical E(r).r(x)/FMM algorithm (CHGder, D1EAlg=3).
                        Cavity 1st derivative terms included.
 Solvent              : Chloroform, Eps=   4.711300 Eps(inf)=   2.090627
 ------------------------------------------------------------------------------
 One-electron integrals computed using PRISM.
 NBasis=   404 RedAO= T EigKep=  1.34D-03  NBF=   404
 NBsUse=   404 1.00D-06 EigRej= -1.00D+00 NBFU=   404
 ExpMin= 7.78D-02 ExpMax= 1.61D+04 ExpMxC= 2.43D+03 IAcc=2 IRadAn=         4 AccDes= 0.00D+00
 Harris functional with IExCor=  402 and IRadAn=       4 diagonalized for initial guess.
 HarFok:  IExCor=  402 AccDes= 0.00D+00 IRadAn=         4 IDoV= 1 UseB2=F ITyADJ=14
 ICtDFT=  3500011 ScaDFX=  1.000000  1.000000  1.000000  1.000000
 FoFCou: FMM=F IPFlag=           0 FMFlag=      100000 FMFlg1=           0
         NFxFlg=           0 DoJE=T BraDBF=F KetDBF=T FulRan=T
         wScrn=  0.000000 ICntrl=     500 IOpCl=  0 I1Cent=   200000004 NGrid=           0
         NMat0=    1 NMatS0=      1 NMatT0=    0 NMatD0=    1 NMtDS0=    0 NMtDT0=    0
 Petite list used in FoFCou.
 Requested convergence on RMS density matrix=1.00D-08 within 128 cycles.
 Requested convergence on MAX density matrix=1.00D-06.
 Requested convergence on             energy=1.00D-06.
 No special actions if energy rises.
 Inv3:  Mode=1 IEnd=    24350403.
 Iteration    1 A*A^-1 deviation from unit magnitude is 7.66D-15 for   1416.
 Iteration    1 A*A^-1 deviation from orthogonality  is 7.43D-15 for   2834   1742.
 Iteration    1 A^-1*A deviation from unit magnitude is 6.88D-15 for   2838.
 Iteration    1 A^-1*A deviation from orthogonality  is 9.20D-12 for   2845   2474.
 Error on total polarization charges =  0.00940
 SCF Done:  E(RB3LYP) =  -1064.41662346     A.U. after   13 cycles
            NFock= 13  Conv=0.47D-08     -V/T= 2.0081

 **********************************************************************

            Population analysis using the SCF density.

 **********************************************************************

 Orbital symmetries:
       Occupied  (A) (A) (A) (A) (A) (A) (A) (A) (A) (A) (A) (A)
                 (A) (A) (A) (A) (A) (A) (A) (A) (A) (A) (A) (A)
                 (A) (A) (A) (A) (A) (A) (A) (A) (A) (A) (A) (A)
                 (A) (A) (A) (A) (A) (A) (A) (A) (A) (A) (A) (A)
                 (A) (A) (A) (A) (A) (A) (A) (A) (A) (A) (A) (A)
                 (A) (A) (A) (A) (A) (A) (A) (A) (A) (A) (A) (A)
                 (A) (A)
       Virtual   (A) (A) (A) (A) (A) (A) (A) (A) (A) (A) (A) (A)
                 (A) (A) (A) (A) (A) (A) (A) (A) (A) (A) (A) (A)
                 (A) (A) (A) (A) (A) (A) (A) (A) (A) (A) (A) (A)
                 (A) (A) (A) (A) (A) (A) (A) (A) (A) (A) (A) (A)
                 (A) (A) (A) (A) (A) (A) (A) (A) (A) (A) (A) (A)
                 (A) (A) (A) (A) (A) (A) (A) (A) (A) (A) (A) (A)
                 (A) (A) (A) (A) (A) (A) (A) (A) (A) (A) (A) (A)
                 (A) (A) (A) (A) (A) (A) (A) (A) (A) (A) (A) (A)
                 (A) (A) (A) (A) (A) (A) (A) (A) (A) (A) (A) (A)
                 (A) (A) (A) (A) (A) (A) (A) (A) (A) (A) (A) (A)
                 (A) (A) (A) (A) (A) (A) (A) (A) (A) (A) (A) (A)
                 (A) (A) (A) (A) (A) (A) (A) (A) (A) (A) (A) (A)
                 (A) (A) (A) (A) (A) (A) (A) (A) (A) (A) (A) (A)
                 (A) (A) (A) (A) (A) (A) (A) (A) (A) (A) (A) (A)
                 (A) (A) (A) (A) (A) (A) (A) (A) (A) (A) (A) (A)
                 (A) (A) (A) (A) (A) (A) (A) (A) (A) (A) (A) (A)
                 (A) (A) (A) (A) (A) (A) (A) (A) (A) (A) (A) (A)
                 (A) (A) (A) (A) (A) (A) (A) (A) (A) (A) (A) (A)
                 (A) (A) (A) (A) (A) (A) (A) (A) (A) (A) (A) (A)
                 (A) (A) (A) (A) (A) (A) (A) (A) (A) (A) (A) (A)
                 (A) (A) (A) (A) (A) (A) (A) (A) (A) (A) (A) (A)
                 (A) (A) (A) (A) (A) (A) (A) (A) (A) (A) (A) (A)
                 (A) (A) (A) (A) (A) (A) (A) (A) (A) (A) (A) (A)
                 (A) (A) (A) (A) (A) (A) (A) (A) (A) (A) (A) (A)
                 (A) (A) (A) (A) (A) (A) (A) (A) (A) (A) (A) (A)
                 (A) (A) (A) (A) (A) (A) (A) (A) (A) (A) (A) (A)
                 (A) (A) (A) (A) (A) (A) (A) (A) (A) (A) (A) (A)
                 (A) (A) (A) (A) (A) (A)
 The electronic state is 1-A.
 Alpha  occ. eigenvalues --  -66.13796 -19.19485 -19.14582 -19.13750 -10.32149
 Alpha  occ. eigenvalues --  -10.26901 -10.25710 -10.20308 -10.20277 -10.19165
 Alpha  occ. eigenvalues --  -10.19114 -10.19076 -10.18294 -10.18011 -10.17546
 Alpha  occ. eigenvalues --  -10.15660 -10.15552 -10.15340  -5.27952  -3.64009
 Alpha  occ. eigenvalues --   -3.63779  -3.63736  -1.10083  -1.01785  -1.00801
 Alpha  occ. eigenvalues --   -0.82986  -0.80471  -0.77573  -0.75437  -0.71259
 Alpha  occ. eigenvalues --   -0.69749  -0.69555  -0.67511  -0.67080  -0.64313
 Alpha  occ. eigenvalues --   -0.61035  -0.59508  -0.56400  -0.54602  -0.52218
 Alpha  occ. eigenvalues --   -0.49770  -0.48952  -0.46885  -0.46713  -0.45073
 Alpha  occ. eigenvalues --   -0.44057  -0.43183  -0.42817  -0.42064  -0.41591
 Alpha  occ. eigenvalues --   -0.41056  -0.40645  -0.40279  -0.40125  -0.39345
 Alpha  occ. eigenvalues --   -0.38884  -0.38522  -0.37756  -0.37505  -0.37418
 Alpha  occ. eigenvalues --   -0.36838  -0.36454  -0.35243  -0.34786  -0.34377
 Alpha  occ. eigenvalues --   -0.34090  -0.33595  -0.31623  -0.30556  -0.29569
 Alpha  occ. eigenvalues --   -0.28211  -0.26879  -0.26723  -0.25368
 Alpha virt. eigenvalues --    0.00052   0.01576   0.06409   0.07725   0.08520
 Alpha virt. eigenvalues --    0.08863   0.10096   0.10505   0.10726   0.12302
 Alpha virt. eigenvalues --    0.12478   0.13377   0.13525   0.13714   0.14152
 Alpha virt. eigenvalues --    0.14950   0.15447   0.15833   0.16224   0.16486
 Alpha virt. eigenvalues --    0.16891   0.17395   0.17712   0.18201   0.18776
 Alpha virt. eigenvalues --    0.19061   0.19515   0.20153   0.20222   0.20400
 Alpha virt. eigenvalues --    0.21238   0.21867   0.21872   0.22500   0.22980
 Alpha virt. eigenvalues --    0.23679   0.24610   0.25214   0.27772   0.28723
 Alpha virt. eigenvalues --    0.29694   0.31478   0.31972   0.35326   0.37085
 Alpha virt. eigenvalues --    0.37297   0.38080   0.39091   0.40933   0.43669
 Alpha virt. eigenvalues --    0.46446   0.47488   0.48589   0.50695   0.51966
 Alpha virt. eigenvalues --    0.52437   0.53020   0.53812   0.55449   0.55856
 Alpha virt. eigenvalues --    0.55992   0.57426   0.58666   0.59511   0.60433
 Alpha virt. eigenvalues --    0.61450   0.62992   0.63276   0.64523   0.64771
 Alpha virt. eigenvalues --    0.65571   0.66531   0.66911   0.68169   0.69044
 Alpha virt. eigenvalues --    0.69705   0.70884   0.71745   0.73007   0.73768
 Alpha virt. eigenvalues --    0.75349   0.75785   0.76099   0.77174   0.77730
 Alpha virt. eigenvalues --    0.78820   0.79138   0.81079   0.82098   0.82312
 Alpha virt. eigenvalues --    0.83168   0.83971   0.84946   0.85392   0.85590
 Alpha virt. eigenvalues --    0.86072   0.86689   0.87639   0.87883   0.88214
 Alpha virt. eigenvalues --    0.88996   0.89468   0.89827   0.90213   0.90813
 Alpha virt. eigenvalues --    0.91186   0.91594   0.92045   0.92484   0.93126
 Alpha virt. eigenvalues --    0.93734   0.94290   0.95225   0.96545   0.98044
 Alpha virt. eigenvalues --    0.98614   0.99547   1.00379   1.00824   1.01958
 Alpha virt. eigenvalues --    1.03532   1.04987   1.05858   1.06516   1.08935
 Alpha virt. eigenvalues --    1.11461   1.12020   1.13912   1.14703   1.17900
 Alpha virt. eigenvalues --    1.19184   1.20450   1.20698   1.23345   1.28399
 Alpha virt. eigenvalues --    1.28631   1.30227   1.30965   1.33384   1.34206
 Alpha virt. eigenvalues --    1.34942   1.38666   1.39527   1.41073   1.43211
 Alpha virt. eigenvalues --    1.43799   1.44894   1.46129   1.46330   1.48156
 Alpha virt. eigenvalues --    1.48444   1.50139   1.51233   1.53457   1.57244
 Alpha virt. eigenvalues --    1.57765   1.59723   1.62408   1.63344   1.64094
 Alpha virt. eigenvalues --    1.64855   1.67510   1.67825   1.69358   1.71252
 Alpha virt. eigenvalues --    1.73657   1.76597   1.76968   1.78525   1.80485
 Alpha virt. eigenvalues --    1.81093   1.82728   1.84058   1.84884   1.85138
 Alpha virt. eigenvalues --    1.86581   1.86855   1.88452   1.89643   1.89946
 Alpha virt. eigenvalues --    1.91536   1.94252   1.95061   1.96386   1.97407
 Alpha virt. eigenvalues --    1.97740   1.99039   2.00670   2.02146   2.03285
 Alpha virt. eigenvalues --    2.03845   2.04989   2.05060   2.05287   2.05603
 Alpha virt. eigenvalues --    2.05691   2.07127   2.07406   2.08362   2.08870
 Alpha virt. eigenvalues --    2.09121   2.10580   2.10969   2.11619   2.11977
 Alpha virt. eigenvalues --    2.12335   2.13157   2.13659   2.14664   2.15013
 Alpha virt. eigenvalues --    2.15769   2.16535   2.17134   2.18250   2.18805
 Alpha virt. eigenvalues --    2.20603   2.22053   2.22371   2.25676   2.27085
 Alpha virt. eigenvalues --    2.28260   2.30018   2.32717   2.33318   2.34405
 Alpha virt. eigenvalues --    2.35314   2.35645   2.35920   2.37222   2.38124
 Alpha virt. eigenvalues --    2.38905   2.39544   2.39932   2.40479   2.42099
 Alpha virt. eigenvalues --    2.44088   2.44640   2.45851   2.47815   2.52911
 Alpha virt. eigenvalues --    2.53063   2.53847   2.54457   2.56884   2.58138
 Alpha virt. eigenvalues --    2.58188   2.60348   2.61938   2.63716   2.64082
 Alpha virt. eigenvalues --    2.64695   2.66545   2.68558   2.69307   2.69920
 Alpha virt. eigenvalues --    2.71194   2.71513   2.73530   2.74559   2.77021
 Alpha virt. eigenvalues --    2.78172   2.79634   2.80252   2.81533   2.82175
 Alpha virt. eigenvalues --    2.83379   2.83693   2.83834   2.85266   2.85507
 Alpha virt. eigenvalues --    2.85719   2.86553   2.86878   2.88228   2.90284
 Alpha virt. eigenvalues --    2.91186   2.91610   2.92562   2.92795   2.96347
 Alpha virt. eigenvalues --    2.97423   3.01271   3.02964   3.09363   3.09839
 Alpha virt. eigenvalues --    3.15249   3.17244   3.19995   3.20958   3.21309
 Alpha virt. eigenvalues --    3.21725   3.22720   3.25915   3.28309   3.31144
 Alpha virt. eigenvalues --    3.31974   3.35271   3.40478   3.43514   3.43701
 Alpha virt. eigenvalues --    3.44024   3.44740   3.44881   3.45906   3.46048
 Alpha virt. eigenvalues --    3.46915   3.47021   3.48173   3.48957   3.50715
 Alpha virt. eigenvalues --    3.55046   3.55540   3.66719   4.04219   4.11735
 Alpha virt. eigenvalues --    4.23427   4.25851   4.37985   4.39268   4.44219
 Alpha virt. eigenvalues --    4.46647   4.47889   4.48849   4.53516   4.56625
 Alpha virt. eigenvalues --    4.62176   4.63459   4.70457   4.78932   4.91942
          Condensed to atoms (all electrons):
               1          2          3          4          5          6
     1  C    4.826129   0.332272  -0.031747  -0.001322  -0.015683   0.372198
     2  C    0.332272   5.067777   0.359317  -0.074165  -0.007409  -0.049760
     3  C   -0.031747   0.359317   4.809282   0.295035  -0.016920  -0.008206
     4  C   -0.001322  -0.074165   0.295035   5.333316   0.302379   0.002505
     5  C   -0.015683  -0.007409  -0.016920   0.302379   4.374872  -0.006461
     6  H    0.372198  -0.049760  -0.008206   0.002505  -0.006461   0.644090
     7  H   -0.040440   0.373883  -0.038550  -0.001917   0.001484   0.006777
     8  H    0.000211   0.003912  -0.021525   0.365191  -0.024126  -0.000062
     9  H    0.000459   0.000372  -0.023322   0.357516  -0.027208   0.000843
    10  O    0.155521  -0.032510  -0.002234  -0.094412   0.250541  -0.036062
    11  O    0.002856  -0.000533   0.002120  -0.085571   0.545011  -0.000153
    12  C    0.386513  -0.034999   0.003861  -0.000472   0.002426  -0.047963
    13  C   -0.037861   0.004422  -0.000111   0.000006   0.000050  -0.006267
    14  C   -0.038520   0.346273  -0.032498   0.005111   0.000132  -0.000540
    15  O    0.002640  -0.039113   0.197945  -0.035055  -0.000007   0.000024
    16  Si   0.000731  -0.005620  -0.016826  -0.007942   0.002567  -0.000064
    17  C    0.000006  -0.000084  -0.002030   0.001173  -0.000864   0.000000
    18  C    0.000065  -0.001971   0.000709  -0.000953  -0.000692  -0.000004
    19  C   -0.000001  -0.000091   0.001063  -0.000074  -0.000005   0.000000
    20  H   -0.000001   0.000130  -0.000006   0.000011  -0.000014   0.000000
    21  H   -0.000106  -0.000934   0.000108  -0.000122   0.004490   0.000003
    22  H    0.000006  -0.000997  -0.000241   0.000078  -0.000018  -0.000001
    23  H    0.000000   0.000001  -0.000036  -0.000006   0.000000   0.000000
    24  H    0.000000   0.000001  -0.000012   0.000001   0.000000   0.000000
    25  H    0.000000  -0.000006  -0.000043   0.000001   0.000000   0.000000
    26  H    0.000000   0.000001   0.000027  -0.000409   0.000063   0.000000
    27  H   -0.000004  -0.000016  -0.000002  -0.003329   0.000656   0.000000
    28  H    0.000000   0.000001   0.000033   0.000091   0.000006   0.000000
    29  H    0.004475  -0.027245  -0.005805   0.000235  -0.000027  -0.000151
    30  H   -0.005211  -0.026653   0.004346  -0.000149   0.000010  -0.000047
    31  H   -0.005592  -0.034328  -0.007194  -0.000007   0.000012   0.003240
    32  H   -0.034233  -0.006155   0.000060   0.000001  -0.000031   0.006091
    33  H   -0.028023  -0.005967  -0.000057   0.000032  -0.000050  -0.000648
    34  H    0.004039  -0.000107   0.000002   0.000000   0.000000  -0.000050
    35  H   -0.008145   0.000088  -0.000007   0.000045   0.000174   0.000140
    36  H   -0.005411   0.000093   0.000003  -0.000001  -0.000030   0.005524
    37  C   -0.003916  -0.045073   0.344589  -0.055331   0.002403   0.002666
    38  C    0.000008   0.004543  -0.037190  -0.008053   0.000703  -0.000123
    39  C    0.000000  -0.000103  -0.001877   0.001216   0.000117  -0.000029
    40  H   -0.000151  -0.000424  -0.031840  -0.002808  -0.000221   0.003478
    41  H    0.000321  -0.010909  -0.025212   0.005262  -0.000023  -0.000087
    42  H   -0.000006   0.000118  -0.003764  -0.000784  -0.000011   0.000002
    43  H    0.000000   0.000003  -0.000065  -0.000009   0.000000   0.000000
    44  H   -0.000005  -0.000009   0.000150  -0.000186  -0.000003   0.000011
               7          8          9         10         11         12
     1  C   -0.040440   0.000211   0.000459   0.155521   0.002856   0.386513
     2  C    0.373883   0.003912   0.000372  -0.032510  -0.000533  -0.034999
     3  C   -0.038550  -0.021525  -0.023322  -0.002234   0.002120   0.003861
     4  C   -0.001917   0.365191   0.357516  -0.094412  -0.085571  -0.000472
     5  C    0.001484  -0.024126  -0.027208   0.250541   0.545011   0.002426
     6  H    0.006777  -0.000062   0.000843  -0.036062  -0.000153  -0.047963
     7  H    0.621278  -0.000142  -0.000094  -0.000365  -0.000455  -0.008026
     8  H   -0.000142   0.540600  -0.021402   0.003154  -0.000380   0.000001
     9  H   -0.000094  -0.021402   0.551956  -0.000495   0.001386   0.000054
    10  O   -0.000365   0.003154  -0.000495   8.341867  -0.071118  -0.043464
    11  O   -0.000455  -0.000380   0.001386  -0.071118   8.109218  -0.000076
    12  C   -0.008026   0.000001   0.000054  -0.043464  -0.000076   4.920666
    13  C   -0.000085   0.000000  -0.000004  -0.002896  -0.000002   0.359424
    14  C   -0.039843  -0.000073  -0.000119   0.003106  -0.000003  -0.004291
    15  O   -0.005310  -0.004059   0.002382  -0.000006   0.000020  -0.000042
    16  Si   0.000427  -0.000703   0.001036  -0.001472   0.006981  -0.000053
    17  C   -0.000034   0.001754  -0.000012  -0.000002  -0.002615   0.000000
    18  C    0.002718   0.000052  -0.000013  -0.000026  -0.001946  -0.000003
    19  C   -0.000080  -0.000029   0.000001   0.000000   0.000000   0.000000
    20  H    0.000064   0.000002   0.000000   0.000003   0.000005   0.000000
    21  H    0.000969  -0.000110   0.000024   0.000129   0.003549  -0.000002
    22  H    0.001792   0.000004   0.000000  -0.000007   0.000016   0.000004
    23  H    0.000001  -0.000003   0.000000   0.000000   0.000000   0.000000
    24  H    0.000003   0.000001   0.000000   0.000000   0.000000   0.000000
    25  H   -0.000018   0.000000   0.000000   0.000000   0.000000   0.000000
    26  H    0.000000   0.001001  -0.000008   0.000000   0.000011   0.000000
    27  H   -0.000014   0.002265   0.000078   0.000039   0.007646   0.000000
    28  H    0.000002   0.000003  -0.000001   0.000000   0.000002   0.000000
    29  H   -0.003271  -0.000002  -0.000008  -0.000057   0.000000   0.000159
    30  H   -0.006118   0.000002   0.000003   0.000006   0.000000   0.002544
    31  H    0.005634  -0.000001  -0.000018  -0.000005   0.000000  -0.001627
    32  H    0.005090   0.000000   0.000000  -0.000551  -0.000013   0.381035
    33  H    0.000265   0.000000   0.000000   0.002870   0.000001   0.378135
    34  H    0.000000   0.000000   0.000000   0.000119   0.000000  -0.028012
    35  H    0.000014   0.000000  -0.000001   0.008229   0.000003  -0.033001
    36  H    0.000010   0.000000  -0.000001  -0.000354   0.000000  -0.036878
    37  C    0.004932  -0.002329  -0.010402  -0.000115  -0.000070  -0.000085
    38  C   -0.000110   0.002791   0.001982  -0.000006  -0.000004   0.000001
    39  C    0.000000   0.000110   0.003263   0.000000   0.000000   0.000000
    40  H    0.000014   0.000175   0.001174  -0.000011   0.000001  -0.000078
    41  H   -0.000054  -0.000164   0.000576  -0.000006   0.000001  -0.000001
    42  H    0.000001   0.000582   0.000149   0.000000   0.000000   0.000000
    43  H    0.000000   0.000011  -0.000019   0.000000   0.000000   0.000000
    44  H    0.000000   0.000014   0.000535   0.000000   0.000000   0.000000
              13         14         15         16         17         18
     1  C   -0.037861  -0.038520   0.002640   0.000731   0.000006   0.000065
     2  C    0.004422   0.346273  -0.039113  -0.005620  -0.000084  -0.001971
     3  C   -0.000111  -0.032498   0.197945  -0.016826  -0.002030   0.000709
     4  C    0.000006   0.005111  -0.035055  -0.007942   0.001173  -0.000953
     5  C    0.000050   0.000132  -0.000007   0.002567  -0.000864  -0.000692
     6  H   -0.006267  -0.000540   0.000024  -0.000064   0.000000  -0.000004
     7  H   -0.000085  -0.039843  -0.005310   0.000427  -0.000034   0.002718
     8  H    0.000000  -0.000073  -0.004059  -0.000703   0.001754   0.000052
     9  H   -0.000004  -0.000119   0.002382   0.001036  -0.000012  -0.000013
    10  O   -0.002896   0.003106  -0.000006  -0.001472  -0.000002  -0.000026
    11  O   -0.000002  -0.000003   0.000020   0.006981  -0.002615  -0.001946
    12  C    0.359424  -0.004291  -0.000042  -0.000053   0.000000  -0.000003
    13  C    4.935310   0.000155   0.000000   0.000007   0.000000   0.000000
    14  C    0.000155   4.968026  -0.002583   0.000172   0.000002   0.000038
    15  O    0.000000  -0.002583   8.267154   0.346129  -0.018013  -0.016411
    16  Si   0.000007   0.000172   0.346129  11.874411   0.363110   0.363157
    17  C    0.000000   0.000002  -0.018013   0.363110   5.168842  -0.034241
    18  C    0.000000   0.000038  -0.016411   0.363157  -0.034241   5.165044
    19  C    0.000000   0.000000  -0.020192   0.375767  -0.034168  -0.032363
    20  H    0.000000  -0.000003   0.000465  -0.013459  -0.000328   0.370557
    21  H   -0.000001   0.000001  -0.000435  -0.027178  -0.001632   0.369601
    22  H    0.000000   0.000092  -0.000467  -0.027691   0.001359   0.375100
    23  H    0.000000   0.000000  -0.000438  -0.025207  -0.001135   0.001415
    24  H    0.000000   0.000000   0.000483  -0.014849  -0.000603  -0.000657
    25  H    0.000000  -0.000003  -0.000440  -0.025749   0.001433  -0.001320
    26  H    0.000000   0.000000  -0.000674  -0.026296   0.375874   0.001305
    27  H    0.000000   0.000000  -0.000336  -0.026069   0.368376  -0.001645
    28  H    0.000000   0.000000   0.000510  -0.013353   0.369693  -0.000052
    29  H   -0.000002   0.378097   0.005849   0.001907   0.000003  -0.000065
    30  H   -0.000033   0.379688  -0.000040  -0.000185   0.000000   0.000006
    31  H   -0.000040   0.385024   0.000078  -0.000080   0.000000   0.000000
    32  H   -0.040912  -0.001163  -0.000001  -0.000035   0.000000  -0.000011
    33  H   -0.036644   0.002673   0.000000  -0.000005   0.000000   0.000000
    34  H    0.381201  -0.000002   0.000000   0.000000   0.000000   0.000000
    35  H    0.388960  -0.000001   0.000000   0.000000   0.000000   0.000000
    36  H    0.385208  -0.000021   0.000000   0.000000   0.000000   0.000000
    37  C    0.000001  -0.010582  -0.065210  -0.001414   0.000042  -0.000055
    38  C    0.000000   0.000337   0.001161   0.000601  -0.000134   0.000004
    39  C    0.000000   0.000005   0.000393   0.000068  -0.000005   0.000000
    40  H    0.000002  -0.001637   0.003655   0.000156   0.000000   0.000002
    41  H    0.000000   0.004047  -0.000303   0.000537   0.000002  -0.000001
    42  H    0.000000  -0.000015   0.004863   0.001851  -0.000069   0.000003
    43  H    0.000000   0.000000   0.000003   0.000003   0.000000   0.000000
    44  H    0.000000  -0.000001  -0.000001   0.000008   0.000000   0.000000
              19         20         21         22         23         24
     1  C   -0.000001  -0.000001  -0.000106   0.000006   0.000000   0.000000
     2  C   -0.000091   0.000130  -0.000934  -0.000997   0.000001   0.000001
     3  C    0.001063  -0.000006   0.000108  -0.000241  -0.000036  -0.000012
     4  C   -0.000074   0.000011  -0.000122   0.000078  -0.000006   0.000001
     5  C   -0.000005  -0.000014   0.004490  -0.000018   0.000000   0.000000
     6  H    0.000000   0.000000   0.000003  -0.000001   0.000000   0.000000
     7  H   -0.000080   0.000064   0.000969   0.001792   0.000001   0.000003
     8  H   -0.000029   0.000002  -0.000110   0.000004  -0.000003   0.000001
     9  H    0.000001   0.000000   0.000024   0.000000   0.000000   0.000000
    10  O    0.000000   0.000003   0.000129  -0.000007   0.000000   0.000000
    11  O    0.000000   0.000005   0.003549   0.000016   0.000000   0.000000
    12  C    0.000000   0.000000  -0.000002   0.000004   0.000000   0.000000
    13  C    0.000000   0.000000  -0.000001   0.000000   0.000000   0.000000
    14  C    0.000000  -0.000003   0.000001   0.000092   0.000000   0.000000
    15  O   -0.020192   0.000465  -0.000435  -0.000467  -0.000438   0.000483
    16  Si   0.375767  -0.013459  -0.027178  -0.027691  -0.025207  -0.014849
    17  C   -0.034168  -0.000328  -0.001632   0.001359  -0.001135  -0.000603
    18  C   -0.032363   0.370557   0.369601   0.375100   0.001415  -0.000657
    19  C    5.122972  -0.001016   0.001564  -0.001230   0.376021   0.374045
    20  H   -0.001016   0.563465  -0.021160  -0.023261   0.000010   0.000069
    21  H    0.001564  -0.021160   0.569266  -0.023257  -0.000027   0.000002
    22  H   -0.001230  -0.023261  -0.023257   0.580682   0.000008  -0.000066
    23  H    0.376021   0.000010  -0.000027   0.000008   0.578695  -0.023783
    24  H    0.374045   0.000069   0.000002  -0.000066  -0.023783   0.568124
    25  H    0.375061  -0.000028   0.000007   0.000746  -0.022165  -0.023655
    26  H   -0.000915   0.000018  -0.000003  -0.000024   0.000485  -0.000004
    27  H    0.001440  -0.000084   0.000668   0.000012   0.000012  -0.000003
    28  H   -0.001322  -0.000012  -0.000019  -0.000004  -0.000043   0.000128
    29  H   -0.000050   0.000000  -0.000004   0.000016  -0.000001   0.000000
    30  H    0.000000   0.000000   0.000003   0.000028   0.000000   0.000000
    31  H    0.000000   0.000000   0.000000  -0.000001   0.000000   0.000000
    32  H    0.000000   0.000000   0.000036   0.000007   0.000000   0.000000
    33  H    0.000000   0.000000   0.000000   0.000000   0.000000   0.000000
    34  H    0.000000   0.000000   0.000000   0.000000   0.000000   0.000000
    35  H    0.000000   0.000000   0.000000   0.000000   0.000000   0.000000
    36  H    0.000000   0.000000   0.000000   0.000000   0.000000   0.000000
    37  C   -0.000011   0.000001   0.000000  -0.000008   0.000006   0.000000
    38  C   -0.000011   0.000000   0.000000   0.000000  -0.000003   0.000000
    39  C    0.000000   0.000000   0.000000   0.000000   0.000000   0.000000
    40  H    0.000000   0.000000   0.000000   0.000000   0.000000   0.000000
    41  H   -0.000014   0.000000   0.000000   0.000000  -0.000001   0.000000
    42  H   -0.000036   0.000000   0.000000   0.000000   0.000010   0.000000
    43  H    0.000000   0.000000   0.000000   0.000000   0.000000   0.000000
    44  H    0.000000   0.000000   0.000000   0.000000   0.000000   0.000000
              25         26         27         28         29         30
     1  C    0.000000   0.000000  -0.000004   0.000000   0.004475  -0.005211
     2  C   -0.000006   0.000001  -0.000016   0.000001  -0.027245  -0.026653
     3  C   -0.000043   0.000027  -0.000002   0.000033  -0.005805   0.004346
     4  C    0.000001  -0.000409  -0.003329   0.000091   0.000235  -0.000149
     5  C    0.000000   0.000063   0.000656   0.000006  -0.000027   0.000010
     6  H    0.000000   0.000000   0.000000   0.000000  -0.000151  -0.000047
     7  H   -0.000018   0.000000  -0.000014   0.000002  -0.003271  -0.006118
     8  H    0.000000   0.001001   0.002265   0.000003  -0.000002   0.000002
     9  H    0.000000  -0.000008   0.000078  -0.000001  -0.000008   0.000003
    10  O    0.000000   0.000000   0.000039   0.000000  -0.000057   0.000006
    11  O    0.000000   0.000011   0.007646   0.000002   0.000000   0.000000
    12  C    0.000000   0.000000   0.000000   0.000000   0.000159   0.002544
    13  C    0.000000   0.000000   0.000000   0.000000  -0.000002  -0.000033
    14  C   -0.000003   0.000000   0.000000   0.000000   0.378097   0.379688
    15  O   -0.000440  -0.000674  -0.000336   0.000510   0.005849  -0.000040
    16  Si  -0.025749  -0.026296  -0.026069  -0.013353   0.001907  -0.000185
    17  C    0.001433   0.375874   0.368376   0.369693   0.000003   0.000000
    18  C   -0.001320   0.001305  -0.001645  -0.000052  -0.000065   0.000006
    19  C    0.375061  -0.000915   0.001440  -0.001322  -0.000050   0.000000
    20  H   -0.000028   0.000018  -0.000084  -0.000012   0.000000   0.000000
    21  H    0.000007  -0.000003   0.000668  -0.000019  -0.000004   0.000003
    22  H    0.000746  -0.000024   0.000012  -0.000004   0.000016   0.000028
    23  H   -0.022165   0.000485   0.000012  -0.000043  -0.000001   0.000000
    24  H   -0.023655  -0.000004  -0.000003   0.000128   0.000000   0.000000
    25  H    0.581580  -0.000002  -0.000027   0.000030   0.000032   0.000000
    26  H   -0.000002   0.578607  -0.022487  -0.023212   0.000000   0.000000
    27  H   -0.000027  -0.022487   0.568487  -0.022417   0.000000   0.000000
    28  H    0.000030  -0.023212  -0.022417   0.569842   0.000000   0.000000
    29  H    0.000032   0.000000   0.000000   0.000000   0.577975  -0.029671
    30  H    0.000000   0.000000   0.000000   0.000000  -0.029671   0.598081
    31  H    0.000000   0.000000   0.000000   0.000000  -0.028705  -0.032681
    32  H    0.000000   0.000000   0.000000   0.000000  -0.000055   0.001119
    33  H    0.000000   0.000000   0.000000   0.000000   0.000060   0.000166
    34  H    0.000000   0.000000   0.000000   0.000000   0.000000   0.000004
    35  H    0.000000   0.000000   0.000000   0.000000   0.000000  -0.000002
    36  H    0.000000   0.000000   0.000000   0.000000   0.000000   0.000009
    37  C   -0.000001   0.000001   0.000001   0.000001  -0.002907   0.000332
    38  C    0.000000   0.000051  -0.000016   0.000001  -0.000105  -0.000007
    39  C    0.000000   0.000004  -0.000001   0.000000  -0.000001   0.000000
    40  H    0.000000   0.000000   0.000000   0.000000   0.000216  -0.000018
    41  H   -0.000001   0.000001   0.000000   0.000000   0.001995   0.000042
    42  H   -0.000001   0.000276  -0.000009   0.000000   0.000004   0.000000
    43  H    0.000000  -0.000001   0.000000   0.000000   0.000000   0.000000
    44  H    0.000000   0.000000   0.000000   0.000000   0.000000   0.000000
              31         32         33         34         35         36
     1  C   -0.005592  -0.034233  -0.028023   0.004039  -0.008145  -0.005411
     2  C   -0.034328  -0.006155  -0.005967  -0.000107   0.000088   0.000093
     3  C   -0.007194   0.000060  -0.000057   0.000002  -0.000007   0.000003
     4  C   -0.000007   0.000001   0.000032   0.000000   0.000045  -0.000001
     5  C    0.000012  -0.000031  -0.000050   0.000000   0.000174  -0.000030
     6  H    0.003240   0.006091  -0.000648  -0.000050   0.000140   0.005524
     7  H    0.005634   0.005090   0.000265   0.000000   0.000014   0.000010
     8  H   -0.000001   0.000000   0.000000   0.000000   0.000000   0.000000
     9  H   -0.000018   0.000000   0.000000   0.000000  -0.000001  -0.000001
    10  O   -0.000005  -0.000551   0.002870   0.000119   0.008229  -0.000354
    11  O    0.000000  -0.000013   0.000001   0.000000   0.000003   0.000000
    12  C   -0.001627   0.381035   0.378135  -0.028012  -0.033001  -0.036878
    13  C   -0.000040  -0.040912  -0.036644   0.381201   0.388960   0.385208
    14  C    0.385024  -0.001163   0.002673  -0.000002  -0.000001  -0.000021
[...]
    14  C   -0.000002  -0.000002  -0.000003   0.000061   0.000000   0.000000
    15  O   -0.026877   0.000489  -0.000542  -0.000591  -0.000710   0.000662
    16  Si   0.377194  -0.013792  -0.024336  -0.025550  -0.023704  -0.015015
    17  C   -0.029348  -0.000241  -0.001471   0.001246  -0.001245  -0.000327
    18  C   -0.028509   0.367258   0.373420   0.375753   0.001210  -0.000362
    19  C    5.116514  -0.000737   0.001243  -0.001068   0.377456   0.369050
    20  H   -0.000737   0.571990  -0.022484  -0.023854   0.000006   0.000051
    21  H    0.001243  -0.022484   0.563474  -0.023469  -0.000020  -0.000001
    22  H   -0.001068  -0.023854  -0.023469   0.578461  -0.000002  -0.000054
    23  H    0.377456   0.000006  -0.000020  -0.000002   0.572704  -0.024211
    24  H    0.369050   0.000051  -0.000001  -0.000054  -0.024211   0.576576
    25  H    0.376906  -0.000016   0.000010   0.000520  -0.022653  -0.024287
    26  H   -0.000996   0.000008   0.000000  -0.000021   0.000418  -0.000029
    27  H    0.001165  -0.000060   0.000456   0.000009   0.000010   0.000002
    28  H   -0.000802   0.000023  -0.000032   0.000000  -0.000016   0.000068
    29  H   -0.000043   0.000000  -0.000003   0.000018  -0.000001   0.000000
    30  H    0.000000   0.000000   0.000002   0.000020   0.000000   0.000000
    31  H    0.000000   0.000000   0.000000  -0.000001   0.000000   0.000000
    32  H    0.000000   0.000000   0.000033   0.000008   0.000000   0.000000
    33  H    0.000000   0.000000   0.000000   0.000000   0.000000   0.000000
    34  H    0.000000   0.000000   0.000000   0.000000   0.000000   0.000000
    35  H    0.000000   0.000000   0.000000   0.000000   0.000000   0.000000
    36  H    0.000000   0.000000   0.000000   0.000000   0.000000   0.000000
    37  C   -0.000007   0.000001   0.000000  -0.000006   0.000010   0.000000
    38  C   -0.000030   0.000000   0.000000   0.000000  -0.000010   0.000000
    39  C    0.000000   0.000000   0.000000   0.000000   0.000000   0.000000
    40  H    0.000000   0.000000   0.000000   0.000000   0.000000   0.000000
    41  H   -0.000024   0.000000   0.000000   0.000000  -0.000003   0.000000
    42  H   -0.000063   0.000000   0.000000   0.000000   0.000084   0.000000
    43  H    0.000000   0.000000   0.000000   0.000000   0.000000   0.000000
    44  H    0.000000   0.000000   0.000000   0.000000   0.000000   0.000000
              25         26         27         28         29         30
     1  C    0.000000   0.000000  -0.000005   0.000000   0.004661  -0.005672
     2  C   -0.000006   0.000001  -0.000018   0.000000  -0.028818  -0.026685
     3  C   -0.000038   0.000015   0.000034   0.000023  -0.005104   0.004368
     4  C    0.000000  -0.000424  -0.003135   0.000081   0.000243  -0.000154
     5  C    0.000000   0.000068   0.000617   0.000004  -0.000029   0.000006
     6  H    0.000000   0.000000   0.000000   0.000000  -0.000174  -0.000046
     7  H   -0.000018   0.000001  -0.000023   0.000002  -0.003865  -0.005350
     8  H    0.000000   0.001132   0.001604   0.000007  -0.000001   0.000002
     9  H    0.000000  -0.000010   0.000075  -0.000001  -0.000011   0.000004
    10  O    0.000000   0.000000   0.000070   0.000000  -0.000055   0.000010
    11  O    0.000000   0.000022   0.011873   0.000014   0.000000   0.000000
    12  C    0.000000   0.000000   0.000000   0.000000   0.000157   0.002755
    13  C    0.000000   0.000000   0.000000   0.000000  -0.000002  -0.000036
    14  C   -0.000005   0.000000   0.000000   0.000000   0.378603   0.380015
    15  O   -0.000758  -0.000702  -0.000532   0.000507   0.005067  -0.000071
    16  Si  -0.023343  -0.025022  -0.023873  -0.013720   0.001643  -0.000174
    17  C    0.001185   0.375578   0.367552   0.366366   0.000003   0.000000
    18  C   -0.001345   0.001226  -0.001423  -0.000152  -0.000058   0.000005
    19  C    0.376906  -0.000996   0.001165  -0.000802  -0.000043   0.000000
    20  H   -0.000016   0.000008  -0.000060   0.000023   0.000000   0.000000
    21  H    0.000010   0.000000   0.000456  -0.000032  -0.000003   0.000002
    22  H    0.000520  -0.000021   0.000009   0.000000   0.000018   0.000020
    23  H   -0.022653   0.000418   0.000010  -0.000016  -0.000001   0.000000
    24  H   -0.024287  -0.000029   0.000002   0.000068   0.000000   0.000000
    25  H    0.573670  -0.000001  -0.000020   0.000012   0.000039   0.000000
    26  H   -0.000001   0.578131  -0.022219  -0.024167   0.000000   0.000000
    27  H   -0.000020  -0.022219   0.555427  -0.021752   0.000000   0.000000
    28  H    0.000012  -0.024167  -0.021752   0.575159   0.000000   0.000000
    29  H    0.000039   0.000000   0.000000   0.000000   0.581197  -0.028505
    30  H    0.000000   0.000000   0.000000   0.000000  -0.028505   0.595105
    31  H    0.000000   0.000000   0.000000   0.000000  -0.030283  -0.032627
    32  H    0.000000   0.000000   0.000000   0.000000  -0.000066   0.001249
    33  H    0.000000   0.000000   0.000000   0.000000   0.000048   0.000216
    34  H    0.000000   0.000000   0.000000   0.000000   0.000000   0.000003
    35  H    0.000000   0.000000   0.000000   0.000000   0.000000  -0.000002
    36  H    0.000000   0.000000   0.000000   0.000000   0.000000   0.000008
    37  C    0.000000  -0.000002   0.000002   0.000000  -0.003297   0.000326
    38  C    0.000000   0.000032  -0.000015   0.000001  -0.000110  -0.000007
    39  C    0.000000   0.000002  -0.000001   0.000000  -0.000002   0.000000
    40  H    0.000000   0.000000   0.000000   0.000000   0.000212  -0.000015
    41  H   -0.000001   0.000001   0.000000   0.000000   0.002377   0.000001
    42  H   -0.000002   0.000258  -0.000007   0.000000   0.000003   0.000000
    43  H    0.000000   0.000000   0.000000   0.000000   0.000000   0.000000
    44  H    0.000000   0.000000   0.000000   0.000000   0.000000   0.000000
              31         32         33         34         35         36
     1  C   -0.005272  -0.036375  -0.030588   0.003818  -0.008396  -0.004856
     2  C   -0.032629  -0.006493  -0.005827  -0.000098   0.000098   0.000063
     3  C   -0.007462   0.000056  -0.000092   0.000001  -0.000007   0.000003
     4  C    0.000003   0.000001   0.000045   0.000000   0.000056  -0.000002
     5  C    0.000012  -0.000062  -0.000065   0.000000   0.000203  -0.000030
     6  H    0.003006   0.006454  -0.001145  -0.000053   0.000134   0.005229
     7  H    0.005294   0.005354   0.000245   0.000001   0.000015   0.000010
     8  H   -0.000001   0.000000   0.000000   0.000000   0.000000   0.000000
     9  H   -0.000024   0.000000   0.000000   0.000000  -0.000002  -0.000002
    10  O   -0.000010  -0.000728   0.003186   0.000142   0.009002  -0.000334
    11  O    0.000000  -0.000015   0.000001   0.000000   0.000005   0.000000
    12  C   -0.001515   0.380627   0.375772  -0.027367  -0.033230  -0.035378
    13  C   -0.000035  -0.038267  -0.034556   0.381413   0.388793   0.384626
    14  C    0.384939  -0.001186   0.002815  -0.000002  -0.000002  -0.000019
    15  O    0.000070  -0.000002   0.000000   0.000000   0.000000   0.000000
    16  Si  -0.000051  -0.000038  -0.000004   0.000000   0.000000   0.000000
    17  C    0.000000   0.000000   0.000000   0.000000   0.000000   0.000000
    18  C    0.000000  -0.000009   0.000000   0.000000   0.000000   0.000000
    19  C    0.000000   0.000000   0.000000   0.000000   0.000000   0.000000
    20  H    0.000000   0.000000   0.000000   0.000000   0.000000   0.000000
    21  H    0.000000   0.000033   0.000000   0.000000   0.000000   0.000000
    22  H   -0.000001   0.000008   0.000000   0.000000   0.000000   0.000000
    23  H    0.000000   0.000000   0.000000   0.000000   0.000000   0.000000
    24  H    0.000000   0.000000   0.000000   0.000000   0.000000   0.000000
    25  H    0.000000   0.000000   0.000000   0.000000   0.000000   0.000000
    26  H    0.000000   0.000000   0.000000   0.000000   0.000000   0.000000
    27  H    0.000000   0.000000   0.000000   0.000000   0.000000   0.000000
    28  H    0.000000   0.000000   0.000000   0.000000   0.000000   0.000000
    29  H   -0.030283  -0.000066   0.000048   0.000000   0.000000   0.000000
    30  H   -0.032627   0.001249   0.000216   0.000003  -0.000002   0.000008
    31  H    0.595585   0.000173   0.001200   0.000000   0.000000   0.000005
    32  H    0.000173   0.612294  -0.033418  -0.002986  -0.003908   0.005138
    33  H    0.001200  -0.033418   0.610111  -0.003475   0.004983  -0.004406
    34  H    0.000000  -0.002986  -0.003475   0.601030  -0.029903  -0.031111
    35  H    0.000000  -0.003908   0.004983  -0.029903   0.576419  -0.030796
    36  H    0.000005   0.005138  -0.004406  -0.031111  -0.030796   0.605925
    37  C    0.002534   0.000000   0.000001   0.000000   0.000000  -0.000001
    38  C    0.000040   0.000000   0.000000   0.000000   0.000000   0.000000
    39  C   -0.000001   0.000000   0.000000   0.000000   0.000000   0.000000
    40  H    0.001598   0.000001   0.000006   0.000000   0.000000  -0.000001
    41  H   -0.000078   0.000000  -0.000003   0.000000   0.000000   0.000000
    42  H    0.000003   0.000000   0.000000   0.000000   0.000000   0.000000
    43  H    0.000000   0.000000   0.000000   0.000000   0.000000   0.000000
    44  H    0.000000   0.000000   0.000000   0.000000   0.000000   0.000000
              37         38         39         40         41         42
     1  C   -0.002521  -0.000021   0.000001   0.000054   0.000273  -0.000006
     2  C   -0.046789   0.004866  -0.000110  -0.000488  -0.011993   0.000141
     3  C    0.350568  -0.037895  -0.001860  -0.030660  -0.028457  -0.004154
     4  C   -0.057214  -0.008102   0.001365  -0.002802   0.005898  -0.001032
     5  C    0.002718   0.000626   0.000093  -0.000184  -0.000031  -0.000014
     6  H    0.002274  -0.000126  -0.000025   0.002687  -0.000096   0.000002
     7  H    0.004932  -0.000122   0.000000   0.000033  -0.000083   0.000002
     8  H   -0.003689   0.003710   0.000266   0.000207  -0.000140   0.000776
     9  H   -0.008390   0.001642   0.002345   0.001187   0.000438   0.000146
    10  O   -0.000089  -0.000004   0.000000  -0.000012  -0.000005   0.000000
    11  O   -0.000059  -0.000004   0.000000   0.000001   0.000001   0.000000
    12  C   -0.000102   0.000001   0.000000  -0.000070   0.000003   0.000000
    13  C    0.000001   0.000000   0.000000   0.000001   0.000000   0.000000
    14  C   -0.009474   0.000324   0.000004  -0.001680   0.004640  -0.000014
    15  O   -0.068174   0.001235   0.000457   0.003688  -0.000015   0.005365
    16  Si  -0.001219   0.000638   0.000074   0.000106   0.000652   0.002079
    17  C    0.000023  -0.000134  -0.000005   0.000000   0.000003  -0.000075
    18  C   -0.000060   0.000004   0.000000   0.000001  -0.000001   0.000004
    19  C   -0.000007  -0.000030   0.000000   0.000000  -0.000024  -0.000063
    20  H    0.000001   0.000000   0.000000   0.000000   0.000000   0.000000
    21  H    0.000000   0.000000   0.000000   0.000000   0.000000   0.000000
    22  H   -0.000006   0.000000   0.000000   0.000000   0.000000   0.000000
    23  H    0.000010  -0.000010   0.000000   0.000000  -0.000003   0.000084
    24  H    0.000000   0.000000   0.000000   0.000000   0.000000   0.000000
    25  H    0.000000   0.000000   0.000000   0.000000  -0.000001  -0.000002
    26  H   -0.000002   0.000032   0.000002   0.000000   0.000001   0.000258
    27  H    0.000002  -0.000015  -0.000001   0.000000   0.000000  -0.000007
    28  H    0.000000   0.000001   0.000000   0.000000   0.000000   0.000000
    29  H   -0.003297  -0.000110  -0.000002   0.000212   0.002377   0.000003
    30  H    0.000326  -0.000007   0.000000  -0.000015   0.000001   0.000000
    31  H    0.002534   0.000040  -0.000001   0.001598  -0.000078   0.000003
    32  H    0.000000   0.000000   0.000000   0.000001   0.000000   0.000000
    33  H    0.000001   0.000000   0.000000   0.000006  -0.000003   0.000000
    34  H    0.000000   0.000000   0.000000   0.000000   0.000000   0.000000
    35  H    0.000000   0.000000   0.000000   0.000000   0.000000   0.000000
    36  H   -0.000001   0.000000   0.000000  -0.000001   0.000000   0.000000
    37  C    5.044769   0.384564  -0.040728   0.361314   0.366810  -0.051799
    38  C    0.384564   4.779358   0.653745  -0.039773  -0.033995   0.385124
    39  C   -0.040728   0.653745   4.938218  -0.006512   0.000858  -0.045593
    40  H    0.361314  -0.039773  -0.006512   0.630269  -0.030390   0.005336
    41  H    0.366810  -0.033995   0.000858  -0.030390   0.602024  -0.001875
    42  H   -0.051799   0.385124  -0.045593   0.005336  -0.001875   0.601336
    43  H    0.004567  -0.024907   0.376439   0.000103  -0.000206  -0.007848
    44  H   -0.012319  -0.034755   0.380963   0.006297   0.000191   0.005681
              43         44
     1  C    0.000000  -0.000003
     2  C    0.000003  -0.000009
     3  C   -0.000063   0.000171
     4  C   -0.000018  -0.000161
     5  C    0.000000  -0.000001
     6  H    0.000000   0.000006
     7  H    0.000000   0.000000
     8  H    0.000018   0.000014
     9  H   -0.000013   0.000400
    10  O    0.000000   0.000000
    11  O    0.000000   0.000000
    12  C    0.000000   0.000000
    13  C    0.000000   0.000000
    14  C    0.000000   0.000000
    15  O    0.000003  -0.000002
    16  Si   0.000003   0.000008
    17  C    0.000000   0.000000
    18  C    0.000000   0.000000
    19  C    0.000000   0.000000
    20  H    0.000000   0.000000
    21  H    0.000000   0.000000
    22  H    0.000000   0.000000
    23  H    0.000000   0.000000
    24  H    0.000000   0.000000
    25  H    0.000000   0.000000
    26  H    0.000000   0.000000
    27  H    0.000000   0.000000
    28  H    0.000000   0.000000
    29  H    0.000000   0.000000
    30  H    0.000000   0.000000
    31  H    0.000000   0.000000
    32  H    0.000000   0.000000
    33  H    0.000000   0.000000
    34  H    0.000000   0.000000
    35  H    0.000000   0.000000
    36  H    0.000000   0.000000
    37  C    0.004567  -0.012319
    38  C   -0.024907  -0.034755
    39  C    0.376439   0.380963
    40  H    0.000103   0.006297
    41  H   -0.000206   0.000191
    42  H   -0.007848   0.005681
    43  H    0.590245  -0.043919
    44  H   -0.043919   0.598885
 Mulliken charges:
               1
     1  C    0.163692
     2  C   -0.090872
     3  C    0.296995
     4  C   -0.298438
     5  C    0.606202
     6  H    0.106623
     7  H    0.120042
     8  H    0.146917
     9  H    0.150617
    10  O   -0.477113
    11  O   -0.507832
    12  C   -0.195578
    13  C   -0.329348
    14  C   -0.343916
    15  O   -0.632426
    16  Si   0.901198
    17  C   -0.562543
    18  C   -0.559901
    19  C   -0.531832
    20  H    0.121242
    21  H    0.127762
    22  H    0.117755
    23  H    0.120727
    24  H    0.117886
    25  H    0.120153
    26  H    0.116701
    27  H    0.134184
    28  H    0.118376
    29  H    0.126158
    30  H    0.115247
    31  H    0.115526
    32  H    0.112164
    33  H    0.114950
    34  H    0.108585
    35  H    0.126536
    36  H    0.105929
    37  C   -0.219475
    38  C   -0.035900
    39  C   -0.259994
    40  H    0.099486
    41  H    0.123225
    42  H    0.106141
    43  H    0.105595
    44  H    0.098552
 Sum of Mulliken charges =   0.00000
 Mulliken charges with hydrogens summed into heavy atoms:
               1
     1  C    0.270314
     2  C    0.029170
     3  C    0.296995
     4  C   -0.000903
     5  C    0.606202
    10  O   -0.477113
    11  O   -0.507832
    12  C    0.031536
    13  C    0.011702
    14  C    0.013015
    15  O   -0.632426
    16  Si   0.901198
    17  C   -0.193281
    18  C   -0.193142
    19  C   -0.173066
    37  C    0.003237
    38  C    0.070241
    39  C   -0.055847
 Electronic spatial extent (au):  <R**2>=           5324.8692
 Charge=              0.0000 electrons
 Dipole moment (field-independent basis, Debye):
    X=             -1.0013    Y=              2.4741    Z=             -3.5745  Tot=              4.4610
 Quadrupole moment (field-independent basis, Debye-Ang):
   XX=           -110.8469   YY=           -119.0912   ZZ=           -126.3739
   XY=             -5.9400   XZ=              5.7924   YZ=              9.1039
 Traceless Quadrupole moment (field-independent basis, Debye-Ang):
   XX=              7.9238   YY=             -0.3205   ZZ=             -7.6033
   XY=             -5.9400   XZ=              5.7924   YZ=              9.1039
 Octapole moment (field-independent basis, Debye-Ang**2):
  XXX=            -12.8214  YYY=             -4.1949  ZZZ=            -25.4342  XYY=              2.5085
  XXY=             -2.7562  XXZ=             -2.7096  XZZ=             -2.1157  YZZ=             16.1902
  YYZ=             -0.3995  XYZ=             -4.1064
 Hexadecapole moment (field-independent basis, Debye-Ang**3):
 XXXX=          -3683.5189 YYYY=          -2179.6313 ZZZZ=          -1327.7344 XXXY=              0.6625
 XXXZ=             31.8677 YYYX=            -23.9287 YYYZ=             41.6245 ZZZX=             -1.7835
 ZZZY=             33.7574 XXYY=           -948.2284 XXZZ=           -845.7207 YYZZ=           -589.1662
 XXYZ=             14.9578 YYXZ=             16.8483 ZZXY=             -2.3047
 N-N= 1.637408338881D+03 E-N=-5.765413223080D+03  KE= 1.055912291426D+03
 1\1\GINC-CPU-E-609\FOpt\RB3LYP\6-31G(d,p)\C14H26O3Si1\KE291\06-Feb-201
 9\0\\# b3lyp/6-31g(d,p) Opt=(maxcycles=25) scrf=(solvent=chloroform)\\
 P_ng_2ginp005\\0,1\C,-0.0208590907,0.2593758819,1.1370348313\C,-1.0513
 363601,1.0854972886,0.3460924394\C,-2.3680015019,1.2513278772,1.179554
 0009\C,-2.0335569636,1.1443144315,2.6960852496\C,-0.6369781589,1.58018
 31301,3.0646247973\H,-0.4595563566,-0.6890847018,1.4791020793\H,-0.617
 3900471,2.090065878,0.2866509071\H,-2.755791565,1.696692726,3.29401103
 69\H,-2.1164760344,0.0918755712,2.9947979396\O,0.3513833294,1.03497539
 23,2.320921279\O,-0.3556423948,2.3359593053,3.9728546097\C,1.287074990
 3,-0.0367945164,0.4085118566\C,2.3065844578,-0.789770746,1.2693426391\
 C,-1.277035913,0.6026457716,-1.0919155628\O,-2.970067288,2.5013939024,
 0.8503031587\Si,-2.7542040088,4.1248762908,1.2520225562\C,-3.207944987
 6,4.4648484684,3.050930449\C,-0.9913289724,4.7256321973,0.9404470038\C
 ,-3.9448702181,5.0123536903,0.0978546355\H,-0.9438908334,5.8059988561,
 1.123123214\H,-0.2616282807,4.2541328569,1.6063771355\H,-0.6749367297,
 4.5531489537,-0.093737677\H,-4.9749707335,4.6754558287,0.2535075773\H,
 -3.9165699213,6.0940453478,0.2702677225\H,-3.6875456663,4.833124584,-0
 .9512082655\H,-4.2011079744,4.0759694362,3.3002288037\H,-2.4814756807,
 4.0285684348,3.7435510159\H,-3.2231375975,5.5472522277,3.2259707105\H,
 -2.0604193936,1.1983311263,-1.5682303474\H,-0.3686605866,0.7219920456,
 -1.6872350199\H,-1.5733758703,-0.4498881407,-1.1407008184\H,1.71491903
 2,0.909481349,0.0547215765\H,1.0515974725,-0.6315849864,-0.4800192563\
 H,3.2151740397,-0.9954056896,0.6957744325\H,2.5847668418,-0.2088156153
 ,2.1519523747\H,1.9027549819,-1.7496861723,1.6106052332\C,-3.429381586
 6,0.1745888363,0.8314692397\C,-4.6636644329,0.23185613,1.6883384416\C,
 -5.1399800145,-0.7851612962,2.4082599804\H,-2.9757478507,-0.8212926245
 ,0.9018848921\H,-3.7174501731,0.3302362846,-0.2139653756\H,-5.19266269
 11,1.183455045,1.6896379791\H,-6.047795418,-0.6914441993,2.9971445159\
 H,-4.6442758492,-1.753442457,2.4290570088\\Version=ES64L-G09RevD.01\St
 ate=1-A\HF=-1064.4244294\RMSD=3.647e-09\RMSF=5.968e-06\Dipole=-0.40877
 5,-0.9500025,-1.4180189\Quadrupole=-1.8012896,7.0013704,-5.2000808,-3.
 3691373,-7.957635,-1.7010632\PG=C01 [X(C14H26O3Si1)]\\@


    WHAT WE HAVE LEARNED
 IS LIKE A HANDFUL OF EARTH;
  WHAT WE HAVE YET TO LEARN
   IS LIKE THE WHOLE WORLD.

         -- AVVAYIAR
 Job cpu time:       0 days  2 hours  0 minutes 32.9 seconds.
 File lengths (MBytes):  RWF=    366 Int=      0 D2E=      0 Chk=     17 Scr=      1
 Normal termination of Gaussian 09 at Wed Feb  6 11:11:10 2019.
