 Entering Gaussian System, Link 0=/usr/local/shared/gaussian/em64t/09-D01/g09/g09
 Initial command:
 /usr/local/shared/gaussian/em64t/09-D01/g09/l1.exe "/scratch/ke291/P_ng_correct1ginp007/Gau-12792.inp" -scrdir="/scratch/ke291/P_ng_correct1ginp007/"
 Entering Link 1 = /usr/local/shared/gaussian/em64t/09-D01/g09/l1.exe PID=     12796.
  
 Copyright (c) 1988,1990,1992,1993,1995,1998,2003,2009,2013,
            Gaussian, Inc.  All Rights Reserved.
  
 This is part of the Gaussian(R) 09 program.  It is based on
 the Gaussian(R) 03 system (copyright 2003, Gaussian, Inc.),
 the Gaussian(R) 98 system (copyright 1998, Gaussian, Inc.),
 the Gaussian(R) 94 system (copyright 1995, Gaussian, Inc.),
 the Gaussian 92(TM) system (copyright 1992, Gaussian, Inc.),
 the Gaussian 90(TM) system (copyright 1990, Gaussian, Inc.),
 the Gaussian 88(TM) system (copyright 1988, Gaussian, Inc.),
 the Gaussian 86(TM) system (copyright 1986, Carnegie Mellon
 University), and the Gaussian 82(TM) system (copyright 1983,
 Carnegie Mellon University). Gaussian is a federally registered
 trademark of Gaussian, Inc.
  
 This software contains proprietary and confidential information,
 including trade secrets, belonging to Gaussian, Inc.
  
 This software is provided under written license and may be
 used, copied, transmitted, or stored only in accord with that
 written license.
  
 The following legend is applicable only to US Government
 contracts under FAR:
  
                    RESTRICTED RIGHTS LEGEND
  
 Use, reproduction and disclosure by the US Government is
 subject to restrictions as set forth in subparagraphs (a)
 and (c) of the Commercial Computer Software - Restricted
 Rights clause in FAR 52.227-19.
  
 Gaussian, Inc.
 340 Quinnipiac St., Bldg. 40, Wallingford CT 06492
  
  
 ---------------------------------------------------------------
 Warning -- This program may not be used in any manner that
 competes with the business of Gaussian, Inc. or will provide
 assistance to any competitor of Gaussian, Inc.  The licensee
 of this program is prohibited from giving any competitor of
 Gaussian, Inc. access to this program.  By using this program,
 the user acknowledges that Gaussian, Inc. is engaged in the
 business of creating and licensing software in the field of
 computational chemistry and represents and warrants to the
 licensee that it is not a competitor of Gaussian, Inc. and that
 it will not use this program in any manner prohibited above.
 ---------------------------------------------------------------
  

 Cite this work as:
 Gaussian 09, Revision D.01,
 M. J. Frisch, G. W. Trucks, H. B. Schlegel, G. E. Scuseria, 
 M. A. Robb, J. R. Cheeseman, G. Scalmani, V. Barone, B. Mennucci, 
 G. A. Petersson, H. Nakatsuji, M. Caricato, X. Li, H. P. Hratchian, 
 A. F. Izmaylov, J. Bloino, G. Zheng, J. L. Sonnenberg, M. Hada, 
 M. Ehara, K. Toyota, R. Fukuda, J. Hasegawa, M. Ishida, T. Nakajima, 
 Y. Honda, O. Kitao, H. Nakai, T. Vreven, J. A. Montgomery, Jr., 
 J. E. Peralta, F. Ogliaro, M. Bearpark, J. J. Heyd, E. Brothers, 
 K. N. Kudin, V. N. Staroverov, T. Keith, R. Kobayashi, J. Normand, 
 K. Raghavachari, A. Rendell, J. C. Burant, S. S. Iyengar, J. Tomasi, 
 M. Cossi, N. Rega, J. M. Millam, M. Klene, J. E. Knox, J. B. Cross, 
 V. Bakken, C. Adamo, J. Jaramillo, R. Gomperts, R. E. Stratmann, 
 O. Yazyev, A. J. Austin, R. Cammi, C. Pomelli, J. W. Ochterski, 
 R. L. Martin, K. Morokuma, V. G. Zakrzewski, G. A. Voth, 
 P. Salvador, J. J. Dannenberg, S. Dapprich, A. D. Daniels, 
 O. Farkas, J. B. Foresman, J. V. Ortiz, J. Cioslowski, 
 and D. J. Fox, Gaussian, Inc., Wallingford CT, 2013.
 
 ******************************************
 Gaussian 09:  EM64L-G09RevD.01 24-Apr-2013
                 7-Feb-2019 
 ******************************************
 %nprocshared=2
 Will use up to    2 processors via shared memory.
 %mem=6000MB
 %chk=P_ng_correct1ginp007.chk
 ---------------------------------------------------------------
 # b3lyp/6-31g(d,p) Opt=(maxcycles=50) scrf=(solvent=chloroform)
 ---------------------------------------------------------------
 1/6=50,14=-1,18=20,19=15,26=3,38=1/1,3;
 2/9=110,12=2,17=6,18=5,40=1/2;
 3/5=1,6=6,7=101,11=2,16=1,25=1,30=1,70=2201,71=1,72=7,74=-5/1,2,3;
 4//1;
 5/5=2,38=5,53=7/2;
 6/7=2,8=2,9=2,10=2,28=1/1;
 7//1,2,3,16;
 1/6=50,14=-1,18=20,19=15,26=3/3(2);
 2/9=110/2;
 99//99;
 2/9=110/2;
 3/5=1,6=6,7=101,11=2,16=1,25=1,30=1,70=2205,71=1,72=7,74=-5/1,2,3;
 4/5=5,16=3,69=1/1;
 5/5=2,38=5,53=7/2;
 7//1,2,3,16;
 1/6=50,14=-1,18=20,19=15,26=3/3(-5);
 2/9=110/2;
 6/7=2,8=2,9=2,10=2,19=2,28=1/1;
 99/9=1/99;
 --------------------
 P_ng_correct1ginp007
 --------------------
 Symbolic Z-matrix:
 Charge =  0 Multiplicity = 1
 C                     1.07888  -0.17603   0.79396 
 C                    -0.42338  -0.30398   0.50879 
 C                    -1.20554   0.86418   1.17667 
 C                    -0.67788   2.14555   0.5078 
 C                     0.83304   2.28939   0.49738 
 H                     1.26397  -0.39825   1.85293 
 H                    -0.57287  -0.15931  -0.57039 
 H                    -1.00313   2.15316  -0.5392 
 H                    -1.07571   3.05054   0.97205 
 O                     1.59379   1.17977   0.59076 
 O                     1.38481   3.37014   0.37094 
 C                     1.96161  -1.08454  -0.06468 
 C                     3.455    -0.97624   0.25873 
 C                    -0.94229  -1.70817   0.85449 
 O                    -2.57751   0.66471   0.85152 
 Si                   -4.01732   1.53169   0.95781 
 C                    -5.22315   0.48516  -0.03676 
 C                    -4.62059   1.6799    2.74038 
 C                    -3.89827   3.25691   0.20126 
 H                    -4.69281   0.70091   3.22514 
 H                    -3.97249   2.313     3.35522 
 H                    -5.62101   2.12865   2.7515 
 H                    -3.28852   3.94313   0.79731 
 H                    -3.48701   3.23127  -0.813 
 H                    -4.90444   3.68835   0.13821 
 H                    -4.90573   0.39994  -1.08122 
 H                    -5.30143  -0.52729   0.37302 
 H                    -6.22475   0.92925  -0.02535 
 H                    -0.57329  -2.44414   0.13548 
 H                    -0.63821  -2.02441   1.85493 
 H                    -2.03265  -1.71582   0.80918 
 H                     1.78369  -0.84367  -1.12045 
 H                     1.63227  -2.11766   0.08478 
 H                     4.03512  -1.65261  -0.37617 
 H                     3.82164   0.04037   0.09874 
 H                     3.65332  -1.24606   1.30217 
 C                    -1.0209    0.99639   2.71387 
 C                    -1.47756  -0.15626   3.56591 
 C                    -0.78135  -0.66641   4.58346 
 H                    -1.5884    1.89112   3.00642 
 H                     0.02688   1.22582   2.94 
 H                    -2.46318  -0.5578    3.34011 
 H                    -1.17432  -1.47424   5.19377 
 H                     0.20512  -0.29167   4.84782 
 

 GradGradGradGradGradGradGradGradGradGradGradGradGradGradGradGradGradGrad
 Berny optimization.
 Initialization pass.
                           ----------------------------
                           !    Initial Parameters    !
                           ! (Angstroms and Degrees)  !
 --------------------------                            --------------------------
 ! Name  Definition              Value          Derivative Info.                !
 --------------------------------------------------------------------------------
 ! R1    R(1,2)                  1.5344         estimate D2E/DX2                !
 ! R2    R(1,6)                  1.0977         estimate D2E/DX2                !
 ! R3    R(1,10)                 1.4645         estimate D2E/DX2                !
 ! R4    R(1,12)                 1.5303         estimate D2E/DX2                !
 ! R5    R(2,3)                  1.5564         estimate D2E/DX2                !
 ! R6    R(2,7)                  1.099          estimate D2E/DX2                !
 ! R7    R(2,14)                 1.5364         estimate D2E/DX2                !
 ! R8    R(3,4)                  1.5387         estimate D2E/DX2                !
 ! R9    R(3,15)                 1.424          estimate D2E/DX2                !
 ! R10   R(3,37)                 1.5539         estimate D2E/DX2                !
 ! R11   R(4,5)                  1.5178         estimate D2E/DX2                !
 ! R12   R(4,8)                  1.0964         estimate D2E/DX2                !
 ! R13   R(4,9)                  1.0922         estimate D2E/DX2                !
 ! R14   R(5,10)                 1.3486         estimate D2E/DX2                !
 ! R15   R(5,11)                 1.22           estimate D2E/DX2                !
 ! R16   R(12,13)                1.5318         estimate D2E/DX2                !
 ! R17   R(12,32)                1.0974         estimate D2E/DX2                !
 ! R18   R(12,33)                1.0946         estimate D2E/DX2                !
 ! R19   R(13,34)                1.0941         estimate D2E/DX2                !
 ! R20   R(13,35)                1.0925         estimate D2E/DX2                !
 ! R21   R(13,36)                1.0958         estimate D2E/DX2                !
 ! R22   R(14,29)                1.0931         estimate D2E/DX2                !
 ! R23   R(14,30)                1.0924         estimate D2E/DX2                !
 ! R24   R(14,31)                1.0913         estimate D2E/DX2                !
 ! R25   R(15,16)                1.684          estimate D2E/DX2                !
 ! R26   R(16,17)                1.8811         estimate D2E/DX2                !
 ! R27   R(16,18)                1.8877         estimate D2E/DX2                !
 ! R28   R(16,19)                1.8876         estimate D2E/DX2                !
 ! R29   R(17,26)                1.095          estimate D2E/DX2                !
 ! R30   R(17,27)                1.095          estimate D2E/DX2                !
 ! R31   R(17,28)                1.0957         estimate D2E/DX2                !
 ! R32   R(18,20)                1.0948         estimate D2E/DX2                !
 ! R33   R(18,21)                1.0949         estimate D2E/DX2                !
 ! R34   R(18,22)                1.0965         estimate D2E/DX2                !
 ! R35   R(19,23)                1.0945         estimate D2E/DX2                !
 ! R36   R(19,24)                1.0948         estimate D2E/DX2                !
 ! R37   R(19,25)                1.0966         estimate D2E/DX2                !
 ! R38   R(37,38)                1.5044         estimate D2E/DX2                !
 ! R39   R(37,40)                1.0992         estimate D2E/DX2                !
 ! R40   R(37,41)                1.0962         estimate D2E/DX2                !
 ! R41   R(38,39)                1.3343         estimate D2E/DX2                !
 ! R42   R(38,42)                1.088          estimate D2E/DX2                !
 ! R43   R(39,43)                1.086          estimate D2E/DX2                !
 ! R44   R(39,44)                1.0879         estimate D2E/DX2                !
 ! A1    A(2,1,6)              109.1154         estimate D2E/DX2                !
 ! A2    A(2,1,10)             113.3062         estimate D2E/DX2                !
 ! A3    A(2,1,12)             114.265          estimate D2E/DX2                !
 ! A4    A(6,1,10)             105.188          estimate D2E/DX2                !
 ! A5    A(6,1,12)             108.8947         estimate D2E/DX2                !
 ! A6    A(10,1,12)            105.6021         estimate D2E/DX2                !
 ! A7    A(1,2,3)              110.467          estimate D2E/DX2                !
 ! A8    A(1,2,7)              107.7384         estimate D2E/DX2                !
 ! A9    A(1,2,14)             111.411          estimate D2E/DX2                !
 ! A10   A(3,2,7)              104.7267         estimate D2E/DX2                !
 ! A11   A(3,2,14)             114.8144         estimate D2E/DX2                !
 ! A12   A(7,2,14)             107.1757         estimate D2E/DX2                !
 ! A13   A(2,3,4)              105.4354         estimate D2E/DX2                !
 ! A14   A(2,3,15)             106.3232         estimate D2E/DX2                !
 ! A15   A(2,3,37)             115.3819         estimate D2E/DX2                !
 ! A16   A(4,3,15)             110.3515         estimate D2E/DX2                !
 ! A17   A(4,3,37)             108.5674         estimate D2E/DX2                !
 ! A18   A(15,3,37)            110.6271         estimate D2E/DX2                !
 ! A19   A(3,4,5)              115.0411         estimate D2E/DX2                !
 ! A20   A(3,4,8)              108.6125         estimate D2E/DX2                !
 ! A21   A(3,4,9)              112.3553         estimate D2E/DX2                !
 ! A22   A(5,4,8)              106.744          estimate D2E/DX2                !
 ! A23   A(5,4,9)              106.6787         estimate D2E/DX2                !
 ! A24   A(8,4,9)              106.9843         estimate D2E/DX2                !
 ! A25   A(4,5,10)             118.8883         estimate D2E/DX2                !
 ! A26   A(4,5,11)             122.3359         estimate D2E/DX2                !
 ! A27   A(10,5,11)            118.7451         estimate D2E/DX2                !
 ! A28   A(1,10,5)             124.9607         estimate D2E/DX2                !
 ! A29   A(1,12,13)            113.6982         estimate D2E/DX2                !
 ! A30   A(1,12,32)            108.4194         estimate D2E/DX2                !
 ! A31   A(1,12,33)            108.0689         estimate D2E/DX2                !
 ! A32   A(13,12,32)           110.2218         estimate D2E/DX2                !
 ! A33   A(13,12,33)           109.343          estimate D2E/DX2                !
 ! A34   A(32,12,33)           106.8428         estimate D2E/DX2                !
 ! A35   A(12,13,34)           110.5294         estimate D2E/DX2                !
 ! A36   A(12,13,35)           111.2257         estimate D2E/DX2                !
 ! A37   A(12,13,36)           111.1038         estimate D2E/DX2                !
 ! A38   A(34,13,35)           108.1995         estimate D2E/DX2                !
 ! A39   A(34,13,36)           107.72           estimate D2E/DX2                !
 ! A40   A(35,13,36)           107.928          estimate D2E/DX2                !
 ! A41   A(2,14,29)            110.6925         estimate D2E/DX2                !
 ! A42   A(2,14,30)            112.1249         estimate D2E/DX2                !
 ! A43   A(2,14,31)            109.5428         estimate D2E/DX2                !
 ! A44   A(29,14,30)           108.2722         estimate D2E/DX2                !
 ! A45   A(29,14,31)           107.7727         estimate D2E/DX2                !
 ! A46   A(30,14,31)           108.3069         estimate D2E/DX2                !
 ! A47   A(3,15,16)            137.4933         estimate D2E/DX2                !
 ! A48   A(15,16,17)           103.1953         estimate D2E/DX2                !
 ! A49   A(15,16,18)           111.9157         estimate D2E/DX2                !
 ! A50   A(15,16,19)           113.0365         estimate D2E/DX2                !
 ! A51   A(17,16,18)           109.7611         estimate D2E/DX2                !
 ! A52   A(17,16,19)           109.6952         estimate D2E/DX2                !
 ! A53   A(18,16,19)           109.0798         estimate D2E/DX2                !
 ! A54   A(16,17,26)           111.2117         estimate D2E/DX2                !
 ! A55   A(16,17,27)           111.2453         estimate D2E/DX2                !
 ! A56   A(16,17,28)           110.7924         estimate D2E/DX2                !
 ! A57   A(26,17,27)           107.8017         estimate D2E/DX2                !
 ! A58   A(26,17,28)           107.8469         estimate D2E/DX2                !
 ! A59   A(27,17,28)           107.788          estimate D2E/DX2                !
 ! A60   A(16,18,20)           111.6538         estimate D2E/DX2                !
 ! A61   A(16,18,21)           112.7366         estimate D2E/DX2                !
 ! A62   A(16,18,22)           109.4678         estimate D2E/DX2                !
 ! A63   A(20,18,21)           107.9056         estimate D2E/DX2                !
 ! A64   A(20,18,22)           107.5342         estimate D2E/DX2                !
 ! A65   A(21,18,22)           107.3196         estimate D2E/DX2                !
 ! A66   A(16,19,23)           112.9483         estimate D2E/DX2                !
 ! A67   A(16,19,24)           111.9393         estimate D2E/DX2                !
 ! A68   A(16,19,25)           108.9517         estimate D2E/DX2                !
 ! A69   A(23,19,24)           108.0559         estimate D2E/DX2                !
 ! A70   A(23,19,25)           107.2054         estimate D2E/DX2                !
 ! A71   A(24,19,25)           107.4953         estimate D2E/DX2                !
 ! A72   A(3,37,38)            117.3249         estimate D2E/DX2                !
 ! A73   A(3,37,40)            105.7358         estimate D2E/DX2                !
 ! A74   A(3,37,41)            109.6003         estimate D2E/DX2                !
 ! A75   A(38,37,40)           108.4347         estimate D2E/DX2                !
 ! A76   A(38,37,41)           109.4925         estimate D2E/DX2                !
 ! A77   A(40,37,41)           105.5589         estimate D2E/DX2                !
 ! A78   A(37,38,39)           124.5051         estimate D2E/DX2                !
 ! A79   A(37,38,42)           116.1194         estimate D2E/DX2                !
 ! A80   A(39,38,42)           119.3312         estimate D2E/DX2                !
 ! A81   A(38,39,43)           121.6105         estimate D2E/DX2                !
 ! A82   A(38,39,44)           121.787          estimate D2E/DX2                !
 ! A83   A(43,39,44)           116.6016         estimate D2E/DX2                !
 ! D1    D(6,1,2,3)             70.7538         estimate D2E/DX2                !
 ! D2    D(6,1,2,7)           -175.4008         estimate D2E/DX2                !
 ! D3    D(6,1,2,14)           -58.1132         estimate D2E/DX2                !
 ! D4    D(10,1,2,3)           -46.0679         estimate D2E/DX2                !
 ! D5    D(10,1,2,7)            67.7774         estimate D2E/DX2                !
 ! D6    D(10,1,2,14)         -174.9349         estimate D2E/DX2                !
 ! D7    D(12,1,2,3)          -167.0938         estimate D2E/DX2                !
 ! D8    D(12,1,2,7)           -53.2484         estimate D2E/DX2                !
 ! D9    D(12,1,2,14)           64.0392         estimate D2E/DX2                !
 ! D10   D(2,1,10,5)            16.0738         estimate D2E/DX2                !
 ! D11   D(6,1,10,5)          -103.0317         estimate D2E/DX2                !
 ! D12   D(12,1,10,5)          141.8687         estimate D2E/DX2                !
 ! D13   D(2,1,12,13)         -178.3177         estimate D2E/DX2                !
 ! D14   D(2,1,12,32)           58.7226         estimate D2E/DX2                !
 ! D15   D(2,1,12,33)          -56.7376         estimate D2E/DX2                !
 ! D16   D(6,1,12,13)          -56.0447         estimate D2E/DX2                !
 ! D17   D(6,1,12,32)         -179.0043         estimate D2E/DX2                !
 ! D18   D(6,1,12,33)           65.5354         estimate D2E/DX2                !
 ! D19   D(10,1,12,13)          56.4798         estimate D2E/DX2                !
 ! D20   D(10,1,12,32)         -66.4798         estimate D2E/DX2                !
 ! D21   D(10,1,12,33)         178.0599         estimate D2E/DX2                !
 ! D22   D(1,2,3,4)             62.4678         estimate D2E/DX2                !
 ! D23   D(1,2,3,15)           179.6491         estimate D2E/DX2                !
 ! D24   D(1,2,3,37)           -57.3094         estimate D2E/DX2                !
 ! D25   D(7,2,3,4)            -53.2759         estimate D2E/DX2                !
 ! D26   D(7,2,3,15)            63.9054         estimate D2E/DX2                !
 ! D27   D(7,2,3,37)          -173.0531         estimate D2E/DX2                !
 ! D28   D(14,2,3,4)          -170.5291         estimate D2E/DX2                !
 ! D29   D(14,2,3,15)          -53.3478         estimate D2E/DX2                !
 ! D30   D(14,2,3,37)           69.6937         estimate D2E/DX2                !
 ! D31   D(1,2,14,29)          -71.1701         estimate D2E/DX2                !
 ! D32   D(1,2,14,30)           49.8515         estimate D2E/DX2                !
 ! D33   D(1,2,14,31)          170.1242         estimate D2E/DX2                !
 ! D34   D(3,2,14,29)          162.3104         estimate D2E/DX2                !
 ! D35   D(3,2,14,30)          -76.668          estimate D2E/DX2                !
 ! D36   D(3,2,14,31)           43.6047         estimate D2E/DX2                !
 ! D37   D(7,2,14,29)           46.4581         estimate D2E/DX2                !
 ! D38   D(7,2,14,30)          167.4796         estimate D2E/DX2                !
 ! D39   D(7,2,14,31)          -72.2477         estimate D2E/DX2                !
 ! D40   D(2,3,4,5)            -51.4097         estimate D2E/DX2                !
 ! D41   D(2,3,4,8)             68.1198         estimate D2E/DX2                !
 ! D42   D(2,3,4,9)           -173.7302         estimate D2E/DX2                !
 ! D43   D(15,3,4,5)          -165.8285         estimate D2E/DX2                !
 ! D44   D(15,3,4,8)           -46.299          estimate D2E/DX2                !
 ! D45   D(15,3,4,9)            71.8509         estimate D2E/DX2                !
 ! D46   D(37,3,4,5)            72.7743         estimate D2E/DX2                !
 ! D47   D(37,3,4,8)          -167.6962         estimate D2E/DX2                !
 ! D48   D(37,3,4,9)           -49.5462         estimate D2E/DX2                !
 ! D49   D(2,3,15,16)         -168.7319         estimate D2E/DX2                !
 ! D50   D(4,3,15,16)          -54.8767         estimate D2E/DX2                !
 ! D51   D(37,3,15,16)          65.2894         estimate D2E/DX2                !
 ! D52   D(2,3,37,38)          -62.0469         estimate D2E/DX2                !
 ! D53   D(2,3,37,40)          176.9301         estimate D2E/DX2                !
 ! D54   D(2,3,37,41)           63.5927         estimate D2E/DX2                !
 ! D55   D(4,3,37,38)          179.9102         estimate D2E/DX2                !
 ! D56   D(4,3,37,40)           58.8872         estimate D2E/DX2                !
 ! D57   D(4,3,37,41)          -54.4502         estimate D2E/DX2                !
 ! D58   D(15,3,37,38)          58.6823         estimate D2E/DX2                !
 ! D59   D(15,3,37,40)         -62.3407         estimate D2E/DX2                !
 ! D60   D(15,3,37,41)        -175.6781         estimate D2E/DX2                !
 ! D61   D(3,4,5,10)            23.7092         estimate D2E/DX2                !
 ! D62   D(3,4,5,11)          -158.3319         estimate D2E/DX2                !
 ! D63   D(8,4,5,10)           -96.85           estimate D2E/DX2                !
 ! D64   D(8,4,5,11)            81.1089         estimate D2E/DX2                !
 ! D65   D(9,4,5,10)           149.0345         estimate D2E/DX2                !
 ! D66   D(9,4,5,11)           -33.0066         estimate D2E/DX2                !
 ! D67   D(4,5,10,1)            -4.3152         estimate D2E/DX2                !
 ! D68   D(11,5,10,1)          177.6518         estimate D2E/DX2                !
 ! D69   D(1,12,13,34)         179.4326         estimate D2E/DX2                !
 ! D70   D(1,12,13,35)         -60.3543         estimate D2E/DX2                !
 ! D71   D(1,12,13,36)          59.9015         estimate D2E/DX2                !
 ! D72   D(32,12,13,34)        -58.6012         estimate D2E/DX2                !
 ! D73   D(32,12,13,35)         61.6119         estimate D2E/DX2                !
 ! D74   D(32,12,13,36)       -178.1323         estimate D2E/DX2                !
 ! D75   D(33,12,13,34)         58.5642         estimate D2E/DX2                !
 ! D76   D(33,12,13,35)        178.7773         estimate D2E/DX2                !
 ! D77   D(33,12,13,36)        -60.9669         estimate D2E/DX2                !
 ! D78   D(3,15,16,17)         170.0697         estimate D2E/DX2                !
 ! D79   D(3,15,16,18)         -71.9839         estimate D2E/DX2                !
 ! D80   D(3,15,16,19)          51.6549         estimate D2E/DX2                !
 ! D81   D(15,16,17,26)        -61.6704         estimate D2E/DX2                !
 ! D82   D(15,16,17,27)         58.5114         estimate D2E/DX2                !
 ! D83   D(15,16,17,28)        178.3945         estimate D2E/DX2                !
 ! D84   D(18,16,17,26)        178.8848         estimate D2E/DX2                !
 ! D85   D(18,16,17,27)        -60.9334         estimate D2E/DX2                !
 ! D86   D(18,16,17,28)         58.9497         estimate D2E/DX2                !
 ! D87   D(19,16,17,26)         59.0489         estimate D2E/DX2                !
 ! D88   D(19,16,17,27)        179.2307         estimate D2E/DX2                !
 ! D89   D(19,16,17,28)        -60.8862         estimate D2E/DX2                !
 ! D90   D(15,16,18,20)        -53.4308         estimate D2E/DX2                !
 ! D91   D(15,16,18,21)         68.24           estimate D2E/DX2                !
 ! D92   D(15,16,18,22)       -172.3872         estimate D2E/DX2                !
 ! D93   D(17,16,18,20)         60.522          estimate D2E/DX2                !
 ! D94   D(17,16,18,21)       -177.8072         estimate D2E/DX2                !
 ! D95   D(17,16,18,22)        -58.4345         estimate D2E/DX2                !
 ! D96   D(19,16,18,20)       -179.2673         estimate D2E/DX2                !
 ! D97   D(19,16,18,21)        -57.5965         estimate D2E/DX2                !
 ! D98   D(19,16,18,22)         61.7762         estimate D2E/DX2                !
 ! D99   D(15,16,19,23)        -71.2976         estimate D2E/DX2                !
 ! D100  D(15,16,19,24)         50.9384         estimate D2E/DX2                !
 ! D101  D(15,16,19,25)        169.6883         estimate D2E/DX2                !
 ! D102  D(17,16,19,23)        174.1403         estimate D2E/DX2                !
 ! D103  D(17,16,19,24)        -63.6237         estimate D2E/DX2                !
 ! D104  D(17,16,19,25)         55.1263         estimate D2E/DX2                !
 ! D105  D(18,16,19,23)         53.8891         estimate D2E/DX2                !
 ! D106  D(18,16,19,24)        176.125          estimate D2E/DX2                !
 ! D107  D(18,16,19,25)        -65.125          estimate D2E/DX2                !
 ! D108  D(3,37,38,39)         135.6861         estimate D2E/DX2                !
 ! D109  D(3,37,38,42)         -46.7606         estimate D2E/DX2                !
 ! D110  D(40,37,38,39)       -104.7098         estimate D2E/DX2                !
 ! D111  D(40,37,38,42)         72.8434         estimate D2E/DX2                !
 ! D112  D(41,37,38,39)          9.9933         estimate D2E/DX2                !
 ! D113  D(41,37,38,42)       -172.4535         estimate D2E/DX2                !
 ! D114  D(37,38,39,43)        177.4729         estimate D2E/DX2                !
 ! D115  D(37,38,39,44)         -2.1748         estimate D2E/DX2                !
 ! D116  D(42,38,39,43)         -0.0072         estimate D2E/DX2                !
 ! D117  D(42,38,39,44)       -179.6548         estimate D2E/DX2                !
 --------------------------------------------------------------------------------
 Trust Radius=3.00D-01 FncErr=1.00D-07 GrdErr=1.00D-06
 Number of steps in this run=     50 maximum allowed number of steps=    264.
 GradGradGradGradGradGradGradGradGradGradGradGradGradGradGradGradGradGrad

                          Input orientation:                          
 ---------------------------------------------------------------------
 Center     Atomic      Atomic             Coordinates (Angstroms)
 Number     Number       Type             X           Y           Z
 ---------------------------------------------------------------------
      1          6           0        1.078877   -0.176032    0.793960
      2          6           0       -0.423385   -0.303982    0.508794
      3          6           0       -1.205542    0.864182    1.176671
      4          6           0       -0.677884    2.145548    0.507803
      5          6           0        0.833037    2.289388    0.497381
      6          1           0        1.263965   -0.398254    1.852928
      7          1           0       -0.572870   -0.159314   -0.570387
      8          1           0       -1.003130    2.153165   -0.539196
      9          1           0       -1.075714    3.050538    0.972045
     10          8           0        1.593786    1.179774    0.590757
     11          8           0        1.384815    3.370140    0.370943
     12          6           0        1.961612   -1.084538   -0.064684
     13          6           0        3.454996   -0.976243    0.258732
     14          6           0       -0.942290   -1.708169    0.854491
     15          8           0       -2.577513    0.664710    0.851521
     16         14           0       -4.017325    1.531694    0.957808
     17          6           0       -5.223149    0.485158   -0.036759
     18          6           0       -4.620586    1.679896    2.740378
     19          6           0       -3.898268    3.256912    0.201256
     20          1           0       -4.692812    0.700911    3.225139
     21          1           0       -3.972490    2.312997    3.355220
     22          1           0       -5.621014    2.128653    2.751502
     23          1           0       -3.288520    3.943133    0.797312
     24          1           0       -3.487015    3.231274   -0.813004
     25          1           0       -4.904438    3.688351    0.138207
     26          1           0       -4.905731    0.399939   -1.081224
     27          1           0       -5.301428   -0.527294    0.373019
     28          1           0       -6.224748    0.929249   -0.025349
     29          1           0       -0.573295   -2.444145    0.135478
     30          1           0       -0.638212   -2.024407    1.854928
     31          1           0       -2.032650   -1.715825    0.809176
     32          1           0        1.783694   -0.843665   -1.120448
     33          1           0        1.632272   -2.117658    0.084776
     34          1           0        4.035120   -1.652610   -0.376172
     35          1           0        3.821635    0.040373    0.098741
     36          1           0        3.653320   -1.246057    1.302165
     37          6           0       -1.020901    0.996391    2.713874
     38          6           0       -1.477565   -0.156257    3.565913
     39          6           0       -0.781351   -0.666414    4.583462
     40          1           0       -1.588400    1.891125    3.006421
     41          1           0        0.026883    1.225817    2.940001
     42          1           0       -2.463177   -0.557802    3.340109
     43          1           0       -1.174322   -1.474236    5.193765
     44          1           0        0.205116   -0.291673    4.847823
 ---------------------------------------------------------------------
                    Distance matrix (angstroms):
                    1          2          3          4          5
     1  C    0.000000
     2  C    1.534432   0.000000
     3  C    2.539111   1.556418   0.000000
     4  C    2.925377   2.462716   1.538736   0.000000
     5  C    2.495334   2.881717   2.578459   1.517788   0.000000
     6  H    1.097749   2.159337   2.854739   3.471465   3.040826
     7  H    2.142426   1.099047   2.121328   2.546746   3.018748
     8  H    3.396648   2.733488   2.155609   1.096381   2.112950
     9  H    3.883907   3.448614   2.199746   1.092152   2.109025
    10  O    1.464457   2.505440   2.877349   2.469836   1.348592
    11  O    3.584393   4.097286   3.693098   2.402724   1.220029
    12  C    1.530319   2.574171   3.920375   4.210480   3.601802
    13  C    2.563738   3.944148   5.094153   5.185395   4.194755
    14  C    2.536971   1.536396   2.605780   3.878304   4.388596
    15  O    3.752245   2.386649   1.424014   2.433026   3.794317
    16  Si   5.377215   4.060508   2.898205   3.425081   4.930730
    17  C    6.390837   4.894702   4.213934   4.869587   6.341762
    18  C    6.302134   5.150945   3.843578   4.554791   5.928281
    19  C    6.075225   4.984912   3.731938   3.420522   4.838288
    20  H    6.323927   5.159104   4.047707   5.058709   6.363877
    21  H    6.186406   5.248511   3.808036   4.357780   5.591143
    22  H    7.350651   6.161396   4.855447   5.428536   6.838250
    23  H    6.003473   5.131299   3.736663   3.182852   4.451074
    24  H    5.919411   4.861174   3.842792   3.288548   4.611627
    25  H    7.152868   6.012977   4.768246   4.514487   5.916478
    26  H    6.297903   4.807815   4.359474   4.842195   6.244635
    27  H    6.403817   4.885040   4.399812   5.342229   6.751357
    28  H    7.432082   5.954996   5.161541   5.703624   7.206632
    29  H    2.882291   2.177644   3.525457   4.605958   4.951270
    30  H    2.736885   2.195016   3.020901   4.382334   4.755664
    31  H    3.471713   2.161773   2.734153   4.103220   4.934683
    32  H    2.146499   2.795869   4.138724   4.200711   3.652005
    33  H    2.139883   2.773975   4.258732   4.867310   4.497896
    34  H    3.505548   4.741332   6.017483   6.117175   5.153230
    35  H    2.837761   4.278659   5.207025   4.984453   3.761476
    36  H    2.833899   4.258693   5.298811   5.558177   4.593587
    37  C    3.077289   2.628759   1.553887   2.510970   3.165717
    38  C    3.770877   3.237144   2.612234   3.910222   4.553674
    39  C    4.249852   4.106387   3.758840   4.952659   5.295193
    40  H    4.035156   3.523336   2.132879   2.671490   3.509594
    41  H    2.770806   2.907541   2.181509   2.694102   2.783425
    42  H    4.378900   3.498788   2.878219   4.303176   5.201213
    43  H    5.110824   4.886958   4.648248   5.942014   6.344318
    44  H    4.148570   4.384329   4.099184   5.055245   5.097304
                    6          7          8          9         10
     6  H    0.000000
     7  H    3.050166   0.000000
     8  H    4.167939   2.352372   0.000000
     9  H    4.259603   3.596540   1.759090   0.000000
    10  O    2.047445   2.799252   2.994705   3.281977   0.000000
    11  O    4.051132   4.144354   2.830488   2.552973   2.211264
    12  C    2.152890   2.745063   4.415606   5.234407   2.385794
    13  C    2.770586   4.192674   5.504977   6.103370   2.867535
    14  C    2.753238   2.136750   4.105602   4.762029   3.852462
    15  O    4.109703   2.592186   2.574543   2.821720   4.211060
    16  Si   5.693677   4.130273   3.422370   3.310613   5.634105
    17  C    6.814249   4.724955   4.565441   4.979968   6.880907
    18  C    6.303508   5.543272   4.905668   4.191870   6.594651
    19  C    6.537346   4.829524   3.185647   2.933174   5.884630
    20  H    6.210823   5.667445   5.467450   4.866269   6.833052
    21  H    6.085082   5.751533   4.899910   3.822930   6.317427
    22  H    7.388885   6.461694   5.670462   4.967503   7.590951
    23  H    6.378643   5.106411   3.195817   2.392439   5.613887
    24  H    6.546180   4.477409   2.721575   3.005567   5.656300
    25  H    7.595380   5.836875   4.246866   3.970039   6.980306
    26  H    6.878336   4.398568   4.312527   5.090247   6.756285
    27  H    6.731358   4.835772   5.147073   5.569235   7.106721
    28  H    7.833965   5.781501   5.387698   5.657491   7.846772
    29  H    3.242041   2.391380   4.666390   5.580664   4.246918
    30  H    2.502530   3.060228   4.828779   5.169716   4.104477
    31  H    3.700416   2.541038   4.224582   4.864202   4.645777
    32  H    3.051143   2.514816   4.133429   5.264937   2.656801
    33  H    2.493665   3.021093   5.057135   5.901753   3.336249
    34  H    3.771153   4.847806   6.316206   7.075162   3.862313
    35  H    3.132290   4.449638   5.305583   5.814447   2.550221
    36  H    2.594442   4.748488   6.052095   6.397927   3.260742
    37  C    2.811916   3.510378   3.452667   2.693788   3.373106
    38  C    3.241738   4.234083   4.733967   4.144052   4.479926
    39  C    3.422140   5.182931   5.851567   5.190830   4.999138
    40  H    3.835073   4.246075   3.603138   2.397033   4.058049
    41  H    2.312943   3.821140   3.745092   2.901409   2.824226
    42  H    4.016061   4.361654   4.952785   4.533530   5.199717
    43  H    4.273661   5.942745   6.786324   6.189202   5.991150
    44  H    3.178352   5.475379   6.037969   5.275657   4.713404
                   11         12         13         14         15
    11  O    0.000000
    12  C    4.512940   0.000000
    13  C    4.815526   1.531836   0.000000
    14  C    5.607001   3.109091   4.497418   0.000000
    15  O    4.821861   4.950046   6.279752   2.881756   0.000000
    16  Si   5.736497   6.605895   7.912903   4.468022   1.684048
    17  C    7.221809   7.354286   8.805295   4.891908   2.796547
    18  C    6.673529   7.670450   8.855996   5.344662   2.961847
    19  C    5.287019   7.297746   8.484892   5.815199   2.981065
    20  H    7.225563   7.634928   8.831715   5.048768   3.179602
    21  H    6.222875   7.645427   8.693382   5.621880   3.306255
    22  H    7.502665   8.703546   9.911016   6.341160   3.875043
    23  H    4.727596   7.320137   8.364529   6.119255   3.355075
    24  H    5.015549   6.990976   8.187999   5.801229   3.191408
    25  H    6.301596   8.364465   9.573563   6.733061   3.881469
    26  H    7.106465   7.099114   8.578527   4.888760   3.037467
    27  H    7.739240   7.297524   8.768671   4.541846   3.011570
    28  H    8.001277   8.430502   9.869602   5.969460   3.760479
    29  H    6.139669   2.883461   4.289179   1.093068   3.767570
    30  H    5.949453   3.365613   4.516729   1.092404   3.463967
    31  H    6.143138   4.137183   5.564551   1.091328   2.442460
    32  H    4.487706   1.097411   2.170936   3.475448   5.018364
    33  H    5.500823   1.094595   2.157640   2.718182   5.104092
    34  H    5.728029   2.172364   1.094129   5.127595   7.113657
    35  H    4.135158   2.179867   1.092488   5.130648   6.473451
    36  H    5.227099   2.180881   1.095848   4.640430   6.532793
    37  C    4.112357   4.576684   5.472902   3.283006   2.449779
    38  C    5.553065   5.086343   5.994996   3.169663   3.041677
    39  C    6.223452   5.413311   6.061841   3.875098   4.350342
    40  H    4.239485   5.557773   6.419302   4.243015   2.669463
    41  H    3.611393   4.255473   4.877523   3.727858   3.385184
    42  H    6.249137   5.607925   6.685413   3.132848   2.775010
    43  H    7.299094   6.134919   6.784772   4.351766   5.039754
    44  H    5.902797   5.276992   5.664814   4.389727   4.962673
                   16         17         18         19         20
    16  Si   0.000000
    17  C    1.881068   0.000000
    18  C    1.887709   3.082690   0.000000
    19  C    1.887570   3.081328   3.075039   0.000000
    20  H    2.507444   3.311765   1.094815   4.038355   0.000000
    21  H    2.521910   4.051009   1.094932   3.293019   1.770482
    22  H    2.479016   3.260947   1.096523   3.277892   1.767579
    23  H    2.524273   4.049205   3.266826   1.094521   4.287002
    24  H    2.511090   3.340340   4.039589   1.094764   4.915616
    25  H    2.471818   3.223762   3.299358   1.096583   4.301015
    26  H    2.495553   1.094953   4.040327   3.289685   4.322116
    27  H    2.496063   1.095036   3.307510   4.039626   3.164410
    28  H    2.490432   1.095695   3.284212   3.298768   3.600644
    29  H    5.323989   5.498329   6.338279   6.600137   6.033888
    30  H    4.986891   5.558601   5.510462   6.423000   5.073916
    31  H    3.808858   3.967268   4.685923   5.345858   4.330584
    32  H    6.604036   7.213599   7.892347   7.130661   7.950785
    33  H    6.782175   7.333909   7.782794   7.712745   7.603480
    34  H    8.761344   9.507934   9.784668   9.347484   9.730637
    35  H    8.025667   9.056728   8.996521   8.363823   9.094311
    36  H    8.165370   9.142293   8.893097   8.860880   8.783304
    37  C    3.514097   5.048390   3.664098   4.438744   3.719091
    38  C    4.012702   5.236417   3.732499   5.369399   3.344948
    39  C    5.333720   6.511692   4.862289   6.656679   4.360521
    40  H    3.197762   4.944603   3.051156   3.881986   3.331940
    41  H    4.514229   6.080503   4.673864   5.199315   4.757347
    42  H    3.529409   4.484245   3.165657   5.144310   2.562977
    43  H    5.921285   6.898595   5.276779   7.397891   4.581106
    44  H    6.023777   7.343614   5.622793   7.142884   5.254334
                   21         22         23         24         25
    21  H    0.000000
    22  H    1.765245   0.000000
    23  H    3.109349   3.542842   0.000000
    24  H    4.295696   4.298305   1.771796   0.000000
    25  H    3.620676   3.126572   1.763668   1.767147   0.000000
    26  H    4.920647   4.264958   4.324176   3.178232   3.507231
    27  H    4.327454   3.579577   4.921031   4.338846   4.240802
    28  H    4.291348   3.084471   4.287389   3.662636   3.063105
    29  H    6.674703   7.296131   6.971929   6.449788   7.507750
    30  H    5.672862   6.548287   6.614698   6.546428   7.333718
    31  H    5.145554   5.606157   5.796650   5.405592   6.156499
    32  H    7.945425   8.868843   7.233160   6.669335   8.176460
    33  H    7.857472   8.817752   7.839330   7.458162   8.743064
    34  H    9.683550  10.831492   9.291131   8.979179  10.426224
    35  H    8.747449  10.028045   8.140875   8.026798   9.457994
    36  H    8.662267   9.975095   8.681688   8.689350   9.946778
    37  C    3.294944   4.737560   4.183133   4.849257   5.381689
    38  C    3.516569   4.801276   5.267800   5.889666   6.186569
    39  C    4.535288   5.881395   6.470607   7.185710   7.464858
    40  H    2.446124   4.047639   3.461403   4.470877   4.738436
    41  H    4.165255   5.722708   4.792371   5.518548   6.183206
    42  H    3.243415   4.187533   5.235019   5.714340   5.851645
    43  H    5.055010   6.222421   7.290166   7.973183   8.131712
    44  H    5.144372   6.648032   6.822442   7.621544   8.008034
                   26         27         28         29         30
    26  H    0.000000
    27  H    1.769508   0.000000
    28  H    1.770550   1.769953   0.000000
    29  H    5.323456   5.107445   6.583660   0.000000
    30  H    5.719280   5.116932   6.593096   1.771130   0.000000
    31  H    4.037903   3.505389   5.026582   1.764663   1.770107
    32  H    6.804153   7.247724   8.275120   3.113564   4.014056
    33  H    7.102347   7.119589   8.427843   2.230177   2.880492
    34  H    9.200482   9.433915  10.585554   4.703807   5.191924
    35  H    8.814110   9.144822  10.086392   5.048721   5.218980
    36  H    9.035884   9.031470  10.201494   4.545420   4.396433
    37  C    5.463555   5.111178   5.881146   4.322703   3.163773
    38  C    5.801514   4.995416   6.050722   4.221377   2.668702
    39  C    7.087756   6.178858   7.308751   4.794598   3.051152
    40  H    5.471486   5.154623   5.622504   5.297859   4.190487
    41  H    6.417399   6.168768   6.925614   4.657701   3.490515
    42  H    5.141160   4.106121   5.261848   4.171283   2.772578
    43  H    7.537336   6.416331   7.650013   5.185386   3.426067
    44  H    7.858287   7.099396   8.159755   5.238822   3.559633
                   31         32         33         34         35
    31  H    0.000000
    32  H    4.364469   0.000000
    33  H    3.757377   1.760269   0.000000
    34  H    6.182789   2.505445   2.490465   0.000000
    35  H    6.153178   2.533998   3.074183   1.771245   0.000000
    36  H    5.726602   3.086498   2.515225   1.768579   1.769594
    37  C    3.465202   5.094466   4.863002   6.490680   5.585969
    38  C    3.215583   5.750680   5.063250   6.940375   6.335730
    39  C    4.112450   6.256633   5.307529   6.983476   6.465273
    40  H    4.246802   5.990087   5.914311   7.458147   6.414699
    41  H    4.175566   4.884300   4.680642   5.945444   4.886531
    42  H    2.816379   6.165565   5.459217   7.565527   7.096699
    43  H    4.474340   7.001197   5.864532   7.628519   7.294717
    44  H    4.831819   6.198134   5.296944   6.619003   5.978566
                   36         37         38         39         40
    36  H    0.000000
    37  C    5.373065   0.000000
    38  C    5.712985   1.504364   0.000000
    39  C    5.546999   2.513496   1.334308   0.000000
    40  H    6.342084   1.099176   2.125344   3.111172   0.000000
    41  H    4.684412   1.096184   2.136647   2.633390   1.748194
    42  H    6.483706   2.210847   1.087960   2.094340   2.621798
    43  H    6.205058   3.503911   2.116347   1.086035   4.035045
    44  H    5.037127   2.777762   2.119680   1.087858   3.372249
                   41         42         43         44
    41  H    0.000000
    42  H    3.088977   0.000000
    43  H    3.716535   2.436604   0.000000
    44  H    2.444244   3.076331   1.849589   0.000000
 Stoichiometry    C14H26O3Si
 Framework group  C1[X(C14H26O3Si)]
 Deg. of freedom   126
 Full point group                 C1      NOp   1
 Largest Abelian subgroup         C1      NOp   1
 Largest concise Abelian subgroup C1      NOp   1
                         Standard orientation:                         
 ---------------------------------------------------------------------
 Center     Atomic      Atomic             Coordinates (Angstroms)
 Number     Number       Type             X           Y           Z
 ---------------------------------------------------------------------
      1          6           0        2.400510    0.187039    0.333815
      2          6           0        1.009753    0.321088    0.968092
      3          6           0       -0.096339   -0.049427   -0.062304
      4          6           0        0.151009   -1.526565   -0.415275
      5          6           0        1.572472   -1.858360   -0.831253
      6          1           0        2.540241    0.991845   -0.399544
      7          1           0        0.925569   -0.441756    1.754785
      8          1           0       -0.071155   -2.139003    0.466549
      9          1           0       -0.500527   -1.876334   -1.218990
     10          8           0        2.575435   -1.055176   -0.421788
     11          8           0        1.844986   -2.846490   -1.492922
     12          6           0        3.555527    0.224694    1.337007
     13          6           0        4.939241    0.130865    0.686580
     14          6           0        0.830398    1.689912    1.642381
     15          8           0       -1.340017    0.096164    0.615842
     16         14           0       -2.954633   -0.299498    0.346612
     17          6           0       -3.766350    0.056327    2.005805
     18          6           0       -3.732133    0.783722   -0.989642
     19          6           0       -3.204535   -2.114475   -0.107620
     20          1           0       -3.599764    1.848878   -0.773908
     21          1           0       -3.320699    0.588245   -1.985327
     22          1           0       -4.809949    0.587820   -1.037580
     23          1           0       -2.841700   -2.357053   -1.111354
     24          1           0       -2.711288   -2.785595    0.602881
     25          1           0       -4.276941   -2.342493   -0.086467
     26          1           0       -3.345948   -0.574486    2.795906
     27          1           0       -3.624753    1.101322    2.300833
     28          1           0       -4.844151   -0.135642    1.960652
     29          1           0        1.434507    1.754991    2.551014
     30          1           0        1.113599    2.513595    0.983072
     31          1           0       -0.214776    1.822491    1.927039
     32          1           0        3.417752   -0.593472    2.055292
     33          1           0        3.483467    1.158947    1.902796
     34          1           0        5.724459    0.172556    1.447378
     35          1           0        5.052330   -0.802567    0.130303
     36          1           0        5.105035    0.960694   -0.009682
     37          6           0       -0.088417    0.781135   -1.375571
     38          6           0       -0.315884    2.263432   -1.256563
     39          6           0        0.392387    3.191144   -1.903155
     40          1           0       -0.885651    0.356310   -2.001773
     41          1           0        0.844059    0.596843   -1.921597
     42          1           0       -1.145347    2.571414   -0.623479
     43          1           0        0.161497    4.248566   -1.813589
     44          1           0        1.225951    2.927687   -2.550608
 ---------------------------------------------------------------------
 Rotational constants (GHZ):      0.5401505      0.2453435      0.2189886
 Standard basis: 6-31G(d,p) (6D, 7F)
 There are   404 symmetry adapted cartesian basis functions of A   symmetry.
 There are   404 symmetry adapted basis functions of A   symmetry.
   404 basis functions,   710 primitive gaussians,   404 cartesian basis functions
    74 alpha electrons       74 beta electrons
       nuclear repulsion energy      1615.8846240625 Hartrees.
 NAtoms=   44 NActive=   44 NUniq=   44 SFac= 1.00D+00 NAtFMM=   60 NAOKFM=F Big=F
 Integral buffers will be    131072 words long.
 Raffenetti 2 integral format.
 Two-electron integral symmetry is turned on.
 ------------------------------------------------------------------------------
 Polarizable Continuum Model (PCM)
 =================================
 Model                : PCM (using non-symmetric T matrix).
 Atomic radii         : UFF (Universal Force Field).
 Polarization charges : Total charges.
 Charge compensation  : None.
 Solution method      : On-the-fly selection.
 Cavity type          : Scaled VdW (van der Waals Surface) (Alpha=1.100).
 Cavity algorithm     : GePol (No added spheres)
                        Default sphere list used, NSphG=   44.
                        Lebedev-Laikov grids with approx.  5.0 points / Ang**2.
                        Smoothing algorithm: Karplus/York (Gamma=1.0000).
                        Polarization charges: spherical gaussians, with
                                              point-specific exponents (IZeta= 3).
                        Self-potential: point-specific (ISelfS= 7).
                        Self-field    : sphere-specific E.n sum rule (ISelfD= 2).
 1st derivatives      : Analytical E(r).r(x)/FMM algorithm (CHGder, D1EAlg=3).
                        Cavity 1st derivative terms included.
 Solvent              : Chloroform, Eps=   4.711300 Eps(inf)=   2.090627
 ------------------------------------------------------------------------------
 One-electron integrals computed using PRISM.
 NBasis=   404 RedAO= T EigKep=  1.64D-03  NBF=   404
 NBsUse=   404 1.00D-06 EigRej= -1.00D+00 NBFU=   404
 ExpMin= 7.78D-02 ExpMax= 1.61D+04 ExpMxC= 2.43D+03 IAcc=2 IRadAn=         4 AccDes= 0.00D+00
 Harris functional with IExCor=  402 and IRadAn=       4 diagonalized for initial guess.
 HarFok:  IExCor=  402 AccDes= 0.00D+00 IRadAn=         4 IDoV= 1 UseB2=F ITyADJ=14
 ICtDFT=  3500011 ScaDFX=  1.000000  1.000000  1.000000  1.000000
 FoFCou: FMM=F IPFlag=           0 FMFlag=      100000 FMFlg1=           0
         NFxFlg=           0 DoJE=T BraDBF=F KetDBF=T FulRan=T
         wScrn=  0.000000 ICntrl=     500 IOpCl=  0 I1Cent=   200000004 NGrid=           0
         NMat0=    1 NMatS0=      1 NMatT0=    0 NMatD0=    1 NMtDS0=    0 NMtDT0=    0
 Petite list used in FoFCou.
 Requested convergence on RMS density matrix=1.00D-08 within 128 cycles.
 Requested convergence on MAX density matrix=1.00D-06.
 Requested convergence on             energy=1.00D-06.
 No special actions if energy rises.
 Inv3:  Mode=1 IEnd=    24952368.
 Iteration    1 A*A^-1 deviation from unit magnitude is 8.55D-15 for   1343.
 Iteration    1 A*A^-1 deviation from orthogonality  is 6.22D-15 for   2630   1306.
 Iteration    1 A^-1*A deviation from unit magnitude is 8.33D-15 for   1343.
 Iteration    1 A^-1*A deviation from orthogonality  is 2.51D-12 for   2041   1997.
 Error on total polarization charges =  0.00934
 SCF Done:  E(RB3LYP) =  -1064.42250991     A.U. after   13 cycles
            NFock= 13  Conv=0.55D-08     -V/T= 2.0081

 **********************************************************************

            Population analysis using the SCF density.

 **********************************************************************

 Orbital symmetries:
       Occupied  (A) (A) (A) (A) (A) (A) (A) (A) (A) (A) (A) (A)
                 (A) (A) (A) (A) (A) (A) (A) (A) (A) (A) (A) (A)
                 (A) (A) (A) (A) (A) (A) (A) (A) (A) (A) (A) (A)
                 (A) (A) (A) (A) (A) (A) (A) (A) (A) (A) (A) (A)
                 (A) (A) (A) (A) (A) (A) (A) (A) (A) (A) (A) (A)
                 (A) (A) (A) (A) (A) (A) (A) (A) (A) (A) (A) (A)
                 (A) (A)
       Virtual   (A) (A) (A) (A) (A) (A) (A) (A) (A) (A) (A) (A)
                 (A) (A) (A) (A) (A) (A) (A) (A) (A) (A) (A) (A)
                 (A) (A) (A) (A) (A) (A) (A) (A) (A) (A) (A) (A)
                 (A) (A) (A) (A) (A) (A) (A) (A) (A) (A) (A) (A)
                 (A) (A) (A) (A) (A) (A) (A) (A) (A) (A) (A) (A)
                 (A) (A) (A) (A) (A) (A) (A) (A) (A) (A) (A) (A)
                 (A) (A) (A) (A) (A) (A) (A) (A) (A) (A) (A) (A)
                 (A) (A) (A) (A) (A) (A) (A) (A) (A) (A) (A) (A)
                 (A) (A) (A) (A) (A) (A) (A) (A) (A) (A) (A) (A)
                 (A) (A) (A) (A) (A) (A) (A) (A) (A) (A) (A) (A)
                 (A) (A) (A) (A) (A) (A) (A) (A) (A) (A) (A) (A)
                 (A) (A) (A) (A) (A) (A) (A) (A) (A) (A) (A) (A)
                 (A) (A) (A) (A) (A) (A) (A) (A) (A) (A) (A) (A)
                 (A) (A) (A) (A) (A) (A) (A) (A) (A) (A) (A) (A)
                 (A) (A) (A) (A) (A) (A) (A) (A) (A) (A) (A) (A)
                 (A) (A) (A) (A) (A) (A) (A) (A) (A) (A) (A) (A)
                 (A) (A) (A) (A) (A) (A) (A) (A) (A) (A) (A) (A)
                 (A) (A) (A) (A) (A) (A) (A) (A) (A) (A) (A) (A)
                 (A) (A) (A) (A) (A) (A) (A) (A) (A) (A) (A) (A)
                 (A) (A) (A) (A) (A) (A) (A) (A) (A) (A) (A) (A)
                 (A) (A) (A) (A) (A) (A) (A) (A) (A) (A) (A) (A)
                 (A) (A) (A) (A) (A) (A) (A) (A) (A) (A) (A) (A)
                 (A) (A) (A) (A) (A) (A) (A) (A) (A) (A) (A) (A)
                 (A) (A) (A) (A) (A) (A) (A) (A) (A) (A) (A) (A)
                 (A) (A) (A) (A) (A) (A) (A) (A) (A) (A) (A) (A)
                 (A) (A) (A) (A) (A) (A) (A) (A) (A) (A) (A) (A)
                 (A) (A) (A) (A) (A) (A) (A) (A) (A) (A) (A) (A)
                 (A) (A) (A) (A) (A) (A)
 The electronic state is 1-A.
 Alpha  occ. eigenvalues --  -66.14489 -19.18907 -19.13947 -19.12978 -10.31975
 Alpha  occ. eigenvalues --  -10.26264 -10.25260 -10.19966 -10.19926 -10.19474
 Alpha  occ. eigenvalues --  -10.19287 -10.18852 -10.18069 -10.17480 -10.17397
 Alpha  occ. eigenvalues --  -10.16121 -10.16058 -10.15873  -5.28524  -3.64625
 Alpha  occ. eigenvalues --   -3.64325  -3.64315  -1.09419  -1.01057  -1.00654
 Alpha  occ. eigenvalues --   -0.82852  -0.80174  -0.77890  -0.74926  -0.71263
 Alpha  occ. eigenvalues --   -0.70088  -0.69048  -0.67732  -0.67605  -0.64145
 Alpha  occ. eigenvalues --   -0.61290  -0.59488  -0.56557  -0.54049  -0.50785
 Alpha  occ. eigenvalues --   -0.50169  -0.48418  -0.46719  -0.46051  -0.44954
 Alpha  occ. eigenvalues --   -0.44666  -0.43346  -0.42552  -0.42140  -0.41800
 Alpha  occ. eigenvalues --   -0.40922  -0.40623  -0.39801  -0.39713  -0.39314
 Alpha  occ. eigenvalues --   -0.39097  -0.38614  -0.38156  -0.37955  -0.36861
 Alpha  occ. eigenvalues --   -0.36618  -0.36179  -0.35227  -0.34791  -0.34209
 Alpha  occ. eigenvalues --   -0.33910  -0.32473  -0.31558  -0.30426  -0.29087
 Alpha  occ. eigenvalues --   -0.28325  -0.27774  -0.26176  -0.25233
 Alpha virt. eigenvalues --    0.00609   0.01306   0.06223   0.07440   0.08508
 Alpha virt. eigenvalues --    0.09380   0.09725   0.10184   0.11130   0.11543
 Alpha virt. eigenvalues --    0.12058   0.12581   0.13317   0.14020   0.14621
 Alpha virt. eigenvalues --    0.14918   0.15721   0.16163   0.16740   0.16874
 Alpha virt. eigenvalues --    0.17122   0.17473   0.17715   0.18112   0.18637
 Alpha virt. eigenvalues --    0.19135   0.19675   0.20176   0.20748   0.21054
 Alpha virt. eigenvalues --    0.21296   0.22303   0.23191   0.23400   0.24296
 Alpha virt. eigenvalues --    0.24590   0.25042   0.25937   0.26976   0.27438
 Alpha virt. eigenvalues --    0.29537   0.31106   0.32360   0.34774   0.35927
 Alpha virt. eigenvalues --    0.36843   0.37762   0.39272   0.39899   0.42851
 Alpha virt. eigenvalues --    0.46330   0.47677   0.48638   0.50082   0.50996
 Alpha virt. eigenvalues --    0.51993   0.53153   0.53839   0.54853   0.55404
 Alpha virt. eigenvalues --    0.56726   0.57192   0.58265   0.59963   0.60797
 Alpha virt. eigenvalues --    0.61325   0.62395   0.63263   0.63437   0.65168
 Alpha virt. eigenvalues --    0.65667   0.65941   0.67109   0.68758   0.69052
 Alpha virt. eigenvalues --    0.70056   0.70298   0.72133   0.72247   0.73412
 Alpha virt. eigenvalues --    0.74602   0.74970   0.76201   0.76899   0.78288
 Alpha virt. eigenvalues --    0.80134   0.80708   0.81170   0.81620   0.82245
 Alpha virt. eigenvalues --    0.83652   0.83981   0.85321   0.86123   0.86611
 Alpha virt. eigenvalues --    0.86857   0.87628   0.87888   0.88382   0.88991
 Alpha virt. eigenvalues --    0.89314   0.89774   0.90408   0.90800   0.91321
 Alpha virt. eigenvalues --    0.91806   0.92618   0.92969   0.93055   0.93631
 Alpha virt. eigenvalues --    0.94427   0.94557   0.95618   0.96811   0.97016
 Alpha virt. eigenvalues --    0.97448   0.97692   0.99508   0.99855   1.01704
 Alpha virt. eigenvalues --    1.02943   1.03298   1.04571   1.05431   1.05570
 Alpha virt. eigenvalues --    1.09199   1.11305   1.12488   1.13437   1.15934
 Alpha virt. eigenvalues --    1.19019   1.21362   1.22164   1.25359   1.25816
 Alpha virt. eigenvalues --    1.27229   1.29697   1.29870   1.31477   1.32609
 Alpha virt. eigenvalues --    1.35174   1.37737   1.38229   1.40271   1.42244
 Alpha virt. eigenvalues --    1.42982   1.44352   1.46097   1.46308   1.48123
 Alpha virt. eigenvalues --    1.48602   1.52519   1.54010   1.55440   1.56045
 Alpha virt. eigenvalues --    1.59388   1.60168   1.62709   1.62840   1.64000
 Alpha virt. eigenvalues --    1.64509   1.65989   1.67886   1.69529   1.70991
 Alpha virt. eigenvalues --    1.72138   1.75749   1.76339   1.78045   1.78829
 Alpha virt. eigenvalues --    1.80738   1.82014   1.84020   1.84431   1.85516
 Alpha virt. eigenvalues --    1.86473   1.87061   1.88918   1.90623   1.91631
 Alpha virt. eigenvalues --    1.92575   1.92935   1.95098   1.95591   1.96779
 Alpha virt. eigenvalues --    1.97905   1.98725   1.99922   2.01494   2.03270
 Alpha virt. eigenvalues --    2.04657   2.05096   2.05152   2.05285   2.05934
 Alpha virt. eigenvalues --    2.06638   2.07785   2.07966   2.08821   2.09181
 Alpha virt. eigenvalues --    2.09387   2.10430   2.10987   2.11236   2.11581
 Alpha virt. eigenvalues --    2.12122   2.13571   2.13809   2.13961   2.15125
 Alpha virt. eigenvalues --    2.15276   2.15722   2.16382   2.16716   2.17372
 Alpha virt. eigenvalues --    2.19383   2.22740   2.23628   2.24894   2.26271
 Alpha virt. eigenvalues --    2.28036   2.28700   2.30865   2.31140   2.31390
 Alpha virt. eigenvalues --    2.32490   2.33757   2.34348   2.35415   2.35780
 Alpha virt. eigenvalues --    2.36999   2.37579   2.37741   2.39039   2.40382
 Alpha virt. eigenvalues --    2.43012   2.45112   2.47443   2.50031   2.50448
 Alpha virt. eigenvalues --    2.52556   2.53544   2.55310   2.56515   2.58913
 Alpha virt. eigenvalues --    2.59999   2.63306   2.63655   2.64552   2.65258
 Alpha virt. eigenvalues --    2.65536   2.66933   2.68215   2.69544   2.70030
 Alpha virt. eigenvalues --    2.71503   2.72639   2.72929   2.74737   2.75276
 Alpha virt. eigenvalues --    2.77073   2.79568   2.80287   2.81130   2.81336
 Alpha virt. eigenvalues --    2.81764   2.82918   2.84158   2.84608   2.84814
 Alpha virt. eigenvalues --    2.84998   2.85753   2.86512   2.88452   2.89538
 Alpha virt. eigenvalues --    2.91171   2.92133   2.92548   2.93525   2.95519
 Alpha virt. eigenvalues --    2.97119   2.98528   3.03308   3.08977   3.10862
 Alpha virt. eigenvalues --    3.18411   3.19035   3.19732   3.19959   3.21112
 Alpha virt. eigenvalues --    3.22005   3.23577   3.25659   3.29436   3.32186
 Alpha virt. eigenvalues --    3.34070   3.35795   3.41035   3.43079   3.43441
 Alpha virt. eigenvalues --    3.43742   3.44642   3.44664   3.45674   3.45806
 Alpha virt. eigenvalues --    3.46366   3.47383   3.48916   3.49395   3.51728
 Alpha virt. eigenvalues --    3.54036   3.56265   3.67861   4.00342   4.11816
 Alpha virt. eigenvalues --    4.20350   4.24138   4.33852   4.38243   4.44254
 Alpha virt. eigenvalues --    4.46347   4.47143   4.48596   4.53247   4.54773
 Alpha virt. eigenvalues --    4.62115   4.66355   4.75048   4.78979   4.81515
          Condensed to atoms (all electrons):
               1          2          3          4          5          6
     1  C    4.822740   0.320571  -0.029529  -0.007479  -0.008175   0.375944
     2  C    0.320571   5.092792   0.336084  -0.050018  -0.013810  -0.041732
     3  C   -0.029529   0.336084   4.836548   0.288447  -0.018064  -0.013265
     4  C   -0.007479  -0.050018   0.288447   5.335128   0.290812   0.001318
     5  C   -0.008175  -0.013810  -0.018064   0.290812   4.353636  -0.001062
     6  H    0.375944  -0.041732  -0.013265   0.001318  -0.001062   0.636612
     7  H   -0.040304   0.373027  -0.045386  -0.008455   0.000139   0.006507
     8  H    0.000843  -0.008229  -0.023149   0.362701  -0.023657  -0.000022
     9  H    0.000078   0.005642  -0.029860   0.359783  -0.021833   0.000073
    10  O    0.156946  -0.025587   0.004814  -0.094032   0.265714  -0.040541
    11  O    0.002674  -0.000173   0.002451  -0.080348   0.575191  -0.000063
    12  C    0.382414  -0.034953   0.004923  -0.000807   0.001326  -0.051309
    13  C   -0.036591   0.003918  -0.000087  -0.000011   0.000089  -0.006036
    14  C   -0.034153   0.351058  -0.027685   0.004883   0.000494  -0.004938
    15  O    0.002846  -0.047732   0.186797  -0.031077   0.001498  -0.000031
    16  Si   0.000170  -0.001326  -0.013182  -0.002944   0.000358  -0.000008
    17  C    0.000000  -0.000008   0.001190  -0.000105  -0.000001   0.000000
    18  C    0.000001  -0.000023  -0.000987  -0.000265  -0.000002   0.000000
    19  C    0.000001  -0.000050  -0.000948  -0.000290   0.000065   0.000000
    20  H    0.000000   0.000001  -0.000107   0.000007   0.000000   0.000000
    21  H    0.000000  -0.000001   0.000026  -0.000080  -0.000001   0.000000
    22  H    0.000000   0.000001   0.000012   0.000002   0.000000   0.000000
    23  H    0.000000   0.000001   0.000213  -0.001081  -0.000038   0.000000
    24  H    0.000000  -0.000007   0.000000  -0.000130  -0.000020   0.000000
    25  H    0.000000   0.000001   0.000012   0.000083  -0.000001   0.000000
    26  H    0.000000   0.000005  -0.000029  -0.000022   0.000000   0.000000
    27  H    0.000000   0.000004  -0.000051   0.000006   0.000000   0.000000
    28  H    0.000000   0.000000  -0.000016   0.000001   0.000000   0.000000
    29  H   -0.004325  -0.027070   0.003820  -0.000131  -0.000011   0.000024
    30  H   -0.006582  -0.034329  -0.004590   0.000057  -0.000015   0.006365
    31  H    0.004192  -0.028912  -0.008926   0.000282  -0.000021  -0.000078
    32  H   -0.034966  -0.006599  -0.000102  -0.000002   0.000349   0.006324
    33  H   -0.033034  -0.005062  -0.000027   0.000038  -0.000051  -0.000664
    34  H    0.003838  -0.000095   0.000001   0.000001  -0.000003  -0.000045
    35  H   -0.008208   0.000139  -0.000007   0.000046   0.000352   0.000110
    36  H   -0.004456   0.000079   0.000000   0.000000  -0.000014   0.005212
    37  C    0.001375  -0.062600   0.339212  -0.063846  -0.000395   0.005171
    38  C   -0.001810  -0.004661  -0.030755   0.004959  -0.000047   0.000694
    39  C   -0.000588   0.001197   0.000523  -0.000089  -0.000013   0.001776
    40  H   -0.000165   0.006052  -0.033784  -0.008328  -0.000429   0.000083
    41  H    0.001713  -0.005105  -0.024911  -0.004716   0.003660  -0.001756
    42  H    0.000033  -0.000853  -0.004262   0.000113  -0.000001   0.000001
    43  H    0.000008  -0.000028  -0.000090   0.000002   0.000000  -0.000010
    44  H   -0.000079  -0.000033   0.000151  -0.000004  -0.000004   0.000496
               7          8          9         10         11         12
     1  C   -0.040304   0.000843   0.000078   0.156946   0.002674   0.382414
     2  C    0.373027  -0.008229   0.005642  -0.025587  -0.000173  -0.034953
     3  C   -0.045386  -0.023149  -0.029860   0.004814   0.002451   0.004923
     4  C   -0.008455   0.362701   0.359783  -0.094032  -0.080348  -0.000807
     5  C    0.000139  -0.023657  -0.021833   0.265714   0.575191   0.001326
     6  H    0.006507  -0.000022   0.000073  -0.040541  -0.000063  -0.051309
     7  H    0.645954   0.004928   0.000190  -0.000729  -0.000070  -0.009738
     8  H    0.004928   0.548483  -0.024356   0.000550  -0.000779   0.000001
     9  H    0.000190  -0.024356   0.566902   0.002767   0.002028   0.000005
    10  O   -0.000729   0.000550   0.002767   8.337658  -0.082083  -0.048452
    11  O   -0.000070  -0.000779   0.002028  -0.082083   8.087359  -0.000065
    12  C   -0.009738   0.000001   0.000005  -0.048452  -0.000065   4.930082
    13  C    0.000018   0.000001   0.000000  -0.005179  -0.000009   0.364655
    14  C   -0.039832  -0.000057  -0.000133   0.002360   0.000001  -0.005256
    15  O    0.000594  -0.001215  -0.000545  -0.000002  -0.000014  -0.000040
    16  Si   0.000833   0.001471   0.001361   0.000012  -0.000102  -0.000004
    17  C   -0.000023  -0.000090   0.000010   0.000000   0.000000   0.000000
    18  C    0.000004   0.000032  -0.000158   0.000000   0.000000   0.000000
    19  C   -0.000027  -0.000140  -0.000182   0.000000   0.000001   0.000000
    20  H    0.000000   0.000000   0.000001   0.000000   0.000000   0.000000
    21  H    0.000000   0.000000  -0.000026   0.000000   0.000000   0.000000
    22  H    0.000000   0.000000   0.000003   0.000000   0.000000   0.000000
    23  H   -0.000001  -0.000207   0.002504   0.000000  -0.000003   0.000000
    24  H   -0.000004   0.001206  -0.000191   0.000000   0.000002   0.000000
    25  H    0.000000   0.000012   0.000054   0.000000   0.000000   0.000000
    26  H    0.000005  -0.000011   0.000000   0.000000   0.000000   0.000000
    27  H   -0.000003  -0.000001   0.000000   0.000000   0.000000   0.000000
    28  H    0.000000   0.000001   0.000000   0.000000   0.000000   0.000000
    29  H   -0.007453  -0.000006   0.000003  -0.000015   0.000000   0.001037
    30  H    0.005286   0.000000   0.000005   0.000026   0.000000  -0.001001
    31  H   -0.001351   0.000006  -0.000008  -0.000047   0.000000   0.000112
    32  H    0.006610  -0.000005   0.000001  -0.000541  -0.000033   0.376496
    33  H    0.000167  -0.000003   0.000000   0.003370   0.000001   0.375183
    34  H   -0.000003   0.000000   0.000000   0.000143   0.000000  -0.027401
    35  H    0.000005  -0.000001   0.000000   0.009428   0.000027  -0.033546
    36  H    0.000012   0.000000   0.000000  -0.000265   0.000000  -0.036135
    37  C    0.006540   0.005112  -0.006988  -0.003594   0.000099  -0.000073
    38  C   -0.000130  -0.000127   0.000016   0.000125   0.000000   0.000024
    39  C   -0.000006   0.000001   0.000001  -0.000003   0.000000   0.000000
    40  H   -0.000172  -0.000017   0.005009   0.000028  -0.000016  -0.000002
    41  H   -0.000132   0.000062  -0.000014   0.003143  -0.000375   0.000153
    42  H   -0.000023   0.000003   0.000001  -0.000001   0.000000   0.000001
    43  H    0.000000   0.000000   0.000000   0.000000   0.000000   0.000000
    44  H    0.000000   0.000000   0.000000  -0.000004   0.000000   0.000001
              13         14         15         16         17         18
     1  C   -0.036591  -0.034153   0.002846   0.000170   0.000000   0.000001
     2  C    0.003918   0.351058  -0.047732  -0.001326  -0.000008  -0.000023
     3  C   -0.000087  -0.027685   0.186797  -0.013182   0.001190  -0.000987
     4  C   -0.000011   0.004883  -0.031077  -0.002944  -0.000105  -0.000265
     5  C    0.000089   0.000494   0.001498   0.000358  -0.000001  -0.000002
     6  H   -0.006036  -0.004938  -0.000031  -0.000008   0.000000   0.000000
     7  H    0.000018  -0.039832   0.000594   0.000833  -0.000023   0.000004
     8  H    0.000001  -0.000057  -0.001215   0.001471  -0.000090   0.000032
     9  H    0.000000  -0.000133  -0.000545   0.001361   0.000010  -0.000158
    10  O   -0.005179   0.002360  -0.000002   0.000012   0.000000   0.000000
    11  O   -0.000009   0.000001  -0.000014  -0.000102   0.000000   0.000000
    12  C    0.364655  -0.005256  -0.000040  -0.000004   0.000000   0.000000
    13  C    4.927071   0.000090   0.000000   0.000000   0.000000   0.000000
    14  C    0.000090   4.981163  -0.009581   0.000142  -0.000030  -0.000010
    15  O    0.000000  -0.009581   8.304380   0.338163  -0.026551  -0.017624
    16  Si   0.000000   0.000142   0.338163  11.852681   0.381366   0.364495
    17  C    0.000000  -0.000030  -0.026551   0.381366   5.113677  -0.030198
    18  C    0.000000  -0.000010  -0.017624   0.364495  -0.030198   5.147511
    19  C    0.000000   0.000000  -0.017248   0.365217  -0.027893  -0.033849
    20  H    0.000000  -0.000002  -0.000979  -0.026263  -0.000988   0.378374
    21  H    0.000000   0.000000  -0.000588  -0.025417   0.001180   0.377150
    22  H    0.000000   0.000000   0.000505  -0.013314  -0.000651   0.367842
    23  H    0.000000   0.000000  -0.000332  -0.023916   0.001211  -0.001269
    24  H    0.000000   0.000000  -0.000616  -0.023898  -0.000980   0.001197
    25  H    0.000000   0.000000   0.000476  -0.014382  -0.000818  -0.000259
    26  H    0.000000   0.000002  -0.000602  -0.022651   0.376852   0.001196
    27  H    0.000000  -0.000014  -0.000613  -0.023011   0.376855  -0.001358
    28  H    0.000000   0.000000   0.000687  -0.014733   0.368347  -0.000212
    29  H   -0.000074   0.374909   0.000098  -0.000051   0.000000   0.000000
    30  H   -0.000037   0.379641  -0.000027  -0.000057   0.000000   0.000001
    31  H    0.000000   0.379028   0.011172   0.001623   0.000012  -0.000020
    32  H   -0.038452  -0.000360  -0.000002  -0.000001   0.000000   0.000000
    33  H   -0.035077   0.002060   0.000000   0.000000   0.000000   0.000000
    34  H    0.380612  -0.000002   0.000000   0.000000   0.000000   0.000000
    35  H    0.388310  -0.000006   0.000000   0.000000   0.000000   0.000000
    36  H    0.385232  -0.000016   0.000000   0.000000   0.000000   0.000000
    37  C    0.000000  -0.006714  -0.057008  -0.002997  -0.000089  -0.000068
    38  C    0.000000  -0.005120   0.000910   0.000003  -0.000010  -0.000791
    39  C    0.000000  -0.003035   0.000310  -0.000097   0.000000   0.000004
    40  H    0.000000  -0.000152  -0.003037   0.003549   0.000005  -0.000026
    41  H    0.000001   0.000289   0.003365   0.000075   0.000001   0.000014
    42  H    0.000000   0.000410   0.004309   0.002097  -0.000070   0.000024
    43  H    0.000000   0.000014   0.000002   0.000016   0.000000   0.000002
    44  H    0.000000   0.000021  -0.000001   0.000011   0.000000  -0.000001
              19         20         21         22         23         24
     1  C    0.000001   0.000000   0.000000   0.000000   0.000000   0.000000
     2  C   -0.000050   0.000001  -0.000001   0.000001   0.000001  -0.000007
     3  C   -0.000948  -0.000107   0.000026   0.000012   0.000213   0.000000
     4  C   -0.000290   0.000007  -0.000080   0.000002  -0.001081  -0.000130
     5  C    0.000065   0.000000  -0.000001   0.000000  -0.000038  -0.000020
     6  H    0.000000   0.000000   0.000000   0.000000   0.000000   0.000000
     7  H   -0.000027   0.000000   0.000000   0.000000  -0.000001  -0.000004
     8  H   -0.000140   0.000000   0.000000   0.000000  -0.000207   0.001206
     9  H   -0.000182   0.000001  -0.000026   0.000003   0.002504  -0.000191
    10  O    0.000000   0.000000   0.000000   0.000000   0.000000   0.000000
    11  O    0.000001   0.000000   0.000000   0.000000  -0.000003   0.000002
    12  C    0.000000   0.000000   0.000000   0.000000   0.000000   0.000000
    13  C    0.000000   0.000000   0.000000   0.000000   0.000000   0.000000
    14  C    0.000000  -0.000002   0.000000   0.000000   0.000000   0.000000
    15  O   -0.017248  -0.000979  -0.000588   0.000505  -0.000332  -0.000616
    16  Si   0.365217  -0.026263  -0.025417  -0.013314  -0.023916  -0.023898
    17  C   -0.027893  -0.000988   0.001180  -0.000651   0.001211  -0.000980
    18  C   -0.033849   0.378374   0.377150   0.367842  -0.001269   0.001197
    19  C    5.143558   0.001195  -0.001158  -0.000290   0.376776   0.377769
    20  H    0.001195   0.572169  -0.023140  -0.023848   0.000006  -0.000021
    21  H   -0.001158  -0.023140   0.573346  -0.023698   0.000633   0.000002
    22  H   -0.000290  -0.023848  -0.023698   0.571462  -0.000064   0.000008
    23  H    0.376776   0.000006   0.000633  -0.000064   0.572355  -0.023610
    24  H    0.377769  -0.000021   0.000002   0.000008  -0.023610   0.570038
    25  H    0.368592   0.000002  -0.000036   0.000055  -0.023544  -0.023401
    26  H   -0.001261   0.000000  -0.000021   0.000011   0.000006   0.000426
    27  H    0.001224   0.000463   0.000004  -0.000024  -0.000021  -0.000002
    28  H   -0.000445  -0.000054   0.000003   0.000015  -0.000003  -0.000041
    29  H    0.000000   0.000000   0.000000   0.000000   0.000000   0.000000
    30  H    0.000000   0.000000   0.000000   0.000000   0.000000   0.000000
    31  H    0.000005  -0.000010   0.000000   0.000000   0.000000   0.000000
    32  H    0.000000   0.000000   0.000000   0.000000   0.000000   0.000000
    33  H    0.000000   0.000000   0.000000   0.000000   0.000000   0.000000
    34  H    0.000000   0.000000   0.000000   0.000000   0.000000   0.000000
    35  H    0.000000   0.000000   0.000000   0.000000   0.000000   0.000000
    36  H    0.000000   0.000000   0.000000   0.000000   0.000000   0.000000
    37  C   -0.000250   0.000046  -0.000774   0.000031  -0.000109   0.000008
    38  C    0.000015   0.000132   0.000298   0.000033   0.000001   0.000000
    39  C    0.000000   0.000025  -0.000004   0.000000   0.000000   0.000000
    40  H   -0.000328  -0.000118   0.002466   0.000000   0.000020   0.000001
    41  H   -0.000001  -0.000003  -0.000009   0.000000   0.000000   0.000000
    42  H    0.000005   0.001567  -0.000183   0.000005  -0.000001   0.000000
    43  H    0.000000  -0.000005   0.000000   0.000000   0.000000   0.000000
    44  H    0.000000   0.000000   0.000000   0.000000   0.000000   0.000000
              25         26         27         28         29         30
     1  C    0.000000   0.000000   0.000000   0.000000  -0.004325  -0.006582
     2  C    0.000001   0.000005   0.000004   0.000000  -0.027070  -0.034329
     3  C    0.000012  -0.000029  -0.000051  -0.000016   0.003820  -0.004590
     4  C    0.000083  -0.000022   0.000006   0.000001  -0.000131   0.000057
     5  C   -0.000001   0.000000   0.000000   0.000000  -0.000011  -0.000015
     6  H    0.000000   0.000000   0.000000   0.000000   0.000024   0.006365
     7  H    0.000000   0.000005  -0.000003   0.000000  -0.007453   0.005286
     8  H    0.000012  -0.000011  -0.000001   0.000001  -0.000006   0.000000
     9  H    0.000054   0.000000   0.000000   0.000000   0.000003   0.000005
    10  O    0.000000   0.000000   0.000000   0.000000  -0.000015   0.000026
    11  O    0.000000   0.000000   0.000000   0.000000   0.000000   0.000000
    12  C    0.000000   0.000000   0.000000   0.000000   0.001037  -0.001001
    13  C    0.000000   0.000000   0.000000   0.000000  -0.000074  -0.000037
    14  C    0.000000   0.000002  -0.000014   0.000000   0.374909   0.379641
    15  O    0.000476  -0.000602  -0.000613   0.000687   0.000098  -0.000027
    16  Si  -0.014382  -0.022651  -0.023011  -0.014733  -0.000051  -0.000057
    17  C   -0.000818   0.376852   0.376855   0.368347   0.000000   0.000000
    18  C   -0.000259   0.001196  -0.001358  -0.000212   0.000000   0.000001
    19  C    0.368592  -0.001261   0.001224  -0.000445   0.000000   0.000000
    20  H    0.000002   0.000000   0.000463  -0.000054   0.000000   0.000000
    21  H   -0.000036  -0.000021   0.000004   0.000003   0.000000   0.000000
    22  H    0.000055   0.000011  -0.000024   0.000015   0.000000   0.000000
    23  H   -0.023544   0.000006  -0.000021  -0.000003   0.000000   0.000000
    24  H   -0.023401   0.000426  -0.000002  -0.000041   0.000000   0.000000
    25  H    0.570344  -0.000038   0.000012   0.000046   0.000000   0.000000
    26  H   -0.000038   0.571666  -0.022527  -0.024163   0.000000   0.000000
    27  H    0.000012  -0.022527   0.571685  -0.024139   0.000000  -0.000001
    28  H    0.000046  -0.024163  -0.024139   0.576209   0.000000   0.000000
    29  H    0.000000   0.000000   0.000000   0.000000   0.605468  -0.029685
    30  H    0.000000   0.000000  -0.000001   0.000000  -0.029685   0.585137
    31  H    0.000000  -0.000007   0.000232   0.000001  -0.028235  -0.028667
    32  H    0.000000   0.000000   0.000000   0.000000   0.000504   0.000097
    33  H    0.000000   0.000000   0.000000   0.000000   0.001766   0.000793
    34  H    0.000000   0.000000   0.000000   0.000000   0.000003   0.000000
    35  H    0.000000   0.000000   0.000000   0.000000  -0.000001   0.000000
    36  H    0.000000   0.000000   0.000000   0.000000   0.000011   0.000003
    37  C    0.000002   0.000002  -0.000009   0.000001   0.000001   0.001021
    38  C    0.000000   0.000000  -0.000002   0.000000   0.000188   0.007623
    39  C    0.000000   0.000000   0.000000   0.000000   0.000093   0.004292
    40  H    0.000006   0.000000   0.000000   0.000000   0.000004   0.000071
    41  H    0.000000   0.000000   0.000000   0.000000   0.000001  -0.000243
    42  H    0.000000   0.000001  -0.000006   0.000000   0.000019  -0.000473
    43  H    0.000000   0.000000   0.000000   0.000000   0.000000   0.000030
    44  H    0.000000   0.000000   0.000000   0.000000   0.000001  -0.000043
              31         32         33         34         35         36
     1  C    0.004192  -0.034966  -0.033034   0.003838  -0.008208  -0.004456
     2  C   -0.028912  -0.006599  -0.005062  -0.000095   0.000139   0.000079
     3  C   -0.008926  -0.000102  -0.000027   0.000001  -0.000007   0.000000
     4  C    0.000282  -0.000002   0.000038   0.000001   0.000046   0.000000
     5  C   -0.000021   0.000349  -0.000051  -0.000003   0.000352  -0.000014
     6  H   -0.000078   0.006324  -0.000664  -0.000045   0.000110   0.005212
     7  H   -0.001351   0.006610   0.000167  -0.000003   0.000005   0.000012
     8  H    0.000006  -0.000005  -0.000003   0.000000  -0.000001   0.000000
     9  H   -0.000008   0.000001   0.000000   0.000000   0.000000   0.000000
    10  O   -0.000047  -0.000541   0.003370   0.000143   0.009428  -0.000265
    11  O    0.000000  -0.000033   0.000001   0.000000   0.000027   0.000000
    12  C    0.000112   0.376496   0.375183  -0.027401  -0.033546  -0.036135
    13  C    0.000000  -0.038452  -0.035077   0.380612   0.388310   0.385232
    14  C    0.379028  -0.000360   0.002060  -0.000002  -0.000006  -0.000016
[...]
    25  H    0.368295   0.000002  -0.000035   0.000052  -0.023634  -0.023789
    26  H   -0.001228  -0.000002  -0.000021   0.000006   0.000006   0.000415
    27  H    0.001206   0.000468   0.000007  -0.000025  -0.000021  -0.000002
    28  H   -0.000241  -0.000055  -0.000001   0.000058   0.000000  -0.000035
    29  H    0.000000   0.000000   0.000000   0.000000   0.000000   0.000000
    30  H    0.000000   0.000000   0.000000   0.000000   0.000000   0.000000
    31  H   -0.000006  -0.000001   0.000000   0.000000   0.000000  -0.000003
    32  H    0.000000   0.000000   0.000000   0.000000   0.000000   0.000000
    33  H    0.000000   0.000000   0.000000   0.000000   0.000000   0.000000
    34  H    0.000000   0.000000   0.000000   0.000000   0.000000   0.000000
    35  H    0.000000   0.000000   0.000000   0.000000   0.000000   0.000000
    36  H    0.000000   0.000000   0.000000   0.000000   0.000000   0.000000
    37  C   -0.000108  -0.000239  -0.000712   0.000068  -0.000026  -0.000001
    38  C    0.000005   0.000707  -0.000009  -0.000003   0.000000   0.000000
    39  C    0.000000   0.000028  -0.000001   0.000000   0.000000   0.000000
    40  H   -0.000041   0.000359   0.001779   0.000028  -0.000010   0.000000
    41  H    0.000002   0.000003  -0.000012  -0.000001   0.000000   0.000000
    42  H    0.000007   0.000232   0.000003   0.000002   0.000000   0.000000
    43  H    0.000000   0.000000   0.000000   0.000000   0.000000   0.000000
    44  H    0.000000   0.000000   0.000000   0.000000   0.000000   0.000000
              25         26         27         28         29         30
     1  C    0.000000   0.000000   0.000000   0.000000  -0.004189  -0.006711
     2  C    0.000001   0.000011  -0.000002   0.000000  -0.027491  -0.033634
     3  C    0.000016  -0.000055  -0.000049  -0.000015   0.003945  -0.005093
     4  C    0.000054  -0.000006   0.000003   0.000001  -0.000132   0.000072
     5  C    0.000000   0.000000   0.000000   0.000000  -0.000011  -0.000016
     6  H    0.000000   0.000000   0.000000   0.000000  -0.000021   0.006592
     7  H    0.000001   0.000000   0.000000   0.000000  -0.007170   0.005260
     8  H    0.000028  -0.000003   0.000000   0.000000  -0.000006   0.000000
     9  H    0.000029   0.000000   0.000000   0.000000   0.000003   0.000006
    10  O    0.000000   0.000000   0.000000   0.000000  -0.000014   0.000026
    11  O    0.000000   0.000000   0.000000   0.000000   0.000000   0.000000
    12  C    0.000000   0.000000   0.000000   0.000000   0.000789  -0.000772
    13  C    0.000000   0.000000   0.000000   0.000000  -0.000095  -0.000033
    14  C    0.000000  -0.000010  -0.000003   0.000000   0.374502   0.379570
    15  O    0.000536  -0.000592  -0.000403   0.000681   0.000090  -0.000057
    16  Si  -0.014139  -0.023447  -0.023674  -0.015160  -0.000038  -0.000088
    17  C   -0.000679   0.377468   0.377070   0.368564   0.000000   0.000000
    18  C   -0.000150   0.001173  -0.001268  -0.000406   0.000000   0.000000
    19  C    0.368295  -0.001228   0.001206  -0.000241   0.000000   0.000000
    20  H    0.000002  -0.000002   0.000468  -0.000055   0.000000   0.000000
    21  H   -0.000035  -0.000021   0.000007  -0.000001   0.000000   0.000000
    22  H    0.000052   0.000006  -0.000025   0.000058   0.000000   0.000000
    23  H   -0.023634   0.000006  -0.000021   0.000000   0.000000   0.000000
    24  H   -0.023789   0.000415  -0.000002  -0.000035   0.000000   0.000000
    25  H    0.572111  -0.000032   0.000010   0.000027   0.000000   0.000000
    26  H   -0.000032   0.570500  -0.022442  -0.023982   0.000000   0.000000
    27  H    0.000010  -0.022442   0.572156  -0.023989   0.000000   0.000000
    28  H    0.000027  -0.023982  -0.023989   0.575467   0.000000   0.000000
    29  H    0.000000   0.000000   0.000000   0.000000   0.606622  -0.029561
    30  H    0.000000   0.000000   0.000000   0.000000  -0.029561   0.583682
    31  H    0.000000   0.000118   0.000043   0.000001  -0.028410  -0.028511
    32  H    0.000000   0.000000   0.000000   0.000000   0.000433   0.000078
    33  H    0.000000   0.000000   0.000000   0.000000   0.002234   0.000636
    34  H    0.000000   0.000000   0.000000   0.000000   0.000004   0.000000
    35  H    0.000000   0.000000   0.000000   0.000000   0.000000   0.000000
    36  H    0.000000   0.000000   0.000000   0.000000   0.000012   0.000001
    37  C    0.000001   0.000003  -0.000014   0.000001  -0.000005   0.001143
    38  C    0.000000   0.000000  -0.000053   0.000001   0.000185   0.007652
    39  C    0.000000   0.000000  -0.000001   0.000000   0.000100   0.004536
    40  H    0.000001   0.000000  -0.000004   0.000000   0.000004   0.000075
    41  H    0.000000   0.000000   0.000000   0.000000  -0.000001  -0.000288
    42  H    0.000000  -0.000005   0.000412   0.000000   0.000012  -0.000386
    43  H    0.000000   0.000000   0.000000   0.000000   0.000000   0.000012
    44  H    0.000000   0.000000   0.000000   0.000000   0.000001  -0.000020
              31         32         33         34         35         36
     1  C    0.004182  -0.034712  -0.033596   0.003848  -0.008061  -0.004550
     2  C   -0.028721  -0.006815  -0.004678  -0.000095   0.000143   0.000077
     3  C   -0.008943  -0.000122  -0.000009   0.000001  -0.000006   0.000000
     4  C    0.000282  -0.000001   0.000040   0.000001   0.000045   0.000000
     5  C   -0.000024   0.000364  -0.000047  -0.000003   0.000341  -0.000013
     6  H   -0.000067   0.006331  -0.000529  -0.000040   0.000101   0.005252
     7  H   -0.001564   0.006690   0.000143  -0.000004   0.000003   0.000012
     8  H    0.000005   0.000003  -0.000003   0.000000  -0.000001   0.000000
     9  H   -0.000007   0.000002   0.000000   0.000000   0.000000   0.000000
    10  O   -0.000046  -0.000552   0.003384   0.000134   0.009193  -0.000262
    11  O    0.000000  -0.000034   0.000001   0.000000   0.000023   0.000000
    12  C    0.000098   0.376280   0.375116  -0.027351  -0.033493  -0.036208
    13  C    0.000001  -0.038380  -0.035165   0.380585   0.388384   0.385421
    14  C    0.378911  -0.000229   0.001642  -0.000002  -0.000007  -0.000014
    15  O    0.011434  -0.000002   0.000000   0.000000   0.000000   0.000000
    16  Si   0.001134  -0.000003   0.000000   0.000000   0.000000   0.000000
    17  C    0.000076   0.000000   0.000000   0.000000   0.000000   0.000000
    18  C    0.000008   0.000000   0.000000   0.000000   0.000000   0.000000
    19  C   -0.000006   0.000000   0.000000   0.000000   0.000000   0.000000
    20  H   -0.000001   0.000000   0.000000   0.000000   0.000000   0.000000
    21  H    0.000000   0.000000   0.000000   0.000000   0.000000   0.000000
    22  H    0.000000   0.000000   0.000000   0.000000   0.000000   0.000000
    23  H    0.000000   0.000000   0.000000   0.000000   0.000000   0.000000
    24  H   -0.000003   0.000000   0.000000   0.000000   0.000000   0.000000
    25  H    0.000000   0.000000   0.000000   0.000000   0.000000   0.000000
    26  H    0.000118   0.000000   0.000000   0.000000   0.000000   0.000000
    27  H    0.000043   0.000000   0.000000   0.000000   0.000000   0.000000
    28  H    0.000001   0.000000   0.000000   0.000000   0.000000   0.000000
    29  H   -0.028410   0.000433   0.002234   0.000004   0.000000   0.000012
    30  H   -0.028511   0.000078   0.000636   0.000000   0.000000   0.000001
    31  H    0.571614  -0.000031  -0.000020   0.000000   0.000000   0.000000
    32  H   -0.000031   0.617277  -0.032365  -0.003101  -0.003786   0.005167
    33  H   -0.000020  -0.032365   0.613344  -0.003513   0.004992  -0.004227
    34  H    0.000000  -0.003101  -0.003513   0.604185  -0.030048  -0.031269
    35  H    0.000000  -0.003786   0.004992  -0.030048   0.577304  -0.030649
    36  H    0.000000   0.005167  -0.004227  -0.031269  -0.030649   0.604838
    37  C   -0.000186   0.000009   0.000001   0.000000   0.000000  -0.000001
    38  C    0.000420  -0.000001  -0.000003   0.000000   0.000000   0.000000
    39  C    0.000011   0.000000   0.000000   0.000000   0.000000   0.000000
    40  H   -0.000036   0.000000   0.000000   0.000000   0.000000   0.000000
    41  H   -0.000008  -0.000003  -0.000003   0.000000  -0.000001  -0.000003
    42  H    0.000415   0.000000   0.000000   0.000000   0.000000   0.000000
    43  H   -0.000002   0.000000   0.000000   0.000000   0.000000   0.000000
    44  H   -0.000001   0.000000   0.000000   0.000000   0.000000   0.000000
              37         38         39         40         41         42
     1  C    0.000720  -0.001230  -0.000385  -0.000167   0.001872   0.000026
     2  C   -0.060321  -0.004396   0.001141   0.006056  -0.005887  -0.000782
     3  C    0.341110  -0.030597   0.000591  -0.033647  -0.025193  -0.005057
     4  C   -0.064814   0.004814  -0.000086  -0.008619  -0.004016   0.000151
     5  C    0.000152  -0.000066  -0.000012  -0.000391   0.003913  -0.000001
     6  H    0.004714   0.000281   0.001105   0.000043  -0.001221   0.000003
     7  H    0.006417  -0.000129  -0.000007  -0.000177  -0.000105  -0.000023
     8  H    0.005080  -0.000123   0.000001   0.000020   0.000024   0.000003
     9  H   -0.006768   0.000016   0.000002   0.004946  -0.000064   0.000002
    10  O   -0.003581   0.000109  -0.000004   0.000031   0.003022  -0.000001
    11  O    0.000127   0.000000   0.000000  -0.000021  -0.000389   0.000000
    12  C   -0.000047   0.000014  -0.000001  -0.000002   0.000151   0.000001
    13  C    0.000000   0.000000   0.000000   0.000000   0.000001   0.000000
    14  C   -0.006665  -0.005163  -0.003129  -0.000140   0.000355   0.000290
    15  O   -0.059404   0.000389   0.000414  -0.002565   0.003360   0.005683
    16  Si  -0.005310   0.001099  -0.000095  -0.000691   0.000386   0.002451
    17  C   -0.000096  -0.000070   0.000000  -0.000007   0.000000  -0.000057
    18  C   -0.000531  -0.000318  -0.000005   0.001762  -0.000003  -0.000292
    19  C   -0.000108   0.000005   0.000000  -0.000041   0.000002   0.000007
    20  H   -0.000239   0.000707   0.000028   0.000359   0.000003   0.000232
    21  H   -0.000712  -0.000009  -0.000001   0.001779  -0.000012   0.000003
    22  H    0.000068  -0.000003   0.000000   0.000028  -0.000001   0.000002
    23  H   -0.000026   0.000000   0.000000  -0.000010   0.000000   0.000000
    24  H   -0.000001   0.000000   0.000000   0.000000   0.000000   0.000000
    25  H    0.000001   0.000000   0.000000   0.000001   0.000000   0.000000
    26  H    0.000003   0.000000   0.000000   0.000000   0.000000  -0.000005
    27  H   -0.000014  -0.000053  -0.000001  -0.000004   0.000000   0.000412
    28  H    0.000001   0.000001   0.000000   0.000000   0.000000   0.000000
    29  H   -0.000005   0.000185   0.000100   0.000004  -0.000001   0.000012
    30  H    0.001143   0.007652   0.004536   0.000075  -0.000288  -0.000386
    31  H   -0.000186   0.000420   0.000011  -0.000036  -0.000008   0.000415
    32  H    0.000009  -0.000001   0.000000   0.000000  -0.000003   0.000000
    33  H    0.000001  -0.000003   0.000000   0.000000  -0.000003   0.000000
    34  H    0.000000   0.000000   0.000000   0.000000   0.000000   0.000000
    35  H    0.000000   0.000000   0.000000   0.000000  -0.000001   0.000000
    36  H   -0.000001   0.000000   0.000000   0.000000  -0.000003   0.000000
    37  C    5.061973   0.385302  -0.040248   0.370073   0.362310  -0.053107
    38  C    0.385302   4.757236   0.651469  -0.037604  -0.036074   0.385473
    39  C   -0.040248   0.651469   4.946040  -0.001570  -0.006082  -0.044231
    40  H    0.370073  -0.037604  -0.001570   0.609352  -0.030858  -0.000799
    41  H    0.362310  -0.036074  -0.006082  -0.030858   0.614561   0.005143
    42  H   -0.053107   0.385473  -0.044231  -0.000799   0.005143   0.600873
    43  H    0.004636  -0.024747   0.376027  -0.000214   0.000081  -0.007898
    44  H   -0.012006  -0.034537   0.381820   0.000250   0.005858   0.005591
              43         44
     1  C    0.000006  -0.000062
     2  C   -0.000027  -0.000024
     3  C   -0.000090   0.000129
     4  C    0.000002  -0.000004
     5  C    0.000000  -0.000004
     6  H   -0.000006   0.000386
     7  H    0.000000   0.000000
     8  H    0.000000   0.000000
     9  H    0.000000   0.000000
    10  O    0.000000  -0.000003
    11  O    0.000000   0.000000
    12  C    0.000000   0.000001
    13  C    0.000000   0.000000
    14  C    0.000016   0.000015
    15  O    0.000003  -0.000002
    16  Si   0.000012   0.000015
    17  C    0.000000   0.000000
    18  C    0.000000   0.000000
    19  C    0.000000   0.000000
    20  H    0.000000   0.000000
    21  H    0.000000   0.000000
    22  H    0.000000   0.000000
    23  H    0.000000   0.000000
    24  H    0.000000   0.000000
    25  H    0.000000   0.000000
    26  H    0.000000   0.000000
    27  H    0.000000   0.000000
    28  H    0.000000   0.000000
    29  H    0.000000   0.000001
    30  H    0.000012  -0.000020
    31  H   -0.000002  -0.000001
    32  H    0.000000   0.000000
    33  H    0.000000   0.000000
    34  H    0.000000   0.000000
    35  H    0.000000   0.000000
    36  H    0.000000   0.000000
    37  C    0.004636  -0.012006
    38  C   -0.024747  -0.034537
    39  C    0.376027   0.381820
    40  H   -0.000214   0.000250
    41  H    0.000081   0.005858
    42  H   -0.007898   0.005591
    43  H    0.591158  -0.043650
    44  H   -0.043650   0.595406
 Mulliken charges:
               1
     1  C    0.174627
     2  C   -0.090724
     3  C    0.308448
     4  C   -0.307770
     5  C    0.592113
     6  H    0.114592
     7  H    0.102246
     8  H    0.158637
     9  H    0.140090
    10  O   -0.486107
    11  O   -0.499649
    12  C   -0.186956
    13  C   -0.328466
    14  C   -0.337972
    15  O   -0.649968
    16  Si   0.909815
    17  C   -0.535352
    18  C   -0.555597
    19  C   -0.549231
    20  H    0.122985
    21  H    0.121027
    22  H    0.122558
    23  H    0.119879
    24  H    0.120881
    25  H    0.121294
    26  H    0.122122
    27  H    0.120574
    28  H    0.119081
    29  H    0.108209
    30  H    0.115826
    31  H    0.127838
    32  H    0.107500
    33  H    0.112625
    34  H    0.106670
    35  H    0.125522
    36  H    0.106418
    37  C   -0.229652
    38  C   -0.020050
    39  C   -0.267431
    40  H    0.122785
    41  H    0.109172
    42  H    0.105866
    43  H    0.104682
    44  H    0.100842
 Sum of Mulliken charges =   0.00000
 Mulliken charges with hydrogens summed into heavy atoms:
               1
     1  C    0.289218
     2  C    0.011522
     3  C    0.308448
     4  C   -0.009043
     5  C    0.592113
    10  O   -0.486107
    11  O   -0.499649
    12  C    0.033170
    13  C    0.010143
    14  C    0.013901
    15  O   -0.649968
    16  Si   0.909815
    17  C   -0.173575
    18  C   -0.189026
    19  C   -0.187177
    37  C    0.002305
    38  C    0.085816
    39  C   -0.061906
 Electronic spatial extent (au):  <R**2>=           5691.3620
 Charge=              0.0000 electrons
 Dipole moment (field-independent basis, Debye):
    X=             -2.4427    Y=              2.9946    Z=              2.4767  Tot=              4.5901
 Quadrupole moment (field-independent basis, Debye-Ang):
   XX=           -115.0588   YY=           -126.8003   ZZ=           -121.0934
   XY=             11.1779   XZ=              7.6485   YZ=             -8.4058
 Traceless Quadrupole moment (field-independent basis, Debye-Ang):
   XX=              5.9254   YY=             -5.8162   ZZ=             -0.1092
   XY=             11.1779   XZ=              7.6485   YZ=             -8.4058
 Octapole moment (field-independent basis, Debye-Ang**2):
  XXX=            -19.1468  YYY=             27.9942  ZZZ=             10.5233  XYY=            -20.1742
  XXY=             12.9941  XXZ=             17.6230  XZZ=              2.0675  YZZ=              6.9717
  YYZ=             20.8271  XYZ=            -18.3788
 Hexadecapole moment (field-independent basis, Debye-Ang**3):
 XXXX=          -4633.8697 YYYY=          -1808.1809 ZZZZ=          -1150.1990 XXXY=             51.9973
 XXXZ=             36.0011 YYYX=             26.1437 YYYZ=            -61.5306 ZZZX=             -3.7049
 ZZZY=              1.2222 XXYY=          -1126.7904 XXZZ=           -991.1913 YYZZ=           -529.5423
 XXYZ=            -30.8930 YYXZ=             34.8302 ZZXY=             33.4344
 N-N= 1.616943571784D+03 E-N=-5.724155658139D+03  KE= 1.055905267260D+03
 1\1\GINC-SWANNODE-0-15\FOpt\RB3LYP\6-31G(d,p)\C14H26O3Si1\KE291\07-Feb
 -2019\0\\# b3lyp/6-31g(d,p) Opt=(maxcycles=50) scrf=(solvent=chlorofor
 m)\\P_ng_correct1ginp007\\0,1\C,1.0903911286,-0.118278018,0.8244900851
 \C,-0.4062270976,-0.2349388645,0.5010171491\C,-1.2288245434,0.80414887
 53,1.3155477897\C,-0.7122969472,2.1803517462,0.8632071655\C,0.79073095
 78,2.3558892497,0.9666753242\H,1.2727808143,-0.5248835523,1.8277193819
 \H,-0.5467035923,0.0575528655,-0.5491312799\H,-0.9730356282,2.32602206
 62,-0.1916482904\H,-1.166597652,2.9998327897,1.425783706\O,1.574595062
 4,1.2632165687,0.8825635857\O,1.3148134517,3.444675164,1.0789184693\C,
 2.002096437,-0.8327277014,-0.1759888194\C,3.4886345779,-0.7674147974,0
 .1875693778\C,-0.8944208853,-1.6848582001,0.6400985955\O,-2.5926883953
 ,0.6247803673,0.9480438668\Si,-3.973154968,1.5899315087,0.9139274095\C
 ,-5.357629675,0.3558738954,0.6025988259\C,-4.2623601271,2.4991596011,2
 .5431206906\C,-3.9053590455,2.8381555563,-0.5006939778\H,-4.3045881553
 ,1.8092228322,3.3923892444\H,-3.4905601744,3.2473309931,2.7526519299\H
 ,-5.2219191698,3.0278793092,2.4984102268\H,-3.1714715577,3.6318191285,
 -0.3295238994\H,-3.6605042233,2.3499390184,-1.450081571\H,-4.884364270
 7,3.3175551583,-0.618574707\H,-5.1930932077,-0.1926133835,-0.330716396
 5\H,-5.4293981113,-0.3762254666,1.4136010468\H,-6.3242256398,0.8659192
 786,0.5248489244\H,-0.4803857137,-2.3130291684,-0.152956544\H,-0.61689
 44198,-2.1198251725,1.6030656879\H,-1.9820116074,-1.7131755311,0.55391
 83745\H,1.8343226801,-0.3950562326,-1.1681730818\H,1.6882157188,-1.879
 8223979,-0.2343669434\H,4.0886784538,-1.3060672316,-0.5519795946\H,3.8
 416911143,0.2657888884,0.2259615767\H,3.6756911744,-1.2244363273,1.165
 8297876\C,-1.090426023,0.7019858894,2.8605542767\C,-1.6355469053,-0.53
 87949397,3.5137129167\C,-1.013862211,-1.2251919931,4.4742225256\H,-1.6
 338969348,1.5670829349,3.2647610639\H,-0.0432500396,0.8440430052,3.152
 02163\H,-2.6261897864,-0.8504107996,3.1881279413\H,-1.4722482264,-2.09
 10154827,4.9430341566\H,-0.0251026368,-0.9446474295,4.8307173727\\Vers
 ion=EM64L-G09RevD.01\State=1-A\HF=-1064.4233808\RMSD=4.395e-09\RMSF=4.
 948e-06\Dipole=-1.3155046,-1.2308018,-0.1254165\Quadrupole=-1.2547069,
 -3.1485912,4.4032981,-11.9978192,-0.3540992,0.0362807\PG=C01 [X(C14H26
 O3Si1)]\\@


 I WOULD TAKE COUNSEL OF MYSELF.
 I WOULD STOP AND LOOK WITHIN
 AND LOOKING WITHIN, LOOK BACK, ALSO
 THAT I MAY LOOK AHEAD WITH CLEARER UNDERSTANDING
 OF THE WAY I HAVE BEEN MOVING, AND IN WHAT DIRECTION.
 I NEED TO KNOW IF I AM GOING FORWARD OR RETREATING,
 WHETHER I HAVE BEEN WASTING, OR ENJOYING
 THE PRECIOUS MOMENTS OF LIFE.  THERE HAVE BEEN FRICTIONS,
 ANNOYANCES AND SOMETIMES WRATH,
 BUT WERE THEY BECAUSE I WAS RIGHT AND OTHERS WRONG.....
 HAVE I HAD MY THOUGHTS TOO SHARPLY FOCUSED
 ON THAT WHICH PLEASED ME, SERVED MY SELF-ESTEEM,
 UNDERGIRDED MY SECURITY,
 OF WHICH I DID NOT INQUIRE WHETHER IT SERVED OR HAMPERED OTHERS.....
 HAVE I BEEN TRYING TO STOP THE CLOCK
 TO HOLD THE WORLD
 IN PERPETUATION OF WHAT WAS AN IS ALREADY SLIPPING AWAY.....
 HAVE I BEEN CRITICAL OF OTHERS FOR WHAT REALLY NEEDED CHANGING IN ME...
 LET ME INDEED TAKE COUNSEL OF MYSELF
 AND SET MY DIRECTIONS STRAIGHT.

                          R.T. WESTON AS ADAPTED BY D. OSBORN 1967
 Job cpu time:       0 days  6 hours 36 minutes 39.6 seconds.
 File lengths (MBytes):  RWF=    379 Int=      0 D2E=      0 Chk=     17 Scr=      1
 Normal termination of Gaussian 09 at Thu Feb  7 12:04:24 2019.
