 Entering Gaussian System, Link 0=/usr/local/Cluster-Apps/gaussian/g09/g09
 Initial command:
 /usr/local/Cluster-Apps/gaussian/g09/l1.exe "/home/ke291/rds/hpc-work/06Feb0927IP1/Gau-314030.inp" -scrdir="/home/ke291/rds/hpc-work/06Feb0927IP1/"
 Entering Link 1 = /usr/local/Cluster-Apps/gaussian/g09/l1.exe PID=    314035.
  
 Copyright (c) 1988,1990,1992,1993,1995,1998,2003,2009,2013,
            Gaussian, Inc.  All Rights Reserved.
  
 This is part of the Gaussian(R) 09 program.  It is based on
 the Gaussian(R) 03 system (copyright 2003, Gaussian, Inc.),
 the Gaussian(R) 98 system (copyright 1998, Gaussian, Inc.),
 the Gaussian(R) 94 system (copyright 1995, Gaussian, Inc.),
 the Gaussian 92(TM) system (copyright 1992, Gaussian, Inc.),
 the Gaussian 90(TM) system (copyright 1990, Gaussian, Inc.),
 the Gaussian 88(TM) system (copyright 1988, Gaussian, Inc.),
 the Gaussian 86(TM) system (copyright 1986, Carnegie Mellon
 University), and the Gaussian 82(TM) system (copyright 1983,
 Carnegie Mellon University). Gaussian is a federally registered
 trademark of Gaussian, Inc.
  
 This software contains proprietary and confidential information,
 including trade secrets, belonging to Gaussian, Inc.
  
 This software is provided under written license and may be
 used, copied, transmitted, or stored only in accord with that
 written license.
  
 The following legend is applicable only to US Government
 contracts under FAR:
  
                    RESTRICTED RIGHTS LEGEND
  
 Use, reproduction and disclosure by the US Government is
 subject to restrictions as set forth in subparagraphs (a)
 and (c) of the Commercial Computer Software - Restricted
 Rights clause in FAR 52.227-19.
  
 Gaussian, Inc.
 340 Quinnipiac St., Bldg. 40, Wallingford CT 06492
  
  
 ---------------------------------------------------------------
 Warning -- This program may not be used in any manner that
 competes with the business of Gaussian, Inc. or will provide
 assistance to any competitor of Gaussian, Inc.  The licensee
 of this program is prohibited from giving any competitor of
 Gaussian, Inc. access to this program.  By using this program,
 the user acknowledges that Gaussian, Inc. is engaged in the
 business of creating and licensing software in the field of
 computational chemistry and represents and warrants to the
 licensee that it is not a competitor of Gaussian, Inc. and that
 it will not use this program in any manner prohibited above.
 ---------------------------------------------------------------
  

 Cite this work as:
 Gaussian 09, Revision D.01,
 M. J. Frisch, G. W. Trucks, H. B. Schlegel, G. E. Scuseria, 
 M. A. Robb, J. R. Cheeseman, G. Scalmani, V. Barone, B. Mennucci, 
 G. A. Petersson, H. Nakatsuji, M. Caricato, X. Li, H. P. Hratchian, 
 A. F. Izmaylov, J. Bloino, G. Zheng, J. L. Sonnenberg, M. Hada, 
 M. Ehara, K. Toyota, R. Fukuda, J. Hasegawa, M. Ishida, T. Nakajima, 
 Y. Honda, O. Kitao, H. Nakai, T. Vreven, J. A. Montgomery, Jr., 
 J. E. Peralta, F. Ogliaro, M. Bearpark, J. J. Heyd, E. Brothers, 
 K. N. Kudin, V. N. Staroverov, T. Keith, R. Kobayashi, J. Normand, 
 K. Raghavachari, A. Rendell, J. C. Burant, S. S. Iyengar, J. Tomasi, 
 M. Cossi, N. Rega, J. M. Millam, M. Klene, J. E. Knox, J. B. Cross, 
 V. Bakken, C. Adamo, J. Jaramillo, R. Gomperts, R. E. Stratmann, 
 O. Yazyev, A. J. Austin, R. Cammi, C. Pomelli, J. W. Ochterski, 
 R. L. Martin, K. Morokuma, V. G. Zakrzewski, G. A. Voth, 
 P. Salvador, J. J. Dannenberg, S. Dapprich, A. D. Daniels, 
 O. Farkas, J. B. Foresman, J. V. Ortiz, J. Cioslowski, 
 and D. J. Fox, Gaussian, Inc., Wallingford CT, 2013.
 
 ******************************************
 Gaussian 09:  ES64L-G09RevD.01 24-Apr-2013
                 6-Feb-2019 
 ******************************************
 %nprocshared=2
 Will use up to    2 processors via shared memory.
 %mem=6000MB
 %chk=/home/ke291/rds/hpc-work/06Feb0927IP1/P_ng_3ginp006.chk
 ---------------------------------------------------------------
 # b3lyp/6-31g(d,p) Opt=(maxcycles=25) scrf=(solvent=chloroform)
 ---------------------------------------------------------------
 1/6=25,14=-1,18=20,19=15,26=3,38=1/1,3;
 2/9=110,12=2,17=6,18=5,40=1/2;
 3/5=1,6=6,7=101,11=2,16=1,25=1,30=1,70=2201,71=1,72=7,74=-5/1,2,3;
 4//1;
 5/5=2,38=5,53=7/2;
 6/7=2,8=2,9=2,10=2,28=1/1;
 7//1,2,3,16;
 1/6=25,14=-1,18=20,19=15,26=3/3(2);
 2/9=110/2;
 99//99;
 2/9=110/2;
 3/5=1,6=6,7=101,11=2,16=1,25=1,30=1,70=2205,71=1,72=7,74=-5/1,2,3;
 4/5=5,16=3,69=1/1;
 5/5=2,38=5,53=7/2;
 7//1,2,3,16;
 1/6=25,14=-1,18=20,19=15,26=3/3(-5);
 2/9=110/2;
 6/7=2,8=2,9=2,10=2,19=2,28=1/1;
 99/9=1/99;
 -------------
 P_ng_3ginp006
 -------------
 Symbolic Z-matrix:
 Charge =  0 Multiplicity = 1
 C                    -0.79495   0.39444  -0.63373 
 C                    -1.13799  -0.4339    0.61518 
 C                    -1.61863   0.47986   1.79372 
 C                    -0.92439   1.85616   1.7207 
 C                     0.33936   1.88632   0.90967 
 H                    -0.37061  -0.29781  -1.37296 
 H                    -0.18575  -0.89369   0.90826 
 H                    -1.57926   2.62171   1.28899 
 H                    -0.68172   2.21526   2.72804 
 O                     0.28792   1.29169  -0.30493 
 O                     1.33715   2.49632   1.27951 
 C                    -1.94371   1.14708  -1.32012 
 C                    -1.48611   1.83751  -2.60031 
 C                    -2.08784  -1.59392   0.29099 
 O                    -3.03815   0.65798   1.56067 
 Si                   -4.18692   1.31613   2.58725 
 C                    -5.66153   1.88765   1.55182 
 C                    -4.82203   0.02678   3.8002 
 C                    -3.57221   2.80319   3.55011 
 H                    -5.65997   0.42677   4.37895 
 H                    -5.16807  -0.86279   3.26569 
 H                    -4.04013  -0.27617   4.50154 
 H                    -3.23776   3.59471   2.87337 
 H                    -4.37475   3.21063   4.17269 
 H                    -2.74082   2.53735   4.20824 
 H                    -5.34853   2.65295   0.83564 
 H                    -6.08559   1.04585   0.99684 
 H                    -6.44032   2.30916   2.19386 
 H                    -2.24422  -2.22961   1.16783 
 H                    -3.06744  -1.25186  -0.05513 
 H                    -1.66279  -2.22498  -0.49726 
 H                    -2.36277   1.91801  -0.66862 
 H                    -2.75358   0.45404  -1.57 
 H                    -2.33353   2.33456  -3.0832 
 H                    -0.72538   2.59661  -2.3933 
 H                    -1.06953   1.11438  -3.30862 
 C                    -1.33861  -0.2304    3.16257 
 C                     0.10201  -0.54524   3.47208 
 C                     0.83685   0.11201   4.37837 
 H                    -1.91094  -1.16512   3.21598 
 H                    -1.73487   0.38211   3.98089 
 H                     0.55859  -1.38226   2.94739 
 H                     1.86946  -0.1695    4.56549 
 H                     0.44011   0.94676   4.94815 
 

 GradGradGradGradGradGradGradGradGradGradGradGradGradGradGradGradGradGrad
 Berny optimization.
 Initialization pass.
                           ----------------------------
                           !    Initial Parameters    !
                           ! (Angstroms and Degrees)  !
 --------------------------                            --------------------------
 ! Name  Definition              Value          Derivative Info.                !
 --------------------------------------------------------------------------------
 ! R1    R(1,2)                  1.5374         estimate D2E/DX2                !
 ! R2    R(1,6)                  1.0981         estimate D2E/DX2                !
 ! R3    R(1,10)                 1.4442         estimate D2E/DX2                !
 ! R4    R(1,12)                 1.5353         estimate D2E/DX2                !
 ! R5    R(2,3)                  1.5668         estimate D2E/DX2                !
 ! R6    R(2,7)                  1.0973         estimate D2E/DX2                !
 ! R7    R(2,14)                 1.5339         estimate D2E/DX2                !
 ! R8    R(3,4)                  1.5432         estimate D2E/DX2                !
 ! R9    R(3,15)                 1.4495         estimate D2E/DX2                !
 ! R10   R(3,37)                 1.5674         estimate D2E/DX2                !
 ! R11   R(4,5)                  1.5019         estimate D2E/DX2                !
 ! R12   R(4,8)                  1.096          estimate D2E/DX2                !
 ! R13   R(4,9)                  1.0966         estimate D2E/DX2                !
 ! R14   R(5,10)                 1.3533         estimate D2E/DX2                !
 ! R15   R(5,11)                 1.2266         estimate D2E/DX2                !
 ! R16   R(12,13)                1.5248         estimate D2E/DX2                !
 ! R17   R(12,32)                1.0929         estimate D2E/DX2                !
 ! R18   R(12,33)                1.0948         estimate D2E/DX2                !
 ! R19   R(13,34)                1.0947         estimate D2E/DX2                !
 ! R20   R(13,35)                1.0944         estimate D2E/DX2                !
 ! R21   R(13,36)                1.0946         estimate D2E/DX2                !
 ! R22   R(14,29)                1.0943         estimate D2E/DX2                !
 ! R23   R(14,30)                1.0938         estimate D2E/DX2                !
 ! R24   R(14,31)                1.0955         estimate D2E/DX2                !
 ! R25   R(15,16)                1.6753         estimate D2E/DX2                !
 ! R26   R(16,17)                1.8903         estimate D2E/DX2                !
 ! R27   R(16,18)                1.8807         estimate D2E/DX2                !
 ! R28   R(16,19)                1.8752         estimate D2E/DX2                !
 ! R29   R(17,26)                1.0939         estimate D2E/DX2                !
 ! R30   R(17,27)                1.0938         estimate D2E/DX2                !
 ! R31   R(17,28)                1.0938         estimate D2E/DX2                !
 ! R32   R(18,20)                1.0941         estimate D2E/DX2                !
 ! R33   R(18,21)                1.094          estimate D2E/DX2                !
 ! R34   R(18,22)                1.0932         estimate D2E/DX2                !
 ! R35   R(19,23)                1.0938         estimate D2E/DX2                !
 ! R36   R(19,24)                1.0944         estimate D2E/DX2                !
 ! R37   R(19,25)                1.0932         estimate D2E/DX2                !
 ! R38   R(37,38)                1.5068         estimate D2E/DX2                !
 ! R39   R(37,40)                1.0973         estimate D2E/DX2                !
 ! R40   R(37,41)                1.0963         estimate D2E/DX2                !
 ! R41   R(38,39)                1.3392         estimate D2E/DX2                !
 ! R42   R(38,42)                1.0883         estimate D2E/DX2                !
 ! R43   R(39,43)                1.0865         estimate D2E/DX2                !
 ! R44   R(39,44)                1.0858         estimate D2E/DX2                !
 ! A1    A(2,1,6)              107.0644         estimate D2E/DX2                !
 ! A2    A(2,1,10)             108.487          estimate D2E/DX2                !
 ! A3    A(2,1,12)             117.409          estimate D2E/DX2                !
 ! A4    A(6,1,10)             104.7846         estimate D2E/DX2                !
 ! A5    A(6,1,12)             107.2911         estimate D2E/DX2                !
 ! A6    A(10,1,12)            110.9918         estimate D2E/DX2                !
 ! A7    A(1,2,3)              111.424          estimate D2E/DX2                !
 ! A8    A(1,2,7)              104.4241         estimate D2E/DX2                !
 ! A9    A(1,2,14)             111.9585         estimate D2E/DX2                !
 ! A10   A(3,2,7)              108.0397         estimate D2E/DX2                !
 ! A11   A(3,2,14)             114.2081         estimate D2E/DX2                !
 ! A12   A(7,2,14)             106.0776         estimate D2E/DX2                !
 ! A13   A(2,3,4)              110.2752         estimate D2E/DX2                !
 ! A14   A(2,3,15)             104.5453         estimate D2E/DX2                !
 ! A15   A(2,3,37)             109.7449         estimate D2E/DX2                !
 ! A16   A(4,3,15)             108.8663         estimate D2E/DX2                !
 ! A17   A(4,3,37)             111.4135         estimate D2E/DX2                !
 ! A18   A(15,3,37)            111.7806         estimate D2E/DX2                !
 ! A19   A(3,4,5)              114.9599         estimate D2E/DX2                !
 ! A20   A(3,4,8)              111.8866         estimate D2E/DX2                !
 ! A21   A(3,4,9)              110.3731         estimate D2E/DX2                !
 ! A22   A(5,4,8)              106.0226         estimate D2E/DX2                !
 ! A23   A(5,4,9)              107.6534         estimate D2E/DX2                !
 ! A24   A(8,4,9)              105.3861         estimate D2E/DX2                !
 ! A25   A(4,5,10)             116.3493         estimate D2E/DX2                !
 ! A26   A(4,5,11)             122.117          estimate D2E/DX2                !
 ! A27   A(10,5,11)            121.3357         estimate D2E/DX2                !
 ! A28   A(1,10,5)             120.3851         estimate D2E/DX2                !
 ! A29   A(1,12,13)            111.8862         estimate D2E/DX2                !
 ! A30   A(1,12,32)            111.4813         estimate D2E/DX2                !
 ! A31   A(1,12,33)            110.1936         estimate D2E/DX2                !
 ! A32   A(13,12,32)           107.2271         estimate D2E/DX2                !
 ! A33   A(13,12,33)           108.4818         estimate D2E/DX2                !
 ! A34   A(32,12,33)           107.3955         estimate D2E/DX2                !
 ! A35   A(12,13,34)           110.0983         estimate D2E/DX2                !
 ! A36   A(12,13,35)           111.3376         estimate D2E/DX2                !
 ! A37   A(12,13,36)           110.9999         estimate D2E/DX2                !
 ! A38   A(34,13,35)           107.8539         estimate D2E/DX2                !
 ! A39   A(34,13,36)           108.0062         estimate D2E/DX2                !
 ! A40   A(35,13,36)           108.4256         estimate D2E/DX2                !
 ! A41   A(2,14,29)            111.006          estimate D2E/DX2                !
 ! A42   A(2,14,30)            112.6408         estimate D2E/DX2                !
 ! A43   A(2,14,31)            110.3299         estimate D2E/DX2                !
 ! A44   A(29,14,30)           107.8933         estimate D2E/DX2                !
 ! A45   A(29,14,31)           107.2987         estimate D2E/DX2                !
 ! A46   A(30,14,31)           107.4532         estimate D2E/DX2                !
 ! A47   A(3,15,16)            128.4092         estimate D2E/DX2                !
 ! A48   A(15,16,17)           108.5446         estimate D2E/DX2                !
 ! A49   A(15,16,18)           110.9425         estimate D2E/DX2                !
 ! A50   A(15,16,19)           113.666          estimate D2E/DX2                !
 ! A51   A(17,16,18)           107.2844         estimate D2E/DX2                !
 ! A52   A(17,16,19)           107.2906         estimate D2E/DX2                !
 ! A53   A(18,16,19)           108.857          estimate D2E/DX2                !
 ! A54   A(16,17,26)           110.3007         estimate D2E/DX2                !
 ! A55   A(16,17,27)           110.3446         estimate D2E/DX2                !
 ! A56   A(16,17,28)           110.5132         estimate D2E/DX2                !
 ! A57   A(26,17,27)           108.4916         estimate D2E/DX2                !
 ! A58   A(26,17,28)           108.568          estimate D2E/DX2                !
 ! A59   A(27,17,28)           108.5633         estimate D2E/DX2                !
 ! A60   A(16,18,20)           110.4353         estimate D2E/DX2                !
 ! A61   A(16,18,21)           110.4372         estimate D2E/DX2                !
 ! A62   A(16,18,22)           111.2367         estimate D2E/DX2                !
 ! A63   A(20,18,21)           108.2687         estimate D2E/DX2                !
 ! A64   A(20,18,22)           108.0432         estimate D2E/DX2                !
 ! A65   A(21,18,22)           108.3225         estimate D2E/DX2                !
 ! A66   A(16,19,23)           110.8802         estimate D2E/DX2                !
 ! A67   A(16,19,24)           110.3016         estimate D2E/DX2                !
 ! A68   A(16,19,25)           111.444          estimate D2E/DX2                !
 ! A69   A(23,19,24)           107.8661         estimate D2E/DX2                !
 ! A70   A(23,19,25)           108.4167         estimate D2E/DX2                !
 ! A71   A(24,19,25)           107.804          estimate D2E/DX2                !
 ! A72   A(3,37,38)            116.4167         estimate D2E/DX2                !
 ! A73   A(3,37,40)            109.593          estimate D2E/DX2                !
 ! A74   A(3,37,41)            109.5204         estimate D2E/DX2                !
 ! A75   A(38,37,40)           108.101          estimate D2E/DX2                !
 ! A76   A(38,37,41)           107.9994         estimate D2E/DX2                !
 ! A77   A(40,37,41)           104.5408         estimate D2E/DX2                !
 ! A78   A(37,38,39)           124.1332         estimate D2E/DX2                !
 ! A79   A(37,38,42)           117.5677         estimate D2E/DX2                !
 ! A80   A(39,38,42)           118.2648         estimate D2E/DX2                !
 ! A81   A(38,39,43)           120.7235         estimate D2E/DX2                !
 ! A82   A(38,39,44)           122.1387         estimate D2E/DX2                !
 ! A83   A(43,39,44)           117.1353         estimate D2E/DX2                !
 ! D1    D(6,1,2,3)            174.226          estimate D2E/DX2                !
 ! D2    D(6,1,2,7)             57.8404         estimate D2E/DX2                !
 ! D3    D(6,1,2,14)           -56.4915         estimate D2E/DX2                !
 ! D4    D(10,1,2,3)            61.6387         estimate D2E/DX2                !
 ! D5    D(10,1,2,7)           -54.747          estimate D2E/DX2                !
 ! D6    D(10,1,2,14)         -169.0788         estimate D2E/DX2                !
 ! D7    D(12,1,2,3)           -65.1499         estimate D2E/DX2                !
 ! D8    D(12,1,2,7)           178.4645         estimate D2E/DX2                !
 ! D9    D(12,1,2,14)           64.1326         estimate D2E/DX2                !
 ! D10   D(2,1,10,5)           -38.0508         estimate D2E/DX2                !
 ! D11   D(6,1,10,5)          -152.1456         estimate D2E/DX2                !
 ! D12   D(12,1,10,5)           92.3536         estimate D2E/DX2                !
 ! D13   D(2,1,12,13)         -175.6358         estimate D2E/DX2                !
 ! D14   D(2,1,12,32)           64.2929         estimate D2E/DX2                !
 ! D15   D(2,1,12,33)          -54.8551         estimate D2E/DX2                !
 ! D16   D(6,1,12,13)          -55.1304         estimate D2E/DX2                !
 ! D17   D(6,1,12,32)         -175.2017         estimate D2E/DX2                !
 ! D18   D(6,1,12,33)           65.6503         estimate D2E/DX2                !
 ! D19   D(10,1,12,13)          58.8051         estimate D2E/DX2                !
 ! D20   D(10,1,12,32)         -61.2663         estimate D2E/DX2                !
 ! D21   D(10,1,12,33)         179.5857         estimate D2E/DX2                !
 ! D22   D(1,2,3,4)            -31.3286         estimate D2E/DX2                !
 ! D23   D(1,2,3,15)            85.5426         estimate D2E/DX2                !
 ! D24   D(1,2,3,37)          -154.43           estimate D2E/DX2                !
 ! D25   D(7,2,3,4)             82.8269         estimate D2E/DX2                !
 ! D26   D(7,2,3,15)          -160.302          estimate D2E/DX2                !
 ! D27   D(7,2,3,37)           -40.2745         estimate D2E/DX2                !
 ! D28   D(14,2,3,4)          -159.4136         estimate D2E/DX2                !
 ! D29   D(14,2,3,15)          -42.5425         estimate D2E/DX2                !
 ! D30   D(14,2,3,37)           77.485          estimate D2E/DX2                !
 ! D31   D(1,2,14,29)          174.4705         estimate D2E/DX2                !
 ! D32   D(1,2,14,30)          -64.4146         estimate D2E/DX2                !
 ! D33   D(1,2,14,31)           55.6578         estimate D2E/DX2                !
 ! D34   D(3,2,14,29)          -57.7171         estimate D2E/DX2                !
 ! D35   D(3,2,14,30)           63.3978         estimate D2E/DX2                !
 ! D36   D(3,2,14,31)         -176.5299         estimate D2E/DX2                !
 ! D37   D(7,2,14,29)           61.1598         estimate D2E/DX2                !
 ! D38   D(7,2,14,30)         -177.7253         estimate D2E/DX2                !
 ! D39   D(7,2,14,31)          -57.6529         estimate D2E/DX2                !
 ! D40   D(2,3,4,5)            -20.0643         estimate D2E/DX2                !
 ! D41   D(2,3,4,8)            100.9389         estimate D2E/DX2                !
 ! D42   D(2,3,4,9)           -142.0477         estimate D2E/DX2                !
 ! D43   D(15,3,4,5)          -134.2173         estimate D2E/DX2                !
 ! D44   D(15,3,4,8)           -13.214          estimate D2E/DX2                !
 ! D45   D(15,3,4,9)           103.7994         estimate D2E/DX2                !
 ! D46   D(37,3,4,5)           102.0579         estimate D2E/DX2                !
 ! D47   D(37,3,4,8)          -136.9389         estimate D2E/DX2                !
 ! D48   D(37,3,4,9)           -19.9255         estimate D2E/DX2                !
 ! D49   D(2,3,15,16)          168.9188         estimate D2E/DX2                !
 ! D50   D(4,3,15,16)          -73.2419         estimate D2E/DX2                !
 ! D51   D(37,3,15,16)          50.2644         estimate D2E/DX2                !
 ! D52   D(2,3,37,38)           60.8222         estimate D2E/DX2                !
 ! D53   D(2,3,37,40)          -62.2066         estimate D2E/DX2                !
 ! D54   D(2,3,37,41)         -176.345          estimate D2E/DX2                !
 ! D55   D(4,3,37,38)          -61.6057         estimate D2E/DX2                !
 ! D56   D(4,3,37,40)          175.3654         estimate D2E/DX2                !
 ! D57   D(4,3,37,41)           61.227          estimate D2E/DX2                !
 ! D58   D(15,3,37,38)         176.3387         estimate D2E/DX2                !
 ! D59   D(15,3,37,40)          53.3098         estimate D2E/DX2                !
 ! D60   D(15,3,37,41)         -60.8286         estimate D2E/DX2                !
 ! D61   D(3,4,5,10)            47.0259         estimate D2E/DX2                !
 ! D62   D(3,4,5,11)          -138.027          estimate D2E/DX2                !
 ! D63   D(8,4,5,10)           -77.1309         estimate D2E/DX2                !
 ! D64   D(8,4,5,11)            97.8162         estimate D2E/DX2                !
 ! D65   D(9,4,5,10)           170.4685         estimate D2E/DX2                !
 ! D66   D(9,4,5,11)           -14.5844         estimate D2E/DX2                !
 ! D67   D(4,5,10,1)           -15.494          estimate D2E/DX2                !
 ! D68   D(11,5,10,1)          169.5163         estimate D2E/DX2                !
 ! D69   D(1,12,13,34)         178.0202         estimate D2E/DX2                !
 ! D70   D(1,12,13,35)         -62.413          estimate D2E/DX2                !
 ! D71   D(1,12,13,36)          58.4793         estimate D2E/DX2                !
 ! D72   D(32,12,13,34)        -59.45           estimate D2E/DX2                !
 ! D73   D(32,12,13,35)         60.1168         estimate D2E/DX2                !
 ! D74   D(32,12,13,36)       -178.9909         estimate D2E/DX2                !
 ! D75   D(33,12,13,34)         56.2505         estimate D2E/DX2                !
 ! D76   D(33,12,13,35)        175.8173         estimate D2E/DX2                !
 ! D77   D(33,12,13,36)        -63.2903         estimate D2E/DX2                !
 ! D78   D(3,15,16,17)         158.5776         estimate D2E/DX2                !
 ! D79   D(3,15,16,18)         -83.7808         estimate D2E/DX2                !
 ! D80   D(3,15,16,19)          39.283          estimate D2E/DX2                !
 ! D81   D(15,16,17,26)        -60.8674         estimate D2E/DX2                !
 ! D82   D(15,16,17,27)         58.9895         estimate D2E/DX2                !
 ! D83   D(15,16,17,28)        179.0723         estimate D2E/DX2                !
 ! D84   D(18,16,17,26)        179.1841         estimate D2E/DX2                !
 ! D85   D(18,16,17,27)        -60.9589         estimate D2E/DX2                !
 ! D86   D(18,16,17,28)         59.1239         estimate D2E/DX2                !
 ! D87   D(19,16,17,26)         62.3522         estimate D2E/DX2                !
 ! D88   D(19,16,17,27)       -177.7908         estimate D2E/DX2                !
 ! D89   D(19,16,17,28)        -57.708          estimate D2E/DX2                !
 ! D90   D(15,16,18,20)       -172.7191         estimate D2E/DX2                !
 ! D91   D(15,16,18,21)        -52.9939         estimate D2E/DX2                !
 ! D92   D(15,16,18,22)         67.3197         estimate D2E/DX2                !
 ! D93   D(17,16,18,20)        -54.3121         estimate D2E/DX2                !
 ! D94   D(17,16,18,21)         65.4131         estimate D2E/DX2                !
 ! D95   D(17,16,18,22)       -174.2733         estimate D2E/DX2                !
 ! D96   D(19,16,18,20)         61.4861         estimate D2E/DX2                !
 ! D97   D(19,16,18,21)       -178.7887         estimate D2E/DX2                !
 ! D98   D(19,16,18,22)        -58.4751         estimate D2E/DX2                !
 ! D99   D(15,16,19,23)         58.4651         estimate D2E/DX2                !
 ! D100  D(15,16,19,24)        177.8864         estimate D2E/DX2                !
 ! D101  D(15,16,19,25)        -62.4064         estimate D2E/DX2                !
 ! D102  D(17,16,19,23)        -61.5418         estimate D2E/DX2                !
 ! D103  D(17,16,19,24)         57.8794         estimate D2E/DX2                !
 ! D104  D(17,16,19,25)        177.5867         estimate D2E/DX2                !
 ! D105  D(18,16,19,23)       -177.3361         estimate D2E/DX2                !
 ! D106  D(18,16,19,24)        -57.9148         estimate D2E/DX2                !
 ! D107  D(18,16,19,25)         61.7925         estimate D2E/DX2                !
 ! D108  D(3,37,38,39)         107.0245         estimate D2E/DX2                !
 ! D109  D(3,37,38,42)         -75.1496         estimate D2E/DX2                !
 ! D110  D(40,37,38,39)       -129.1746         estimate D2E/DX2                !
 ! D111  D(40,37,38,42)         48.6513         estimate D2E/DX2                !
 ! D112  D(41,37,38,39)        -16.5969         estimate D2E/DX2                !
 ! D113  D(41,37,38,42)        161.229          estimate D2E/DX2                !
 ! D114  D(37,38,39,43)        179.2912         estimate D2E/DX2                !
 ! D115  D(37,38,39,44)         -1.2986         estimate D2E/DX2                !
 ! D116  D(42,38,39,43)          1.4794         estimate D2E/DX2                !
 ! D117  D(42,38,39,44)       -179.1103         estimate D2E/DX2                !
 --------------------------------------------------------------------------------
 Trust Radius=3.00D-01 FncErr=1.00D-07 GrdErr=1.00D-06
 Number of steps in this run=     25 maximum allowed number of steps=    264.
 GradGradGradGradGradGradGradGradGradGradGradGradGradGradGradGradGradGrad

                          Input orientation:                          
 ---------------------------------------------------------------------
 Center     Atomic      Atomic             Coordinates (Angstroms)
 Number     Number       Type             X           Y           Z
 ---------------------------------------------------------------------
      1          6           0       -0.794947    0.394437   -0.633734
      2          6           0       -1.137991   -0.433900    0.615177
      3          6           0       -1.618629    0.479862    1.793716
      4          6           0       -0.924394    1.856163    1.720702
      5          6           0        0.339357    1.886321    0.909668
      6          1           0       -0.370611   -0.297809   -1.372959
      7          1           0       -0.185746   -0.893687    0.908255
      8          1           0       -1.579260    2.621706    1.288987
      9          1           0       -0.681718    2.215261    2.728044
     10          8           0        0.287920    1.291688   -0.304927
     11          8           0        1.337152    2.496317    1.279509
     12          6           0       -1.943714    1.147083   -1.320116
     13          6           0       -1.486109    1.837514   -2.600305
     14          6           0       -2.087839   -1.593918    0.290987
     15          8           0       -3.038154    0.657978    1.560674
     16         14           0       -4.186916    1.316132    2.587245
     17          6           0       -5.661525    1.887654    1.551821
     18          6           0       -4.822031    0.026777    3.800198
     19          6           0       -3.572214    2.803191    3.550110
     20          1           0       -5.659971    0.426771    4.378946
     21          1           0       -5.168070   -0.862794    3.265693
     22          1           0       -4.040133   -0.276167    4.501540
     23          1           0       -3.237764    3.594712    2.873371
     24          1           0       -4.374747    3.210630    4.172685
     25          1           0       -2.740820    2.537347    4.208245
     26          1           0       -5.348534    2.652949    0.835640
     27          1           0       -6.085588    1.045847    0.996841
     28          1           0       -6.440320    2.309161    2.193859
     29          1           0       -2.244218   -2.229614    1.167825
     30          1           0       -3.067438   -1.251860   -0.055131
     31          1           0       -1.662792   -2.224975   -0.497259
     32          1           0       -2.362767    1.918013   -0.668621
     33          1           0       -2.753577    0.454036   -1.570002
     34          1           0       -2.333534    2.334560   -3.083200
     35          1           0       -0.725379    2.596608   -2.393297
     36          1           0       -1.069531    1.114383   -3.308616
     37          6           0       -1.338611   -0.230404    3.162570
     38          6           0        0.102012   -0.545235    3.472077
     39          6           0        0.836850    0.112009    4.378371
     40          1           0       -1.910935   -1.165120    3.215980
     41          1           0       -1.734873    0.382109    3.980888
     42          1           0        0.558593   -1.382256    2.947385
     43          1           0        1.869461   -0.169502    4.565493
     44          1           0        0.440105    0.946759    4.948153
 ---------------------------------------------------------------------
                    Distance matrix (angstroms):
                    1          2          3          4          5
     1  C    0.000000
     2  C    1.537400   0.000000
     3  C    2.564812   1.566821   0.000000
     4  C    2.774305   2.551901   1.543210   0.000000
     5  C    2.427849   2.766353   2.567757   1.501916   0.000000
     6  H    1.098052   2.135434   3.491440   3.810119   3.238034
     7  H    2.099552   1.097301   2.173438   2.960970   2.829166
     8  H    3.045116   3.159979   2.200863   1.096031   2.089441
     9  H    3.824889   3.419129   2.182288   1.096623   2.111229
    10  O    1.444221   2.420221   2.949287   2.427243   1.353320
    11  O    3.553061   3.892794   3.614850   2.391451   1.226569
    12  C    1.535338   2.625653   3.201064   3.284567   3.275793
    13  C    2.535267   3.952193   4.600891   4.357404   3.956592
    14  C    2.545630   1.533934   2.603635   3.911617   4.287903
    15  O    3.149104   2.386793   1.449512   2.435003   3.652426
    16  Si   4.767566   4.030832   2.815161   3.418564   4.860713
    17  C    5.539849   5.170036   4.287820   4.740245   6.035143
    18  C    6.001028   4.891700   3.806973   4.781478   6.201048
    19  C    5.569547   5.001803   3.507032   3.354780   4.807595
    20  H    6.985447   5.946008   4.797778   5.615613   7.082239
    21  H    5.992526   4.842595   4.070377   5.271481   6.590921
    22  H    6.111627   4.852950   3.710468   4.689107   6.062824
    23  H    5.339373   5.073283   3.672811   3.114944   4.423858
    24  H    6.621750   6.034489   4.551129   4.444293   5.884203
    25  H    5.641210   4.930264   3.364893   3.154566   4.559817
    26  H    5.291039   5.225506   4.421810   4.581617   5.739800
    27  H    5.574405   5.178227   4.572644   5.274326   6.480271
    28  H    6.597855   6.175056   5.172538   5.554685   6.913173
    29  H    3.497377   2.180309   2.850327   4.329109   4.866459
    30  H    2.865186   2.200258   2.918243   4.172053   4.731307
    31  H    2.762806   2.172759   3.544949   4.703219   4.784433
    32  H    2.186449   2.946134   2.947053   2.789553   3.129453
    33  H    2.171723   2.858943   3.550123   4.017537   4.215026
    34  H    3.482989   4.771969   5.266432   5.029117   4.825791
    35  H    2.819656   4.290122   4.775938   4.184836   3.542280
    36  H    2.783651   4.218770   5.170872   5.085798   4.513842
    37  C    3.885604   2.563371   1.567370   2.569887   3.517338
    38  C    4.306414   3.116389   2.613106   3.144445   3.540443
    39  C    5.278610   4.284815   3.584011   3.634179   3.927796
    40  H    4.300924   2.810036   2.194138   3.512445   4.437813
    41  H    4.709389   3.514278   2.192439   2.817473   3.999685
    42  H    4.220559   3.035946   3.088484   3.767142   3.857972
    43  H    5.869332   4.971888   4.502354   4.472335   4.464603
    44  H    5.743507   4.813656   3.795636   3.620126   4.147564
                    6          7          8          9         10
     6  H    0.000000
     7  H    2.364991   0.000000
     8  H    4.131629   3.800635   0.000000
     9  H    4.819806   3.636369   1.744037   0.000000
    10  O    2.025057   2.544019   2.792109   3.315433   0.000000
    11  O    4.214164   3.734859   2.919122   2.500616   2.249990
    12  C    2.136623   3.495831   3.019066   4.372784   2.455954
    13  C    2.703760   4.632537   3.968655   5.401948   2.951926
    14  C    2.719832   2.118797   4.361897   4.735638   3.784979
    15  O    4.078666   3.312031   2.461384   3.056252   3.865854
    16  Si   5.731684   4.869463   3.192157   3.621418   5.328172
    17  C    6.428402   6.175289   4.156056   5.127310   6.260877
    18  C    6.832426   5.541275   4.853391   4.804286   6.675601
    19  C    6.641014   5.666963   3.019516   3.062094   5.660970
    20  H    7.847723   6.614865   5.569362   5.541406   7.619984
    21  H    6.697157   5.511989   5.378537   5.467252   6.867237
    22  H    6.926442   5.305594   4.977355   4.542186   6.655249
    23  H    6.434563   5.772540   2.491515   2.908157   5.275978
    24  H    7.687419   6.711904   4.059223   4.088546   6.743279
    25  H    6.693716   5.402808   3.142993   2.556293   5.576168
    26  H    6.193916   6.264047   3.796568   5.054892   5.909614
    27  H    6.331060   6.211101   4.782852   5.793652   6.509734
    28  H    7.507320   7.143578   4.954431   5.784087   7.249027
    29  H    3.701062   2.467668   4.898179   4.963124   4.580425
    30  H    3.149565   3.059501   4.361862   5.045657   4.217874
    31  H    2.480030   2.435049   5.166040   5.575014   4.026064
    32  H    3.061804   3.889938   2.222903   3.801528   2.747853
    33  H    2.506516   3.814691   3.775133   5.086031   3.398938
    34  H    3.702345   5.564736   4.446055   6.042622   3.959596
    35  H    3.089434   4.834626   3.780074   5.135705   2.662871
    36  H    2.495905   4.753464   4.865162   6.148463   3.300948
    37  C    4.638167   2.617437   3.420929   2.569358   4.121396
    38  C    4.874317   2.603345   4.197865   2.964482   4.204118
    39  C    5.890985   3.754841   4.656228   3.074621   4.860684
    40  H    4.917640   2.894054   4.261850   3.629880   4.823656
    41  H    5.566613   3.669949   3.505188   2.457478   4.825685
    42  H    4.550255   2.225037   4.832433   3.811641   4.219096
    43  H    6.348196   4.257195   5.515434   3.946116   5.325161
    44  H    6.493279   4.483270   4.502530   2.792216   5.266591
                   11         12         13         14         15
    11  O    0.000000
    12  C    4.398018   0.000000
    13  C    4.843323   1.524789   0.000000
    14  C    5.425658   3.182689   4.527292   0.000000
    15  O    4.754140   3.120252   4.594986   2.754313   0.000000
    16  Si   5.798132   4.508659   5.871701   4.259967   1.675312
    17  C    7.030370   4.755900   5.888698   5.146093   2.897284
    18  C    7.098453   5.979750   7.441343   4.734662   2.931911
    19  C    5.417719   5.395721   6.565971   5.670963   2.974057
    20  H    7.927753   6.841690   8.253561   5.792644   3.856169
    21  H    7.585939   5.955310   7.433602   4.344104   3.123520
    22  H    6.854440   6.349196   7.837531   4.824591   3.244269
    23  H    4.967567   5.025016   6.009756   5.908715   3.222953
    24  H    6.442554   6.351300   7.490198   6.586441   3.889102
    25  H    5.020860   5.755952   6.958478   5.730501   3.260378
    26  H    6.702235   4.302059   5.233448   5.381882   3.137426
    27  H    7.568410   4.746963   5.892487   4.842374   3.123332
    28  H    7.833271   5.823909   6.910186   6.148092   3.834327
    29  H    5.930692   4.205025   5.595986   1.094262   3.020406
    30  H    5.935529   2.935621   4.303806   1.093808   2.501832
    31  H    5.869171   3.482354   4.577973   1.095550   3.799754
    32  H    4.221261   1.092879   2.122831   3.651040   2.648319
    33  H    5.387457   1.094822   2.140563   2.846156   3.150192
    34  H    5.703800   2.161140   1.094702   5.184442   4.987282
    35  H    4.213502   2.176506   1.094434   5.159669   4.974043
    36  H    5.362160   2.172417   1.094605   4.618332   5.271979
    37  C    4.259182   4.728435   6.124440   3.265961   2.498748
    38  C    3.947653   5.478508   6.713676   4.001814   3.868052
    39  C    3.941849   6.424614   7.554828   5.307608   4.822152
    40  H    5.263659   5.091515   6.559379   2.961545   2.708200
    41  H    4.604852   5.359985   6.744790   4.200552   2.762622
    42  H    4.293168   5.556137   6.732354   3.755643   4.361435
    43  H    4.264696   7.135411   8.163126   5.996715   5.813634
    44  H    4.082251   6.709241   7.841107   5.876626   4.863815
                   16         17         18         19         20
    16  Si   0.000000
    17  C    1.890294   0.000000
    18  C    1.880708   3.036908   0.000000
    19  C    1.875183   3.032588   3.055006   0.000000
    20  H    2.484159   3.182266   1.094115   3.270026   0.000000
    21  H    2.484084   3.278082   1.093972   4.008378   1.773211
    22  H    2.494291   4.001484   1.093170   3.256780   1.770036
    23  H    2.484891   3.245791   4.012365   1.093772   4.262592
    24  H    2.477503   3.205463   3.236623   1.094379   3.073144
    25  H    2.492027   4.001151   3.286473   1.093175   3.606260
    26  H    2.490895   1.093872   3.995321   3.247496   4.196174
    27  H    2.491464   1.093833   3.239427   3.990550   3.464540
    28  H    2.493730   1.093802   3.226215   3.210843   2.987799
    29  H    4.284990   5.364451   4.320394   5.724332   5.388418
    30  H    3.850969   4.378142   4.424598   5.449404   5.403709
    31  H    5.331492   6.091167   5.789587   6.731236   6.840071
    32  H    3.780270   3.976567   5.440138   4.477052   6.210740
    33  H    4.481113   4.500800   5.770624   5.692472   6.621016
    34  H    6.051956   5.723519   7.674611   6.764225   8.389783
    35  H    6.199004   6.358625   7.857860   6.593272   8.655730
    36  H    6.672329   6.731137   8.111682   7.493839   8.980176
    37  C    3.291749   5.076245   3.550623   3.787066   4.537136
    38  C    4.758416   6.544058   4.968004   4.971718   5.913346
    39  C    5.467748   7.305558   5.688979   5.231474   6.504441
    40  H    3.425202   5.114272   3.199439   4.314972   4.235785
    41  H    2.971053   4.856504   3.112789   3.069695   3.945483
    42  H    5.470910   7.164480   5.627058   5.911414   6.632683
    43  H    6.542192   8.368385   6.737972   6.283290   7.555309
    44  H    5.207653   7.046293   5.463904   4.636763   6.148602
                   21         22         23         24         25
    21  H    0.000000
    22  H    1.773046   0.000000
    23  H    4.873331   4.275329   0.000000
    24  H    4.247915   3.518219   1.768747   0.000000
    25  H    4.282628   3.112892   1.773940   1.767567   0.000000
    26  H    4.277636   4.871392   3.081333   3.520673   4.264739
    27  H    3.103617   4.267847   4.257720   4.207047   4.870848
    28  H    3.581724   4.215473   3.517207   2.999165   4.218545
    29  H    3.849436   4.260859   6.149699   6.569977   5.675798
    30  H    3.948658   4.760395   5.665192   6.284688   5.713243
    31  H    5.319992   5.868355   6.907274   7.662172   6.781123
    32  H    5.575073   5.861616   4.015302   5.399738   4.930550
    33  H    5.563071   6.249164   5.462769   6.573086   6.142352
    34  H    7.652850   8.201016   6.155189   7.588275   7.305626
    35  H    7.983053   8.171855   5.919973   7.537044   6.902599
    36  H    7.995548   8.470929   7.005015   8.443256   7.830787
    37  C    3.882693   3.015486   4.280412   4.698848   3.274152
    38  C    5.283673   4.276629   5.352730   5.885469   4.257458
    39  C    6.184445   4.893957   5.567470   6.066671   4.325613
    40  H    3.271514   2.641285   4.953166   5.112029   3.921933
    41  H    3.721307   2.453290   3.715655   3.873790   2.389283
    42  H    5.758978   4.978666   6.260033   6.850825   5.276285
    43  H    7.190061   5.910903   6.566303   7.111239   5.358111
    44  H    6.128359   4.665570   4.984285   5.376733   3.632591
                   26         27         28         29         30
    26  H    0.000000
    27  H    1.775390   0.000000
    28  H    1.776217   1.776133   0.000000
    29  H    5.795390   5.051139   6.265820   0.000000
    30  H    4.609165   3.936411   5.395847   1.768987   0.000000
    31  H    6.257432   5.700152   7.115144   1.763684   1.765067
    32  H    3.423118   4.170591   4.997322   4.537554   3.304698
    33  H    4.166069   4.247496   5.585715   3.867444   2.302916
    34  H    4.954685   5.690819   6.686829   6.237858   4.750813
    35  H    5.639395   6.529145   7.333838   6.187154   5.075723
    36  H    6.152391   6.610786   7.781394   5.709705   4.491759
    37  C    5.459653   5.371498   5.780590   2.965800   3.792864
    38  C    6.847454   6.851622   7.251450   3.694794   4.794364
    39  C    7.567450   7.760602   7.909284   5.028298   6.062965
    40  H    5.662222   5.219261   5.799197   2.332202   3.470618
    41  H    5.301683   5.317312   5.389641   3.872190   4.553574
    42  H    7.458988   7.337946   7.948531   3.426456   4.709587
    43  H    8.601017   8.803133   8.990043   5.719315   6.847966
    44  H    7.302889   7.629374   7.535418   5.620126   6.493815
                   31         32         33         34         35
    31  H    0.000000
    32  H    4.205197   0.000000
    33  H    3.085075   1.763079   0.000000
    34  H    5.284538   2.450420   2.450015   0.000000
    35  H    5.265108   2.473062   3.063008   1.769406   0.000000
    36  H    4.405338   3.047598   2.508954   1.771256   1.775737
    37  C    4.180641   4.510279   4.986765   6.824848   6.263841
    38  C    4.657434   5.411849   5.880093   7.562854   6.705100
    39  C    5.956633   6.242702   6.956385   8.406314   7.380331
    40  H    3.869498   4.979958   5.122239   7.218450   6.857123
    41  H    5.182266   4.936718   5.644051   7.353353   6.822999
    42  H    4.184531   5.701019   5.894847   7.651606   6.782538
    43  H    6.506400   7.047370   7.707501   9.079537   7.925233
    44  H    6.643387   6.351974   7.275213   8.609396   7.614279
                   36         37         38         39         40
    36  H    0.000000
    37  C    6.614915   0.000000
    38  C    7.078463   1.506754   0.000000
    39  C    7.983033   2.515561   1.339151   0.000000
    40  H    6.962359   1.097316   2.121744   3.245387   0.000000
    41  H    7.356342   1.096285   2.119670   2.616239   1.734935
    42  H    6.929758   2.229899   1.088289   2.087577   2.493564
    43  H    8.502213   3.501946   2.112016   1.086531   4.135678
    44  H    8.395316   2.781699   2.125830   1.085756   3.603865
                   41         42         43         44
    41  H    0.000000
    42  H    3.072637   0.000000
    43  H    3.692866   2.409859   0.000000
    44  H    2.446418   3.072690   1.853517   0.000000
 Stoichiometry    C14H26O3Si
 Framework group  C1[X(C14H26O3Si)]
 Deg. of freedom   126
 Full point group                 C1      NOp   1
 Largest Abelian subgroup         C1      NOp   1
 Largest concise Abelian subgroup C1      NOp   1
                         Standard orientation:                         
 ---------------------------------------------------------------------
 Center     Atomic      Atomic             Coordinates (Angstroms)
 Number     Number       Type             X           Y           Z
 ---------------------------------------------------------------------
      1          6           0        2.143077   -0.948521    0.661584
      2          6           0        1.126779   -0.013794    1.337619
      3          6           0        0.027941    0.463207    0.327691
      4          6           0        0.615808    0.559971   -1.095877
      5          6           0        2.113193    0.658700   -1.157867
      6          1           0        2.931642   -1.153504    1.397701
      7          1           0        1.717074    0.861736    1.636063
      8          1           0        0.344068   -0.306307   -1.709883
      9          1           0        0.203153    1.429755   -1.621018
     10          8           0        2.805123   -0.218414   -0.394074
     11          8           0        2.684960    1.424101   -1.927098
     12          6           0        1.628815   -2.303382    0.154487
     13          6           0        2.756709   -3.169943   -0.394976
     14          6           0        0.570630   -0.613576    2.635275
     15          8           0       -0.969972   -0.587817    0.352268
     16         14           0       -2.510302   -0.576175   -0.306454
     17          6           0       -3.074595   -2.364097   -0.547536
     18          6           0       -3.734941    0.243561    0.862031
     19          6           0       -2.607996    0.269218   -1.977406
     20          1           0       -4.755883    0.132892    0.484518
     21          1           0       -3.684018   -0.216737    1.853145
     22          1           0       -3.527040    1.311532    0.968023
     23          1           0       -1.941268   -0.213146   -2.697917
     24          1           0       -3.626936    0.212510   -2.372641
     25          1           0       -2.334892    1.325418   -1.907509
     26          1           0       -2.401177   -2.885302   -1.234128
     27          1           0       -3.074245   -2.895208    0.408702
     28          1           0       -4.086321   -2.394115   -0.962157
     29          1           0       -0.074838    0.102330    3.153212
     30          1           0       -0.008774   -1.525241    2.463310
     31          1           0        1.388637   -0.868037    3.318169
     32          1           0        0.896411   -2.178903   -0.647058
     33          1           0        1.136247   -2.848491    0.966193
     34          1           0        2.363784   -4.140210   -0.715231
     35          1           0        3.235104   -2.699676   -1.259716
     36          1           0        3.520791   -3.349442    0.367991
     37          6           0       -0.562580    1.836951    0.797545
     38          6           0        0.407526    2.985824    0.893945
     39          6           0        0.446851    4.010393    0.032528
     40          1           0       -1.044824    1.714958    1.775634
     41          1           0       -1.375420    2.135442    0.125210
     42          1           0        1.094505    2.995470    1.737946
     43          1           0        1.163490    4.816837    0.161468
     44          1           0       -0.219249    4.071859   -0.822690
 ---------------------------------------------------------------------
 Rotational constants (GHZ):      0.4336813      0.3215485      0.2502323
 Standard basis: 6-31G(d,p) (6D, 7F)
 There are   404 symmetry adapted cartesian basis functions of A   symmetry.
 There are   404 symmetry adapted basis functions of A   symmetry.
   404 basis functions,   710 primitive gaussians,   404 cartesian basis functions
    74 alpha electrons       74 beta electrons
       nuclear repulsion energy      1647.2641843999 Hartrees.
 NAtoms=   44 NActive=   44 NUniq=   44 SFac= 1.00D+00 NAtFMM=   60 NAOKFM=F Big=F
 Integral buffers will be    131072 words long.
 Raffenetti 2 integral format.
 Two-electron integral symmetry is turned on.
 ------------------------------------------------------------------------------
 Polarizable Continuum Model (PCM)
 =================================
 Model                : PCM (using non-symmetric T matrix).
 Atomic radii         : UFF (Universal Force Field).
 Polarization charges : Total charges.
 Charge compensation  : None.
 Solution method      : On-the-fly selection.
 Cavity type          : Scaled VdW (van der Waals Surface) (Alpha=1.100).
 Cavity algorithm     : GePol (No added spheres)
                        Default sphere list used, NSphG=   44.
                        Lebedev-Laikov grids with approx.  5.0 points / Ang**2.
                        Smoothing algorithm: Karplus/York (Gamma=1.0000).
                        Polarization charges: spherical gaussians, with
                                              point-specific exponents (IZeta= 3).
                        Self-potential: point-specific (ISelfS= 7).
                        Self-field    : sphere-specific E.n sum rule (ISelfD= 2).
 1st derivatives      : Analytical E(r).r(x)/FMM algorithm (CHGder, D1EAlg=3).
                        Cavity 1st derivative terms included.
 Solvent              : Chloroform, Eps=   4.711300 Eps(inf)=   2.090627
 ------------------------------------------------------------------------------
 One-electron integrals computed using PRISM.
 NBasis=   404 RedAO= T EigKep=  1.42D-03  NBF=   404
 NBsUse=   404 1.00D-06 EigRej= -1.00D+00 NBFU=   404
 ExpMin= 7.78D-02 ExpMax= 1.61D+04 ExpMxC= 2.43D+03 IAcc=2 IRadAn=         4 AccDes= 0.00D+00
 Harris functional with IExCor=  402 and IRadAn=       4 diagonalized for initial guess.
 HarFok:  IExCor=  402 AccDes= 0.00D+00 IRadAn=         4 IDoV= 1 UseB2=F ITyADJ=14
 ICtDFT=  3500011 ScaDFX=  1.000000  1.000000  1.000000  1.000000
 FoFCou: FMM=F IPFlag=           0 FMFlag=      100000 FMFlg1=           0
         NFxFlg=           0 DoJE=T BraDBF=F KetDBF=T FulRan=T
         wScrn=  0.000000 ICntrl=     500 IOpCl=  0 I1Cent=   200000004 NGrid=           0
         NMat0=    1 NMatS0=      1 NMatT0=    0 NMatD0=    1 NMtDS0=    0 NMtDT0=    0
 Petite list used in FoFCou.
 Requested convergence on RMS density matrix=1.00D-08 within 128 cycles.
 Requested convergence on MAX density matrix=1.00D-06.
 Requested convergence on             energy=1.00D-06.
 No special actions if energy rises.
 Inv3:  Mode=1 IEnd=    25038963.
 Iteration    1 A*A^-1 deviation from unit magnitude is 4.55D-15 for   2855.
 Iteration    1 A*A^-1 deviation from orthogonality  is 2.76D-15 for   2331    934.
 Iteration    1 A^-1*A deviation from unit magnitude is 4.88D-15 for   2859.
 Iteration    1 A^-1*A deviation from orthogonality  is 3.71D-11 for   2543   2506.
 Error on total polarization charges =  0.00912
 SCF Done:  E(RB3LYP) =  -1064.41387366     A.U. after   13 cycles
            NFock= 13  Conv=0.52D-08     -V/T= 2.0080

 **********************************************************************

            Population analysis using the SCF density.

 **********************************************************************

 Orbital symmetries:
       Occupied  (A) (A) (A) (A) (A) (A) (A) (A) (A) (A) (A) (A)
                 (A) (A) (A) (A) (A) (A) (A) (A) (A) (A) (A) (A)
                 (A) (A) (A) (A) (A) (A) (A) (A) (A) (A) (A) (A)
                 (A) (A) (A) (A) (A) (A) (A) (A) (A) (A) (A) (A)
                 (A) (A) (A) (A) (A) (A) (A) (A) (A) (A) (A) (A)
                 (A) (A) (A) (A) (A) (A) (A) (A) (A) (A) (A) (A)
                 (A) (A)
       Virtual   (A) (A) (A) (A) (A) (A) (A) (A) (A) (A) (A) (A)
                 (A) (A) (A) (A) (A) (A) (A) (A) (A) (A) (A) (A)
                 (A) (A) (A) (A) (A) (A) (A) (A) (A) (A) (A) (A)
                 (A) (A) (A) (A) (A) (A) (A) (A) (A) (A) (A) (A)
                 (A) (A) (A) (A) (A) (A) (A) (A) (A) (A) (A) (A)
                 (A) (A) (A) (A) (A) (A) (A) (A) (A) (A) (A) (A)
                 (A) (A) (A) (A) (A) (A) (A) (A) (A) (A) (A) (A)
                 (A) (A) (A) (A) (A) (A) (A) (A) (A) (A) (A) (A)
                 (A) (A) (A) (A) (A) (A) (A) (A) (A) (A) (A) (A)
                 (A) (A) (A) (A) (A) (A) (A) (A) (A) (A) (A) (A)
                 (A) (A) (A) (A) (A) (A) (A) (A) (A) (A) (A) (A)
                 (A) (A) (A) (A) (A) (A) (A) (A) (A) (A) (A) (A)
                 (A) (A) (A) (A) (A) (A) (A) (A) (A) (A) (A) (A)
                 (A) (A) (A) (A) (A) (A) (A) (A) (A) (A) (A) (A)
                 (A) (A) (A) (A) (A) (A) (A) (A) (A) (A) (A) (A)
                 (A) (A) (A) (A) (A) (A) (A) (A) (A) (A) (A) (A)
                 (A) (A) (A) (A) (A) (A) (A) (A) (A) (A) (A) (A)
                 (A) (A) (A) (A) (A) (A) (A) (A) (A) (A) (A) (A)
                 (A) (A) (A) (A) (A) (A) (A) (A) (A) (A) (A) (A)
                 (A) (A) (A) (A) (A) (A) (A) (A) (A) (A) (A) (A)
                 (A) (A) (A) (A) (A) (A) (A) (A) (A) (A) (A) (A)
                 (A) (A) (A) (A) (A) (A) (A) (A) (A) (A) (A) (A)
                 (A) (A) (A) (A) (A) (A) (A) (A) (A) (A) (A) (A)
                 (A) (A) (A) (A) (A) (A) (A) (A) (A) (A) (A) (A)
                 (A) (A) (A) (A) (A) (A) (A) (A) (A) (A) (A) (A)
                 (A) (A) (A) (A) (A) (A) (A) (A) (A) (A) (A) (A)
                 (A) (A) (A) (A) (A) (A) (A) (A) (A) (A) (A) (A)
                 (A) (A) (A) (A) (A) (A)
 The electronic state is 1-A.
 Alpha  occ. eigenvalues --  -66.13906 -19.18932 -19.14169 -19.13111 -10.31829
 Alpha  occ. eigenvalues --  -10.26795 -10.24996 -10.19957 -10.19851 -10.19679
 Alpha  occ. eigenvalues --  -10.19615 -10.18542 -10.18459 -10.17908 -10.17268
 Alpha  occ. eigenvalues --  -10.16006 -10.15812 -10.15609  -5.28067  -3.64123
 Alpha  occ. eigenvalues --   -3.63892  -3.63856  -1.09537  -1.01137  -1.00452
 Alpha  occ. eigenvalues --   -0.82647  -0.80126  -0.77373  -0.75570  -0.71220
 Alpha  occ. eigenvalues --   -0.70325  -0.69310  -0.67742  -0.67378  -0.63834
 Alpha  occ. eigenvalues --   -0.61552  -0.60016  -0.55848  -0.52303  -0.51894
 Alpha  occ. eigenvalues --   -0.49767  -0.49186  -0.47398  -0.46394  -0.44893
 Alpha  occ. eigenvalues --   -0.43998  -0.43519  -0.43089  -0.41764  -0.41440
 Alpha  occ. eigenvalues --   -0.40849  -0.40657  -0.40261  -0.40175  -0.39206
 Alpha  occ. eigenvalues --   -0.38934  -0.38537  -0.38058  -0.37807  -0.37334
 Alpha  occ. eigenvalues --   -0.36314  -0.36181  -0.35996  -0.34634  -0.34018
 Alpha  occ. eigenvalues --   -0.33383  -0.32894  -0.31778  -0.29969  -0.28898
 Alpha  occ. eigenvalues --   -0.28325  -0.27772  -0.26497  -0.25210
 Alpha virt. eigenvalues --   -0.00446   0.01518   0.06403   0.06751   0.08949
 Alpha virt. eigenvalues --    0.09168   0.09641   0.10198   0.10509   0.11661
 Alpha virt. eigenvalues --    0.12370   0.12911   0.13484   0.14117   0.14324
 Alpha virt. eigenvalues --    0.14997   0.15177   0.15903   0.16377   0.16691
 Alpha virt. eigenvalues --    0.17176   0.17525   0.18009   0.18210   0.18915
 Alpha virt. eigenvalues --    0.19223   0.19703   0.20288   0.21053   0.21629
 Alpha virt. eigenvalues --    0.22325   0.22966   0.23043   0.23835   0.24261
 Alpha virt. eigenvalues --    0.24591   0.25483   0.26702   0.27264   0.27412
 Alpha virt. eigenvalues --    0.30623   0.31039   0.33683   0.35347   0.36250
 Alpha virt. eigenvalues --    0.37502   0.37709   0.39129   0.40826   0.42675
 Alpha virt. eigenvalues --    0.46655   0.47415   0.48978   0.49745   0.50239
 Alpha virt. eigenvalues --    0.52278   0.52701   0.54396   0.55146   0.55385
 Alpha virt. eigenvalues --    0.56000   0.57028   0.58747   0.60199   0.61189
 Alpha virt. eigenvalues --    0.62641   0.63151   0.63747   0.64490   0.64696
 Alpha virt. eigenvalues --    0.65726   0.65862   0.66793   0.67407   0.68759
 Alpha virt. eigenvalues --    0.69714   0.70485   0.71637   0.72340   0.72856
 Alpha virt. eigenvalues --    0.74774   0.75181   0.75732   0.76447   0.77234
 Alpha virt. eigenvalues --    0.78676   0.80706   0.81493   0.82014   0.83199
 Alpha virt. eigenvalues --    0.83909   0.84161   0.84793   0.85360   0.85720
 Alpha virt. eigenvalues --    0.86769   0.87170   0.87515   0.88015   0.88876
 Alpha virt. eigenvalues --    0.89848   0.90008   0.90396   0.90995   0.91531
 Alpha virt. eigenvalues --    0.91840   0.92284   0.92536   0.92797   0.94036
 Alpha virt. eigenvalues --    0.94278   0.94666   0.95797   0.96953   0.97639
 Alpha virt. eigenvalues --    0.98249   0.99598   0.99976   1.00748   1.01326
 Alpha virt. eigenvalues --    1.01985   1.03198   1.05411   1.06136   1.07727
 Alpha virt. eigenvalues --    1.08500   1.10000   1.11275   1.13133   1.15715
 Alpha virt. eigenvalues --    1.17753   1.19784   1.21900   1.24016   1.26233
 Alpha virt. eigenvalues --    1.27010   1.29733   1.31716   1.34084   1.34925
 Alpha virt. eigenvalues --    1.37543   1.38706   1.39260   1.40373   1.41169
 Alpha virt. eigenvalues --    1.43247   1.44267   1.45868   1.47286   1.48498
 Alpha virt. eigenvalues --    1.49041   1.49851   1.54049   1.55290   1.55673
 Alpha virt. eigenvalues --    1.60582   1.61891   1.62322   1.63364   1.63455
 Alpha virt. eigenvalues --    1.65301   1.65681   1.69940   1.70669   1.73524
 Alpha virt. eigenvalues --    1.74683   1.75327   1.76365   1.77327   1.79150
 Alpha virt. eigenvalues --    1.80092   1.82324   1.82960   1.84370   1.85887
 Alpha virt. eigenvalues --    1.86537   1.87880   1.89932   1.90437   1.91260
 Alpha virt. eigenvalues --    1.92383   1.93920   1.95231   1.95258   1.97966
 Alpha virt. eigenvalues --    1.98550   1.99223   2.01883   2.02784   2.03105
 Alpha virt. eigenvalues --    2.03614   2.04695   2.04805   2.05244   2.05506
 Alpha virt. eigenvalues --    2.05735   2.06166   2.06599   2.07994   2.08791
 Alpha virt. eigenvalues --    2.09431   2.10377   2.10920   2.11643   2.11893
 Alpha virt. eigenvalues --    2.12764   2.13282   2.13640   2.14649   2.15017
 Alpha virt. eigenvalues --    2.16198   2.16661   2.16782   2.17906   2.19772
 Alpha virt. eigenvalues --    2.21096   2.22200   2.23427   2.27289   2.28069
 Alpha virt. eigenvalues --    2.28450   2.29911   2.30925   2.31741   2.32845
 Alpha virt. eigenvalues --    2.33829   2.34544   2.35271   2.36090   2.37466
 Alpha virt. eigenvalues --    2.38721   2.39176   2.40566   2.42030   2.42532
 Alpha virt. eigenvalues --    2.43797   2.45627   2.47541   2.49488   2.50124
 Alpha virt. eigenvalues --    2.51804   2.53277   2.54159   2.56595   2.58220
 Alpha virt. eigenvalues --    2.60091   2.61606   2.61849   2.63001   2.64225
 Alpha virt. eigenvalues --    2.65357   2.65686   2.68195   2.69167   2.69565
 Alpha virt. eigenvalues --    2.70630   2.73350   2.74289   2.74565   2.76290
 Alpha virt. eigenvalues --    2.76470   2.78422   2.80435   2.80648   2.81451
 Alpha virt. eigenvalues --    2.81736   2.82651   2.84243   2.84482   2.84998
 Alpha virt. eigenvalues --    2.85209   2.85569   2.85950   2.87625   2.88605
 Alpha virt. eigenvalues --    2.89986   2.90398   2.91016   2.93256   2.97377
 Alpha virt. eigenvalues --    2.99671   3.00152   3.04410   3.09527   3.11038
 Alpha virt. eigenvalues --    3.15709   3.16924   3.19857   3.20692   3.20878
 Alpha virt. eigenvalues --    3.21912   3.22707   3.25825   3.31565   3.33470
 Alpha virt. eigenvalues --    3.35214   3.35987   3.39477   3.43313   3.43616
 Alpha virt. eigenvalues --    3.44234   3.44461   3.45110   3.45327   3.46012
 Alpha virt. eigenvalues --    3.46374   3.46649   3.48967   3.49496   3.51642
 Alpha virt. eigenvalues --    3.54230   3.57984   3.65959   3.99532   4.09063
 Alpha virt. eigenvalues --    4.20710   4.27466   4.31426   4.39414   4.45252
 Alpha virt. eigenvalues --    4.46798   4.47709   4.51535   4.53845   4.61119
 Alpha virt. eigenvalues --    4.63070   4.65913   4.71696   4.80912   4.91004
          Condensed to atoms (all electrons):
               1          2          3          4          5          6
     1  C    4.794681   0.361253  -0.022010  -0.004969  -0.013073   0.392807
     2  C    0.361253   5.056567   0.358031  -0.067376  -0.009649  -0.040415
     3  C   -0.022010   0.358031   4.804371   0.290761  -0.013485   0.005218
     4  C   -0.004969  -0.067376   0.290761   5.326274   0.303244  -0.000601
     5  C   -0.013073  -0.009649  -0.013485   0.303244   4.355705   0.002351
     6  H    0.392807  -0.040415   0.005218  -0.000601   0.002351   0.628277
     7  H   -0.044724   0.369596  -0.043432   0.001351   0.001513  -0.008478
     8  H    0.000319  -0.000711  -0.020730   0.364599  -0.024833   0.000005
     9  H   -0.000035   0.004544  -0.034356   0.353788  -0.020450   0.000024
    10  O    0.172149  -0.032703  -0.001934  -0.097607   0.252719  -0.037441
    11  O    0.002595  -0.000675   0.002800  -0.087165   0.576434  -0.000057
    12  C    0.359414  -0.043977  -0.012334  -0.000148  -0.006167  -0.057903
    13  C   -0.040358   0.004892   0.000021  -0.000098   0.000341  -0.008233
    14  C   -0.041173   0.352517  -0.036694   0.004748   0.000296  -0.003756
    15  O   -0.005007  -0.052073   0.170104  -0.036894   0.000401  -0.000118
    16  Si  -0.000350  -0.001047  -0.013534  -0.005301   0.000202   0.000004
    17  C    0.000003   0.000003   0.001011  -0.000117  -0.000002   0.000000
    18  C    0.000000   0.000003  -0.001421  -0.000169  -0.000001   0.000000
    19  C   -0.000002  -0.000088  -0.001385   0.000274   0.000138   0.000000
    20  H    0.000000   0.000001   0.000024   0.000003   0.000000   0.000000
    21  H    0.000000   0.000008  -0.000009   0.000004   0.000000   0.000000
    22  H    0.000000   0.000008  -0.000188  -0.000024   0.000000   0.000000
    23  H    0.000001  -0.000007  -0.000363  -0.000290   0.000008   0.000000
    24  H    0.000000   0.000001   0.000016   0.000075  -0.000002   0.000000
    25  H    0.000000  -0.000003   0.000529  -0.000514  -0.000017   0.000000
    26  H    0.000001  -0.000002  -0.000044  -0.000018   0.000000   0.000000
    27  H    0.000000   0.000003  -0.000023   0.000003   0.000000   0.000000
    28  H    0.000000   0.000000  -0.000013   0.000002   0.000000   0.000000
    29  H    0.004032  -0.026112  -0.003902   0.000002  -0.000017  -0.000141
    30  H   -0.006338  -0.029040  -0.008359   0.000203   0.000001  -0.000347
    31  H   -0.004366  -0.030724   0.004621  -0.000131   0.000007   0.005010
    32  H   -0.029224  -0.005181   0.001776  -0.002311   0.001201   0.005718
    33  H   -0.027644  -0.003322  -0.000117   0.000070   0.000132  -0.000738
    34  H    0.003997  -0.000138  -0.000001   0.000014  -0.000027   0.000009
    35  H   -0.007817   0.000127  -0.000014   0.000056   0.000545  -0.000141
    36  H   -0.004864   0.000029   0.000004   0.000000  -0.000014   0.006282
    37  C    0.003656  -0.054361   0.357545  -0.050634  -0.001579  -0.000201
    38  C    0.000073  -0.003807  -0.036962  -0.002900   0.002425   0.000007
    39  C   -0.000022   0.000107  -0.003084   0.000660   0.001347   0.000001
    40  H    0.000062  -0.008710  -0.030639   0.005659  -0.000076   0.000000
    41  H   -0.000130   0.004820  -0.024947  -0.009668   0.000169   0.000002
    42  H   -0.000017  -0.000076  -0.001809  -0.000405   0.000044   0.000007
    43  H    0.000000   0.000004   0.000005  -0.000033   0.000008   0.000000
    44  H    0.000000   0.000014   0.000072  -0.000302  -0.000016   0.000000
               7          8          9         10         11         12
     1  C   -0.044724   0.000319  -0.000035   0.172149   0.002595   0.359414
     2  C    0.369596  -0.000711   0.004544  -0.032703  -0.000675  -0.043977
     3  C   -0.043432  -0.020730  -0.034356  -0.001934   0.002800  -0.012334
     4  C    0.001351   0.364599   0.353788  -0.097607  -0.087165  -0.000148
     5  C    0.001513  -0.024833  -0.020450   0.252719   0.576434  -0.006167
     6  H   -0.008478   0.000005   0.000024  -0.037441  -0.000057  -0.057903
     7  H    0.641820   0.000000  -0.000157   0.000700  -0.000401   0.006542
     8  H    0.000000   0.543520  -0.024599   0.000070   0.000324  -0.000804
     9  H   -0.000157  -0.024599   0.573741   0.003495   0.002583   0.000037
    10  O    0.000700   0.000070   0.003495   8.327577  -0.074557  -0.042598
    11  O   -0.000401   0.000324   0.002583  -0.074557   8.087250  -0.000149
    12  C    0.006542  -0.000804   0.000037  -0.042598  -0.000149   4.961771
    13  C   -0.000158   0.000105  -0.000005  -0.003200   0.000003   0.352746
    14  C   -0.035346  -0.000132  -0.000094   0.002886  -0.000002  -0.002490
    15  O    0.003677  -0.007418   0.002273   0.000002  -0.000017   0.004920
    16  Si   0.000172   0.001144  -0.000130  -0.000044  -0.000043   0.000665
    17  C    0.000000  -0.000211   0.000005   0.000000   0.000000  -0.000065
    18  C    0.000000   0.000000   0.000012   0.000000   0.000000   0.000001
    19  C    0.000001   0.000138  -0.000648   0.000000   0.000000   0.000008
    20  H    0.000000   0.000000   0.000000   0.000000   0.000000   0.000000
    21  H    0.000000   0.000000   0.000000   0.000000   0.000000   0.000000
    22  H    0.000000  -0.000003   0.000003   0.000000   0.000000   0.000000
    23  H    0.000000   0.001829   0.000246   0.000000   0.000001  -0.000003
    24  H    0.000000   0.000019   0.000055   0.000000   0.000000   0.000000
    25  H    0.000000  -0.000315   0.001516   0.000000  -0.000001   0.000000
    26  H    0.000000  -0.000023   0.000000   0.000000   0.000000  -0.000006
    27  H    0.000000   0.000001   0.000000   0.000000   0.000000  -0.000001
    28  H    0.000000   0.000005   0.000000   0.000000   0.000000   0.000001
    29  H   -0.004427   0.000001  -0.000002  -0.000064   0.000000   0.000090
    30  H    0.005272  -0.000004  -0.000003   0.000001   0.000000   0.001962
    31  H   -0.004351   0.000003   0.000002   0.000027   0.000000  -0.000548
    32  H   -0.000088   0.002596   0.000166  -0.002716  -0.000031   0.383478
    33  H   -0.000024   0.000013  -0.000002   0.002954   0.000001   0.375642
    34  H    0.000003  -0.000010   0.000000   0.000099   0.000000  -0.028887
    35  H   -0.000002   0.000039  -0.000001   0.007589  -0.000041  -0.033035
    36  H   -0.000006  -0.000001   0.000000  -0.000271   0.000000  -0.036495
    37  C   -0.007959   0.003252  -0.008098   0.000197  -0.000051   0.000207
    38  C    0.005090   0.000236   0.001061  -0.000131  -0.000463  -0.000007
    39  C    0.000261   0.000036   0.003495  -0.000007  -0.000136   0.000000
    40  H    0.000222  -0.000131   0.000335   0.000001  -0.000001  -0.000005
    41  H    0.000250   0.000071   0.003197  -0.000002   0.000002  -0.000002
    42  H    0.002530  -0.000003   0.000070  -0.000012   0.000001  -0.000001
    43  H    0.000011   0.000000   0.000008   0.000000  -0.000011   0.000000
    44  H    0.000010  -0.000002   0.001152   0.000000  -0.000022   0.000000
              13         14         15         16         17         18
     1  C   -0.040358  -0.041173  -0.005007  -0.000350   0.000003   0.000000
     2  C    0.004892   0.352517  -0.052073  -0.001047   0.000003   0.000003
     3  C    0.000021  -0.036694   0.170104  -0.013534   0.001011  -0.001421
     4  C   -0.000098   0.004748  -0.036894  -0.005301  -0.000117  -0.000169
     5  C    0.000341   0.000296   0.000401   0.000202  -0.000002  -0.000001
     6  H   -0.008233  -0.003756  -0.000118   0.000004   0.000000   0.000000
     7  H   -0.000158  -0.035346   0.003677   0.000172   0.000000   0.000000
     8  H    0.000105  -0.000132  -0.007418   0.001144  -0.000211   0.000000
     9  H   -0.000005  -0.000094   0.002273  -0.000130   0.000005   0.000012
    10  O   -0.003200   0.002886   0.000002  -0.000044   0.000000   0.000000
    11  O    0.000003  -0.000002  -0.000017  -0.000043   0.000000   0.000000
    12  C    0.352746  -0.002490   0.004920   0.000665  -0.000065   0.000001
    13  C    4.950756   0.000008   0.000187   0.000000   0.000000   0.000000
    14  C    0.000008   4.946899  -0.004664   0.001194  -0.000025  -0.000071
    15  O    0.000187  -0.004664   8.315041   0.327013  -0.019219  -0.017681
    16  Si   0.000000   0.001194   0.327013  11.847892   0.378123   0.371482
    17  C    0.000000  -0.000025  -0.019219   0.378123   5.118176  -0.033897
    18  C    0.000000  -0.000071  -0.017681   0.371482  -0.033897   5.139844
    19  C    0.000000   0.000005  -0.014347   0.367825  -0.031227  -0.034276
    20  H    0.000000   0.000001   0.000596  -0.013567  -0.000659   0.368572
    21  H    0.000000   0.000012  -0.000596  -0.025308  -0.001155   0.378763
    22  H    0.000000  -0.000011  -0.000588  -0.026540   0.001418   0.375181
    23  H    0.000000   0.000000  -0.000388  -0.027084  -0.001121   0.001324
    24  H    0.000000   0.000000   0.000496  -0.014324  -0.000823  -0.000614
    25  H    0.000000   0.000000  -0.000469  -0.028389   0.001471  -0.001527
    26  H   -0.000002   0.000001  -0.000448  -0.024985   0.375150   0.001365
    27  H    0.000000  -0.000006  -0.000422  -0.024332   0.376412  -0.001364
    28  H    0.000000   0.000000   0.000493  -0.014626   0.372995  -0.000440
    29  H    0.000001   0.377577  -0.000558   0.000131  -0.000001   0.000009
    30  H   -0.000080   0.387723   0.006122   0.001707  -0.000029  -0.000041
    31  H   -0.000045   0.374648   0.000448  -0.000052   0.000000   0.000000
    32  H   -0.043256  -0.000052   0.001926   0.001756  -0.000024   0.000003
    33  H   -0.038755   0.000897  -0.000299   0.000225   0.000006   0.000000
    34  H    0.381432  -0.000001   0.000000  -0.000002   0.000000   0.000000
    35  H    0.387454  -0.000008   0.000000   0.000002   0.000000   0.000000
    36  H    0.383688  -0.000010  -0.000002   0.000003   0.000000   0.000000
    37  C    0.000003  -0.004831  -0.031336   0.003287  -0.000055  -0.001040
    38  C    0.000000  -0.000061   0.002589  -0.000477   0.000000   0.000091
    39  C    0.000000  -0.000002  -0.000013  -0.000077   0.000000   0.000002
    40  H    0.000000   0.001466  -0.000840   0.000804  -0.000005  -0.000255
    41  H    0.000000   0.000011  -0.002608   0.009128   0.000002  -0.002189
    42  H    0.000000   0.000215  -0.000034   0.000073   0.000000  -0.000002
    43  H    0.000000   0.000000   0.000000   0.000003   0.000000   0.000000
    44  H    0.000000   0.000000  -0.000005  -0.000106   0.000000   0.000000
              19         20         21         22         23         24
     1  C   -0.000002   0.000000   0.000000   0.000000   0.000001   0.000000
     2  C   -0.000088   0.000001   0.000008   0.000008  -0.000007   0.000001
     3  C   -0.001385   0.000024  -0.000009  -0.000188  -0.000363   0.000016
     4  C    0.000274   0.000003   0.000004  -0.000024  -0.000290   0.000075
     5  C    0.000138   0.000000   0.000000   0.000000   0.000008  -0.000002
     6  H    0.000000   0.000000   0.000000   0.000000   0.000000   0.000000
     7  H    0.000001   0.000000   0.000000   0.000000   0.000000   0.000000
     8  H    0.000138   0.000000   0.000000  -0.000003   0.001829   0.000019
     9  H   -0.000648   0.000000   0.000000   0.000003   0.000246   0.000055
    10  O    0.000000   0.000000   0.000000   0.000000   0.000000   0.000000
    11  O    0.000000   0.000000   0.000000   0.000000   0.000001   0.000000
    12  C    0.000008   0.000000   0.000000   0.000000  -0.000003   0.000000
    13  C    0.000000   0.000000   0.000000   0.000000   0.000000   0.000000
    14  C    0.000005   0.000001   0.000012  -0.000011   0.000000   0.000000
    15  O   -0.014347   0.000596  -0.000596  -0.000588  -0.000388   0.000496
    16  Si   0.367825  -0.013567  -0.025308  -0.026540  -0.027084  -0.014324
    17  C   -0.031227  -0.000659  -0.001155   0.001418  -0.001121  -0.000823
    18  C   -0.034276   0.368572   0.378763   0.375181   0.001324  -0.000614
    19  C    5.150567  -0.000271   0.001311  -0.001611   0.376967   0.372103
    20  H   -0.000271   0.574570  -0.023801  -0.023685   0.000006   0.000107
    21  H    0.001311  -0.023801   0.574777  -0.022720  -0.000024   0.000016
    22  H   -0.001611  -0.023685  -0.022720   0.583392   0.000005  -0.000010
    23  H    0.376967   0.000006  -0.000024   0.000005   0.574609  -0.022600
    24  H    0.372103   0.000107   0.000016  -0.000010  -0.022600   0.562485
    25  H    0.374870  -0.000001   0.000006   0.000486  -0.022994  -0.022322
    26  H   -0.001316   0.000016   0.000005  -0.000027   0.000693  -0.000033
    27  H    0.001389  -0.000045   0.000584   0.000007   0.000006   0.000010
    28  H   -0.000734  -0.000004  -0.000030   0.000003  -0.000064   0.000095
    29  H    0.000000   0.000000   0.000056  -0.000014   0.000000   0.000000
    30  H    0.000003   0.000000   0.000007  -0.000001   0.000000   0.000000
    31  H    0.000000   0.000000   0.000000   0.000000   0.000000   0.000000
    32  H   -0.000088   0.000000   0.000000   0.000000  -0.000030   0.000001
    33  H    0.000000   0.000000   0.000000   0.000000   0.000000   0.000000
    34  H    0.000000   0.000000   0.000000   0.000000   0.000000   0.000000
    35  H    0.000000   0.000000   0.000000   0.000000   0.000000   0.000000
    36  H    0.000000   0.000000   0.000000   0.000000   0.000000   0.000000
    37  C   -0.002558   0.000041  -0.000067   0.000014   0.000148   0.000039
    38  C    0.000015  -0.000001  -0.000003  -0.000027   0.000003   0.000000
    39  C   -0.000008   0.000000   0.000000  -0.000004   0.000000   0.000000
    40  H    0.000098   0.000029   0.000241   0.001031  -0.000002  -0.000001
    41  H   -0.000710   0.000048   0.000032   0.001195  -0.000052  -0.000010
    42  H   -0.000001   0.000000   0.000000   0.000001   0.000000   0.000000
    43  H    0.000000   0.000000   0.000000   0.000000   0.000000   0.000000
    44  H   -0.000013   0.000000   0.000000  -0.000001   0.000001   0.000000
              25         26         27         28         29         30
     1  C    0.000000   0.000001   0.000000   0.000000   0.004032  -0.006338
     2  C   -0.000003  -0.000002   0.000003   0.000000  -0.026112  -0.029040
     3  C    0.000529  -0.000044  -0.000023  -0.000013  -0.003902  -0.008359
     4  C   -0.000514  -0.000018   0.000003   0.000002   0.000002   0.000203
     5  C   -0.000017   0.000000   0.000000   0.000000  -0.000017   0.000001
     6  H    0.000000   0.000000   0.000000   0.000000  -0.000141  -0.000347
     7  H    0.000000   0.000000   0.000000   0.000000  -0.004427   0.005272
     8  H   -0.000315  -0.000023   0.000001   0.000005   0.000001  -0.000004
     9  H    0.001516   0.000000   0.000000   0.000000  -0.000002  -0.000003
    10  O    0.000000   0.000000   0.000000   0.000000  -0.000064   0.000001
    11  O   -0.000001   0.000000   0.000000   0.000000   0.000000   0.000000
    12  C    0.000000  -0.000006  -0.000001   0.000001   0.000090   0.001962
    13  C    0.000000  -0.000002   0.000000   0.000000   0.000001  -0.000080
    14  C    0.000000   0.000001  -0.000006   0.000000   0.377577   0.387723
    15  O   -0.000469  -0.000448  -0.000422   0.000493  -0.000558   0.006122
    16  Si  -0.028389  -0.024985  -0.024332  -0.014626   0.000131   0.001707
    17  C    0.001471   0.375150   0.376412   0.372995  -0.000001  -0.000029
    18  C   -0.001527   0.001365  -0.001364  -0.000440   0.000009  -0.000041
    19  C    0.374870  -0.001316   0.001389  -0.000734   0.000000   0.000003
    20  H   -0.000001   0.000016  -0.000045  -0.000004   0.000000   0.000000
    21  H    0.000006   0.000005   0.000584  -0.000030   0.000056   0.000007
    22  H    0.000486  -0.000027   0.000007   0.000003  -0.000014  -0.000001
    23  H   -0.022994   0.000693   0.000006  -0.000064   0.000000   0.000000
    24  H   -0.022322  -0.000033   0.000010   0.000095   0.000000   0.000000
    25  H    0.578932   0.000000  -0.000027   0.000003   0.000000   0.000000
    26  H    0.000000   0.578518  -0.022111  -0.023429   0.000000  -0.000004
    27  H   -0.000027  -0.022111   0.574772  -0.023719  -0.000001   0.000038
    28  H    0.000003  -0.023429  -0.023719   0.567448   0.000000   0.000000
    29  H    0.000000   0.000000  -0.000001   0.000000   0.597258  -0.027940
    30  H    0.000000  -0.000004   0.000038   0.000000  -0.027940   0.567189
    31  H    0.000000   0.000000   0.000000   0.000000  -0.030369  -0.032694
    32  H    0.000001   0.000315  -0.000012   0.000001  -0.000017   0.000056
    33  H    0.000000  -0.000001   0.000008   0.000000  -0.000027   0.002857
    34  H    0.000000   0.000001   0.000000   0.000000   0.000000   0.000007
    35  H    0.000000   0.000000   0.000000   0.000000   0.000000   0.000001
    36  H    0.000000   0.000000   0.000000   0.000000   0.000000   0.000002
    37  C   -0.001114   0.000002  -0.000003   0.000002   0.001568  -0.000032
    38  C   -0.000007   0.000000   0.000000   0.000000   0.000025  -0.000007
    39  C   -0.000011   0.000000   0.000000   0.000000  -0.000001   0.000000
    40  H   -0.000014   0.000000  -0.000001   0.000000   0.003344   0.000128
    41  H    0.002889   0.000000   0.000001   0.000001  -0.000088  -0.000008
    42  H    0.000001   0.000000   0.000000   0.000000   0.000162  -0.000006
    43  H   -0.000001   0.000000   0.000000   0.000000   0.000000   0.000000
    44  H    0.000179   0.000000   0.000000   0.000000   0.000000   0.000000
              31         32         33         34         35         36
     1  C   -0.004366  -0.029224  -0.027644   0.003997  -0.007817  -0.004864
     2  C   -0.030724  -0.005181  -0.003322  -0.000138   0.000127   0.000029
     3  C    0.004621   0.001776  -0.000117  -0.000001  -0.000014   0.000004
     4  C   -0.000131  -0.002311   0.000070   0.000014   0.000056   0.000000
     5  C    0.000007   0.001201   0.000132  -0.000027   0.000545  -0.000014
     6  H    0.005010   0.005718  -0.000738   0.000009  -0.000141   0.006282
     7  H   -0.004351  -0.000088  -0.000024   0.000003  -0.000002  -0.000006
     8  H    0.000003   0.002596   0.000013  -0.000010   0.000039  -0.000001
     9  H    0.000002   0.000166  -0.000002   0.000000  -0.000001   0.000000
    10  O    0.000027  -0.002716   0.002954   0.000099   0.007589  -0.000271
    11  O    0.000000  -0.000031   0.000001   0.000000  -0.000041   0.000000
    12  C   -0.000548   0.383478   0.375642  -0.028887  -0.033035  -0.036495
    13  C   -0.000045  -0.043256  -0.038755   0.381432   0.387454   0.383688
    14  C    0.374648  -0.000052   0.000897  -0.000001  -0.000008  -0.000010
[...]
    13  C    0.000000   0.000000   0.000000   0.000000   0.000000   0.000000
    14  C    0.000005   0.000001   0.000019  -0.000010   0.000000   0.000000
    15  O   -0.015550   0.000555  -0.000623  -0.000563  -0.000514   0.000526
    16  Si   0.365720  -0.013806  -0.024129  -0.024243  -0.025018  -0.014553
    17  C   -0.027623  -0.000522  -0.001122   0.001214  -0.001101  -0.000603
    18  C   -0.032219   0.367478   0.378677   0.376737   0.001183  -0.000441
    19  C    5.148009  -0.000266   0.001185  -0.001349   0.377685   0.369335
    20  H   -0.000266   0.575462  -0.024291  -0.024004   0.000003   0.000104
    21  H    0.001185  -0.024291   0.572587  -0.023288  -0.000020   0.000010
    22  H   -0.001349  -0.024004  -0.023288   0.575923   0.000004  -0.000029
    23  H    0.377685   0.000003  -0.000020   0.000004   0.571568  -0.023400
    24  H    0.369335   0.000104   0.000010  -0.000029  -0.023400   0.568988
    25  H    0.376360  -0.000017   0.000003   0.000390  -0.023369  -0.023341
    26  H   -0.001348   0.000011   0.000002  -0.000021   0.000534  -0.000029
    27  H    0.001183  -0.000023   0.000457   0.000005   0.000000   0.000007
    28  H   -0.000427   0.000013  -0.000040   0.000002  -0.000056   0.000067
    29  H    0.000000   0.000000   0.000078  -0.000011   0.000000   0.000000
    30  H    0.000004   0.000000   0.000006   0.000000   0.000000   0.000000
    31  H    0.000000   0.000000   0.000000   0.000000   0.000000   0.000000
    32  H   -0.000066   0.000000   0.000000   0.000000  -0.000020   0.000001
    33  H    0.000000   0.000000   0.000000   0.000000   0.000000   0.000000
    34  H    0.000000   0.000000   0.000000   0.000000   0.000000   0.000000
    35  H    0.000000   0.000000   0.000000   0.000000   0.000000   0.000000
    36  H    0.000000   0.000000   0.000000   0.000000   0.000000   0.000000
    37  C   -0.002143   0.000043  -0.000091   0.000084   0.000118   0.000036
    38  C    0.000006  -0.000001  -0.000003  -0.000023   0.000002   0.000000
    39  C   -0.000007   0.000000   0.000000  -0.000001   0.000000   0.000000
    40  H    0.000068   0.000027   0.000269   0.000705  -0.000001  -0.000001
    41  H   -0.000301   0.000047   0.000041   0.000847  -0.000045  -0.000017
    42  H   -0.000001   0.000000   0.000000   0.000000   0.000000   0.000000
    43  H    0.000000   0.000000   0.000000   0.000000   0.000000   0.000000
    44  H   -0.000008   0.000000   0.000000   0.000000   0.000001   0.000000
              25         26         27         28         29         30
     1  C    0.000000   0.000001   0.000000   0.000000   0.004077  -0.006358
     2  C   -0.000003  -0.000001   0.000005   0.000000  -0.025700  -0.029654
     3  C    0.000271  -0.000049  -0.000026  -0.000015  -0.003595  -0.009021
     4  C    0.000001  -0.000014   0.000003   0.000001  -0.000010   0.000214
     5  C   -0.000007   0.000000   0.000000   0.000000  -0.000018   0.000001
     6  H    0.000000   0.000000   0.000000   0.000000  -0.000124  -0.000315
     7  H    0.000000   0.000000   0.000000   0.000000  -0.004934   0.005265
     8  H   -0.000165  -0.000021   0.000001   0.000005   0.000001  -0.000002
     9  H    0.000799   0.000000   0.000000   0.000000  -0.000001  -0.000003
    10  O    0.000000   0.000000   0.000000   0.000000  -0.000060  -0.000004
    11  O    0.000000   0.000000   0.000000   0.000000   0.000000   0.000000
    12  C    0.000000  -0.000006   0.000001   0.000001   0.000083   0.001917
    13  C    0.000000  -0.000002   0.000000   0.000000   0.000001  -0.000053
    14  C    0.000000   0.000001  -0.000016   0.000000   0.377732   0.387669
    15  O   -0.000528  -0.000551  -0.000594   0.000674  -0.000645   0.006755
    16  Si  -0.025506  -0.023040  -0.023512  -0.015075   0.000168   0.001905
    17  C    0.001200   0.376487   0.377522   0.368082  -0.000003  -0.000021
    18  C   -0.001222   0.001196  -0.001270  -0.000194   0.000004  -0.000056
    19  C    0.376360  -0.001348   0.001183  -0.000427   0.000000   0.000004
    20  H   -0.000017   0.000011  -0.000023   0.000013   0.000000   0.000000
    21  H    0.000003   0.000002   0.000457  -0.000040   0.000078   0.000006
    22  H    0.000390  -0.000021   0.000005   0.000002  -0.000011   0.000000
    23  H   -0.023369   0.000534   0.000000  -0.000056   0.000000   0.000000
    24  H   -0.023341  -0.000029   0.000007   0.000067   0.000000   0.000000
    25  H    0.573849   0.000004  -0.000021  -0.000001   0.000000   0.000000
    26  H    0.000004   0.572933  -0.022514  -0.024051   0.000000  -0.000008
    27  H   -0.000021  -0.022514   0.571254  -0.024134  -0.000003   0.000179
    28  H   -0.000001  -0.024051  -0.024134   0.576647   0.000000   0.000000
    29  H    0.000000   0.000000  -0.000003   0.000000   0.597386  -0.028691
    30  H    0.000000  -0.000008   0.000179   0.000000  -0.028691   0.565471
    31  H    0.000000   0.000000   0.000000   0.000000  -0.030320  -0.031134
    32  H    0.000000   0.000410  -0.000014   0.000002  -0.000019   0.000127
    33  H    0.000000   0.000005   0.000018   0.000000  -0.000025   0.002512
    34  H    0.000000   0.000001   0.000000   0.000000   0.000000   0.000006
    35  H    0.000000   0.000000   0.000000   0.000000   0.000000   0.000001
    36  H    0.000000   0.000000   0.000000   0.000000   0.000000   0.000002
    37  C   -0.000787   0.000003  -0.000006   0.000002   0.001429  -0.000027
    38  C   -0.000003   0.000000   0.000000   0.000000  -0.000002  -0.000009
    39  C   -0.000006   0.000000   0.000000   0.000000  -0.000002   0.000000
    40  H   -0.000005   0.000000  -0.000001   0.000000   0.003457   0.000140
    41  H    0.002157   0.000000   0.000001   0.000001  -0.000078  -0.000010
    42  H    0.000001   0.000000   0.000000   0.000000   0.000126  -0.000005
    43  H    0.000000   0.000000   0.000000   0.000000   0.000000   0.000000
    44  H    0.000125   0.000000   0.000000   0.000000   0.000000   0.000000
              31         32         33         34         35         36
     1  C   -0.004255  -0.031114  -0.029758   0.003782  -0.007769  -0.004321
     2  C   -0.031449  -0.005813  -0.003264  -0.000127   0.000125   0.000021
     3  C    0.004672   0.002312  -0.000173   0.000000  -0.000014   0.000004
     4  C   -0.000133  -0.002784   0.000108   0.000011   0.000085  -0.000002
     5  C    0.000004   0.001517   0.000102  -0.000026   0.000717  -0.000010
     6  H    0.004937   0.005860  -0.001809  -0.000005  -0.000171   0.005762
     7  H   -0.003826  -0.000071  -0.000052   0.000003  -0.000003  -0.000004
     8  H    0.000003   0.002922  -0.000007  -0.000009   0.000010  -0.000001
     9  H    0.000002   0.000131  -0.000002   0.000000  -0.000001   0.000000
    10  O    0.000028  -0.002570   0.003143   0.000118   0.007631  -0.000273
    11  O    0.000000  -0.000042   0.000001   0.000000  -0.000060   0.000000
    12  C   -0.000670   0.381813   0.373083  -0.028031  -0.033127  -0.035083
    13  C   -0.000046  -0.038342  -0.036249   0.381358   0.387833   0.384570
    14  C    0.375266  -0.000191   0.001404  -0.000001  -0.000007  -0.000012
    15  O    0.000401   0.003257  -0.000243   0.000000   0.000000  -0.000001
    16  Si  -0.000064   0.001358   0.000118  -0.000002   0.000001   0.000001
    17  C    0.000000   0.000005   0.000011   0.000000   0.000000   0.000000
    18  C    0.000000   0.000003   0.000000   0.000000   0.000000   0.000000
    19  C    0.000000  -0.000066   0.000000   0.000000   0.000000   0.000000
    20  H    0.000000   0.000000   0.000000   0.000000   0.000000   0.000000
    21  H    0.000000   0.000000   0.000000   0.000000   0.000000   0.000000
    22  H    0.000000   0.000000   0.000000   0.000000   0.000000   0.000000
    23  H    0.000000  -0.000020   0.000000   0.000000   0.000000   0.000000
    24  H    0.000000   0.000001   0.000000   0.000000   0.000000   0.000000
    25  H    0.000000   0.000000   0.000000   0.000000   0.000000   0.000000
    26  H    0.000000   0.000410   0.000005   0.000001   0.000000   0.000000
    27  H    0.000000  -0.000014   0.000018   0.000000   0.000000   0.000000
    28  H    0.000000   0.000002   0.000000   0.000000   0.000000   0.000000
    29  H   -0.030320  -0.000019  -0.000025   0.000000   0.000000   0.000000
    30  H   -0.031134   0.000127   0.002512   0.000006   0.000001   0.000002
    31  H    0.610799   0.000048   0.000398   0.000000   0.000000   0.000004
    32  H    0.000048   0.602176  -0.032828  -0.002952  -0.003979   0.004940
    33  H    0.000398  -0.032828   0.614258  -0.003276   0.005051  -0.004443
    34  H    0.000000  -0.002952  -0.003276   0.604560  -0.030566  -0.031207
    35  H    0.000000  -0.003979   0.005051  -0.030566   0.585232  -0.031236
    36  H    0.000004   0.004940  -0.004443  -0.031207  -0.031236   0.604345
    37  C   -0.000017   0.000019  -0.000006   0.000000   0.000000   0.000000
    38  C    0.000004  -0.000004   0.000000   0.000000   0.000000   0.000000
    39  C    0.000000   0.000000   0.000000   0.000000   0.000000   0.000000
    40  H   -0.000116  -0.000002  -0.000001   0.000000   0.000000   0.000000
    41  H    0.000003   0.000005   0.000000   0.000000   0.000000   0.000000
    42  H    0.000009   0.000000   0.000000   0.000000   0.000000   0.000000
    43  H    0.000000   0.000000   0.000000   0.000000   0.000000   0.000000
    44  H    0.000000   0.000000   0.000000   0.000000   0.000000   0.000000
              37         38         39         40         41         42
     1  C    0.003949   0.000025  -0.000020   0.000048  -0.000139  -0.000042
     2  C   -0.054715  -0.003074   0.000211  -0.009459   0.004986  -0.000247
     3  C    0.363812  -0.039631  -0.003018  -0.033883  -0.025864  -0.002038
     4  C   -0.051669  -0.004206   0.000328   0.006241  -0.010182  -0.000561
     5  C   -0.001087   0.002151   0.000963  -0.000087   0.000160   0.000119
     6  H   -0.000194   0.000009   0.000001   0.000000   0.000003   0.000011
     7  H   -0.008422   0.004245   0.000194   0.000288   0.000280   0.003297
     8  H    0.003760   0.000326   0.000047  -0.000161   0.000083  -0.000007
     9  H   -0.008308   0.001888   0.004250   0.000363   0.003168   0.000115
    10  O    0.000123  -0.000113  -0.000008   0.000002  -0.000002  -0.000022
    11  O   -0.000040  -0.000340  -0.000151   0.000000   0.000001   0.000001
    12  C    0.000157  -0.000007   0.000000  -0.000003  -0.000002  -0.000002
    13  C    0.000002   0.000000   0.000000   0.000000   0.000000   0.000000
    14  C   -0.005481  -0.000035  -0.000007   0.001856   0.000009   0.000198
    15  O   -0.036402   0.003130  -0.000017  -0.000765  -0.003528  -0.000035
    16  Si   0.002201  -0.000371  -0.000095   0.000996   0.009962   0.000077
    17  C   -0.000059   0.000000   0.000000  -0.000010   0.000006   0.000000
    18  C   -0.000799   0.000063   0.000002  -0.000084  -0.002107  -0.000002
    19  C   -0.002143   0.000006  -0.000007   0.000068  -0.000301  -0.000001
    20  H    0.000043  -0.000001   0.000000   0.000027   0.000047   0.000000
    21  H   -0.000091  -0.000003   0.000000   0.000269   0.000041   0.000000
    22  H    0.000084  -0.000023  -0.000001   0.000705   0.000847   0.000000
    23  H    0.000118   0.000002   0.000000  -0.000001  -0.000045   0.000000
    24  H    0.000036   0.000000   0.000000  -0.000001  -0.000017   0.000000
    25  H   -0.000787  -0.000003  -0.000006  -0.000005   0.002157   0.000001
    26  H    0.000003   0.000000   0.000000   0.000000   0.000000   0.000000
    27  H   -0.000006   0.000000   0.000000  -0.000001   0.000001   0.000000
    28  H    0.000002   0.000000   0.000000   0.000000   0.000001   0.000000
    29  H    0.001429  -0.000002  -0.000002   0.003457  -0.000078   0.000126
    30  H   -0.000027  -0.000009   0.000000   0.000140  -0.000010  -0.000005
    31  H   -0.000017   0.000004   0.000000  -0.000116   0.000003   0.000009
    32  H    0.000019  -0.000004   0.000000  -0.000002   0.000005   0.000000
    33  H   -0.000006   0.000000   0.000000  -0.000001   0.000000   0.000000
    34  H    0.000000   0.000000   0.000000   0.000000   0.000000   0.000000
    35  H    0.000000   0.000000   0.000000   0.000000   0.000000   0.000000
    36  H    0.000000   0.000000   0.000000   0.000000   0.000000   0.000000
    37  C    5.035175   0.357164  -0.037628   0.372531   0.372117  -0.050403
    38  C    0.357164   4.810938   0.663659  -0.031877  -0.038302   0.382434
    39  C   -0.037628   0.663659   4.908436   0.002088  -0.007531  -0.042698
    40  H    0.372531  -0.031877   0.002088   0.604493  -0.036417  -0.003382
    41  H    0.372117  -0.038302  -0.007531  -0.036417   0.605597   0.004858
    42  H   -0.050403   0.382434  -0.042698  -0.003382   0.004858   0.607780
    43  H    0.004397  -0.024061   0.376824  -0.000199   0.000112  -0.008462
    44  H   -0.012204  -0.036286   0.382576   0.000112   0.006460   0.005788
              43         44
     1  C    0.000000   0.000000
     2  C    0.000005   0.000006
     3  C   -0.000010   0.000123
     4  C   -0.000027  -0.000341
     5  C    0.000003   0.000004
     6  H    0.000000   0.000000
     7  H    0.000012   0.000010
     8  H    0.000000  -0.000003
     9  H    0.000001   0.001046
    10  O    0.000000   0.000000
    11  O   -0.000006  -0.000008
    12  C    0.000000   0.000000
    13  C    0.000000   0.000000
    14  C    0.000000   0.000000
    15  O    0.000000  -0.000006
    16  Si   0.000003  -0.000100
    17  C    0.000000   0.000000
    18  C    0.000000   0.000000
    19  C    0.000000  -0.000008
    20  H    0.000000   0.000000
    21  H    0.000000   0.000000
    22  H    0.000000   0.000000
    23  H    0.000000   0.000001
    24  H    0.000000   0.000000
    25  H    0.000000   0.000125
    26  H    0.000000   0.000000
    27  H    0.000000   0.000000
    28  H    0.000000   0.000000
    29  H    0.000000   0.000000
    30  H    0.000000   0.000000
    31  H    0.000000   0.000000
    32  H    0.000000   0.000000
    33  H    0.000000   0.000000
    34  H    0.000000   0.000000
    35  H    0.000000   0.000000
    36  H    0.000000   0.000000
    37  C    0.004397  -0.012204
    38  C   -0.024061  -0.036286
    39  C    0.376824   0.382576
    40  H   -0.000199   0.000112
    41  H    0.000112   0.006460
    42  H   -0.008462   0.005788
    43  H    0.582318  -0.042424
    44  H   -0.042424   0.590823
 Mulliken charges:
               1
     1  C    0.151710
     2  C   -0.101013
     3  C    0.329448
     4  C   -0.295366
     5  C    0.586859
     6  H    0.112202
     7  H    0.109559
     8  H    0.159540
     9  H    0.135887
    10  O   -0.478405
    11  O   -0.503724
    12  C   -0.185976
    13  C   -0.326849
    14  C   -0.323543
    15  O   -0.646128
    16  Si   0.912211
    17  C   -0.533335
    18  C   -0.546444
    19  C   -0.558456
    20  H    0.119169
    21  H    0.120289
    22  H    0.117724
    23  H    0.121171
    24  H    0.123267
    25  H    0.119821
    26  H    0.120069
    27  H    0.121496
    28  H    0.118497
    29  H    0.109698
    30  H    0.133197
    31  H    0.105453
    32  H    0.113904
    33  H    0.111924
    34  H    0.106365
    35  H    0.120246
    36  H    0.106943
    37  C   -0.246632
    38  C   -0.047697
    39  C   -0.248388
    40  H    0.122768
    41  H    0.113623
    42  H    0.103094
    43  H    0.111516
    44  H    0.104307
 Sum of Mulliken charges =   0.00000
 Mulliken charges with hydrogens summed into heavy atoms:
               1
     1  C    0.263913
     2  C    0.008546
     3  C    0.329448
     4  C    0.000061
     5  C    0.586859
    10  O   -0.478405
    11  O   -0.503724
    12  C    0.039852
    13  C    0.006706
    14  C    0.024804
    15  O   -0.646128
    16  Si   0.912211
    17  C   -0.173274
    18  C   -0.189262
    19  C   -0.194197
    37  C   -0.010241
    38  C    0.055397
    39  C   -0.032566
 Electronic spatial extent (au):  <R**2>=           5239.7621
 Charge=              0.0000 electrons
 Dipole moment (field-independent basis, Debye):
    X=             -4.3971    Y=             -1.7371    Z=              2.8677  Tot=              5.5295
 Quadrupole moment (field-independent basis, Debye-Ang):
   XX=           -128.0436   YY=           -116.4953   ZZ=           -119.0956
   XY=             -7.2201   XZ=             13.0602   YZ=              4.2541
 Traceless Quadrupole moment (field-independent basis, Debye-Ang):
   XX=             -6.8321   YY=              4.7162   ZZ=              2.1159
   XY=             -7.2201   XZ=             13.0602   YZ=              4.2541
 Octapole moment (field-independent basis, Debye-Ang**2):
  XXX=            -53.5027  YYY=              3.6459  ZZZ=             10.9076  XYY=              4.9014
  XXY=            -26.5348  XXZ=             27.1141  XZZ=             -7.7748  YZZ=            -12.8126
  YYZ=              2.1696  XYZ=             15.6778
 Hexadecapole moment (field-independent basis, Debye-Ang**3):
 XXXX=          -3579.6981 YYYY=          -2356.3155 ZZZZ=          -1157.4268 XXXY=            -30.1393
 XXXZ=            112.4339 YYYX=             20.7654 YYYZ=            -26.2503 ZZZX=             18.7161
 ZZZY=             15.5226 XXYY=          -1000.1237 XXZZ=           -807.5862 YYZZ=           -604.1036
 XXYZ=             34.2155 YYXZ=             32.9465 ZZXY=            -23.6500
 N-N= 1.638932571860D+03 E-N=-5.768318318534D+03  KE= 1.055901891707D+03
 1\1\GINC-CPU-E-611\FOpt\RB3LYP\6-31G(d,p)\C14H26O3Si1\KE291\06-Feb-201
 9\0\\# b3lyp/6-31g(d,p) Opt=(maxcycles=25) scrf=(solvent=chloroform)\\
 P_ng_3ginp006\\0,1\C,-0.8149436836,0.3728672015,-0.6539813277\C,-1.187
 6404551,-0.4326871766,0.6034135028\C,-1.6120048939,0.476165951,1.79250
 5783\C,-0.8471769772,1.8324772486,1.7164880741\C,0.38284491,1.88553253
 6,0.8311460718\H,-0.3979772128,-0.3294741968,-1.3843637564\H,-0.241605
 1539,-0.9018555765,0.8989721438\H,-1.5382225342,2.5756606779,1.3064391
 08\H,-0.5415001543,2.1851520442,2.7024053891\O,0.3328528496,1.22446576
 03,-0.3462299797\O,1.3715172927,2.5355644615,1.10027201\C,-1.919114073
 3,1.1725667099,-1.3519650282\C,-1.4352920607,1.8666950842,-2.629369653
 8\C,-2.1835168967,-1.5561498696,0.2951845202\O,-3.0125143482,0.7249946
 734,1.6651729702\Si,-4.2146609948,1.3303832158,2.6792096153\C,-5.60411
 84447,1.7872585846,1.4960828265\C,-4.8223943057,0.0106136389,3.8839546
 632\C,-3.6501503194,2.8584000571,3.6353650088\H,-5.6999348474,0.378000
 5025,4.4289798831\H,-5.1208958117,-0.8991625917,3.3521069781\H,-4.0661
 090965,-0.2661026189,4.6247919391\H,-3.3149349578,3.6570596764,2.96549
 16617\H,-4.4903308595,3.2511355112,4.2202203182\H,-2.8374642479,2.6455
 022324,4.3375137077\H,-5.2892708672,2.5656073584,0.7932629026\H,-5.926
 4008565,0.9189697685,0.9119333003\H,-6.4751384034,2.1627220628,2.04468
 29339\H,-2.3289842691,-2.2013982147,1.1661540588\H,-3.1593821023,-1.16
 19784631,0.0080208821\H,-1.8054366117,-2.183665619,-0.5186915452\H,-2.
 3571113354,1.9017688457,-0.6648270663\H,-2.7239399547,0.4709889825,-1.
 5986650346\H,-2.2560245179,2.4072799191,-3.1102933381\H,-0.6374000199,
 2.5830395972,-2.4148304781\H,-1.045318377,1.1402573444,-3.3512978044\C
 ,-1.3303462811,-0.2215012525,3.1564644752\C,0.1128980745,-0.5254548457
 ,3.4568291424\C,0.8355927503,0.0874121214,4.3965268237\H,-1.9187749373
 ,-1.1465571295,3.1826872298\H,-1.7218061909,0.4300037385,3.9453216358\
 H,0.5843058168,-1.3122173824,2.8691563977\H,1.8745009796,-0.1723754273
 ,4.5757043153\H,0.4133743799,0.8687718585,5.0245427401\\Version=ES64L-
 G09RevD.01\State=1-A\HF=-1064.4208826\RMSD=3.813e-09\RMSF=3.202e-06\Di
 pole=-1.8886825,-0.9982507,0.4111832\Quadrupole=-8.916419,2.6408257,6.
 2755933,-8.8067378,2.1636946,2.86651\PG=C01 [X(C14H26O3Si1)]\\@


 Spring appears, and we are once more children.
                                  -- Anonymous
 Job cpu time:       0 days  2 hours 20 minutes 27.6 seconds.
 File lengths (MBytes):  RWF=    373 Int=      0 D2E=      0 Chk=     17 Scr=      1
 Normal termination of Gaussian 09 at Wed Feb  6 11:21:10 2019.
