 Entering Gaussian System, Link 0=/usr/local/Cluster-Apps/gaussian/g09/g09
 Initial command:
 /usr/local/Cluster-Apps/gaussian/g09/l1.exe "/home/ke291/rds/hpc-work/06Feb0927IP1/Gau-314069.inp" -scrdir="/home/ke291/rds/hpc-work/06Feb0927IP1/"
 Entering Link 1 = /usr/local/Cluster-Apps/gaussian/g09/l1.exe PID=    314075.
  
 Copyright (c) 1988,1990,1992,1993,1995,1998,2003,2009,2013,
            Gaussian, Inc.  All Rights Reserved.
  
 This is part of the Gaussian(R) 09 program.  It is based on
 the Gaussian(R) 03 system (copyright 2003, Gaussian, Inc.),
 the Gaussian(R) 98 system (copyright 1998, Gaussian, Inc.),
 the Gaussian(R) 94 system (copyright 1995, Gaussian, Inc.),
 the Gaussian 92(TM) system (copyright 1992, Gaussian, Inc.),
 the Gaussian 90(TM) system (copyright 1990, Gaussian, Inc.),
 the Gaussian 88(TM) system (copyright 1988, Gaussian, Inc.),
 the Gaussian 86(TM) system (copyright 1986, Carnegie Mellon
 University), and the Gaussian 82(TM) system (copyright 1983,
 Carnegie Mellon University). Gaussian is a federally registered
 trademark of Gaussian, Inc.
  
 This software contains proprietary and confidential information,
 including trade secrets, belonging to Gaussian, Inc.
  
 This software is provided under written license and may be
 used, copied, transmitted, or stored only in accord with that
 written license.
  
 The following legend is applicable only to US Government
 contracts under FAR:
  
                    RESTRICTED RIGHTS LEGEND
  
 Use, reproduction and disclosure by the US Government is
 subject to restrictions as set forth in subparagraphs (a)
 and (c) of the Commercial Computer Software - Restricted
 Rights clause in FAR 52.227-19.
  
 Gaussian, Inc.
 340 Quinnipiac St., Bldg. 40, Wallingford CT 06492
  
  
 ---------------------------------------------------------------
 Warning -- This program may not be used in any manner that
 competes with the business of Gaussian, Inc. or will provide
 assistance to any competitor of Gaussian, Inc.  The licensee
 of this program is prohibited from giving any competitor of
 Gaussian, Inc. access to this program.  By using this program,
 the user acknowledges that Gaussian, Inc. is engaged in the
 business of creating and licensing software in the field of
 computational chemistry and represents and warrants to the
 licensee that it is not a competitor of Gaussian, Inc. and that
 it will not use this program in any manner prohibited above.
 ---------------------------------------------------------------
  

 Cite this work as:
 Gaussian 09, Revision D.01,
 M. J. Frisch, G. W. Trucks, H. B. Schlegel, G. E. Scuseria, 
 M. A. Robb, J. R. Cheeseman, G. Scalmani, V. Barone, B. Mennucci, 
 G. A. Petersson, H. Nakatsuji, M. Caricato, X. Li, H. P. Hratchian, 
 A. F. Izmaylov, J. Bloino, G. Zheng, J. L. Sonnenberg, M. Hada, 
 M. Ehara, K. Toyota, R. Fukuda, J. Hasegawa, M. Ishida, T. Nakajima, 
 Y. Honda, O. Kitao, H. Nakai, T. Vreven, J. A. Montgomery, Jr., 
 J. E. Peralta, F. Ogliaro, M. Bearpark, J. J. Heyd, E. Brothers, 
 K. N. Kudin, V. N. Staroverov, T. Keith, R. Kobayashi, J. Normand, 
 K. Raghavachari, A. Rendell, J. C. Burant, S. S. Iyengar, J. Tomasi, 
 M. Cossi, N. Rega, J. M. Millam, M. Klene, J. E. Knox, J. B. Cross, 
 V. Bakken, C. Adamo, J. Jaramillo, R. Gomperts, R. E. Stratmann, 
 O. Yazyev, A. J. Austin, R. Cammi, C. Pomelli, J. W. Ochterski, 
 R. L. Martin, K. Morokuma, V. G. Zakrzewski, G. A. Voth, 
 P. Salvador, J. J. Dannenberg, S. Dapprich, A. D. Daniels, 
 O. Farkas, J. B. Foresman, J. V. Ortiz, J. Cioslowski, 
 and D. J. Fox, Gaussian, Inc., Wallingford CT, 2013.
 
 ******************************************
 Gaussian 09:  ES64L-G09RevD.01 24-Apr-2013
                 6-Feb-2019 
 ******************************************
 %nprocshared=2
 Will use up to    2 processors via shared memory.
 %mem=6000MB
 %chk=/home/ke291/rds/hpc-work/06Feb0927IP1/P_ng_2ginp013.chk
 ---------------------------------------------------------------
 # b3lyp/6-31g(d,p) Opt=(maxcycles=25) scrf=(solvent=chloroform)
 ---------------------------------------------------------------
 1/6=25,14=-1,18=20,19=15,26=3,38=1/1,3;
 2/9=110,12=2,17=6,18=5,40=1/2;
 3/5=1,6=6,7=101,11=2,16=1,25=1,30=1,70=2201,71=1,72=7,74=-5/1,2,3;
 4//1;
 5/5=2,38=5,53=7/2;
 6/7=2,8=2,9=2,10=2,28=1/1;
 7//1,2,3,16;
 1/6=25,14=-1,18=20,19=15,26=3/3(2);
 2/9=110/2;
 99//99;
 2/9=110/2;
 3/5=1,6=6,7=101,11=2,16=1,25=1,30=1,70=2205,71=1,72=7,74=-5/1,2,3;
 4/5=5,16=3,69=1/1;
 5/5=2,38=5,53=7/2;
 7//1,2,3,16;
 1/6=25,14=-1,18=20,19=15,26=3/3(-5);
 2/9=110/2;
 6/7=2,8=2,9=2,10=2,19=2,28=1/1;
 99/9=1/99;
 -------------
 P_ng_2ginp013
 -------------
 Symbolic Z-matrix:
 Charge =  0 Multiplicity = 1
 C                     0.01301   0.13106   1.12409 
 C                    -0.94029   1.1278    0.42504 
 C                    -2.19687   1.44952   1.27669 
 C                    -1.7021    1.76567   2.69549 
 C                    -1.03769   0.57547   3.31203 
 H                     0.02003  -0.81335   0.56638 
 H                    -0.39475   2.06858   0.29148 
 H                    -0.97381   2.58345   2.70581 
 H                    -2.53397   2.07145   3.33914 
 O                    -0.3803   -0.24612   2.4669 
 O                    -1.06906   0.35874   4.51817 
 C                     1.46484   0.63381   1.22132 
 C                     2.14741   0.83637  -0.12135 
 C                    -1.26591   0.66901  -1.00549 
 O                    -2.93759   2.51609   0.63987 
 Si                   -2.74464   4.17027   0.7765 
 C                    -3.30765   4.80539   2.45293 
 C                    -0.9815    4.73697   0.4733 
 C                    -3.82879   5.0107   -0.5274 
 H                    -0.92263   5.82934   0.50004 
 H                    -0.30078   4.34562   1.23403 
 H                    -0.63195   4.40345  -0.50824 
 H                    -3.73237   6.09826  -0.4617 
 H                    -3.5295    4.69403  -1.53069 
 H                    -4.87887   4.74396  -0.37711 
 H                    -3.36205   5.89825   2.44804 
 H                    -4.29958   4.41455   2.69794 
 H                    -2.61404   4.5083    3.24388 
 H                    -1.92949   1.37851  -1.50967 
 H                    -0.35403   0.59284  -1.6063 
 H                    -1.74466  -0.31526  -1.01688 
 H                     2.04938  -0.08734   1.80724 
 H                     1.49612   1.56846   1.79524 
 H                     2.10951  -0.07739  -0.72253 
 H                     1.68603   1.64757  -0.69144 
 H                     3.19986   1.09766   0.02934 
 C                    -3.20115   0.24362   1.2768 
 C                    -4.37109   0.41722   2.21269 
 C                    -4.6195   -0.37469   3.26326 
 H                    -2.68862  -0.70002   1.49515 
 H                    -3.63426   0.13141   0.27404 
 H                    -5.05054   1.23959   1.99489 
 H                    -5.48236  -0.19958   3.89896 
 H                    -3.97151  -1.20703   3.52253 
 

 GradGradGradGradGradGradGradGradGradGradGradGradGradGradGradGradGradGrad
 Berny optimization.
 Initialization pass.
                           ----------------------------
                           !    Initial Parameters    !
                           ! (Angstroms and Degrees)  !
 --------------------------                            --------------------------
 ! Name  Definition              Value          Derivative Info.                !
 --------------------------------------------------------------------------------
 ! R1    R(1,2)                  1.5463         estimate D2E/DX2                !
 ! R2    R(1,6)                  1.0968         estimate D2E/DX2                !
 ! R3    R(1,10)                 1.4492         estimate D2E/DX2                !
 ! R4    R(1,12)                 1.5395         estimate D2E/DX2                !
 ! R5    R(2,3)                  1.5517         estimate D2E/DX2                !
 ! R6    R(2,7)                  1.0957         estimate D2E/DX2                !
 ! R7    R(2,14)                 1.5372         estimate D2E/DX2                !
 ! R8    R(3,4)                  1.5355         estimate D2E/DX2                !
 ! R9    R(3,15)                 1.4463         estimate D2E/DX2                !
 ! R10   R(3,37)                 1.5693         estimate D2E/DX2                !
 ! R11   R(4,5)                  1.496          estimate D2E/DX2                !
 ! R12   R(4,8)                  1.0951         estimate D2E/DX2                !
 ! R13   R(4,9)                  1.0954         estimate D2E/DX2                !
 ! R14   R(5,10)                 1.3496         estimate D2E/DX2                !
 ! R15   R(5,11)                 1.2259         estimate D2E/DX2                !
 ! R16   R(12,13)                1.5198         estimate D2E/DX2                !
 ! R17   R(12,32)                1.0977         estimate D2E/DX2                !
 ! R18   R(12,33)                1.0972         estimate D2E/DX2                !
 ! R19   R(13,34)                1.0944         estimate D2E/DX2                !
 ! R20   R(13,35)                1.0936         estimate D2E/DX2                !
 ! R21   R(13,36)                1.0948         estimate D2E/DX2                !
 ! R22   R(14,29)                1.0945         estimate D2E/DX2                !
 ! R23   R(14,30)                1.0947         estimate D2E/DX2                !
 ! R24   R(14,31)                1.0946         estimate D2E/DX2                !
 ! R25   R(15,16)                1.671          estimate D2E/DX2                !
 ! R26   R(16,17)                1.879          estimate D2E/DX2                !
 ! R27   R(16,18)                1.8766         estimate D2E/DX2                !
 ! R28   R(16,19)                1.8926         estimate D2E/DX2                !
 ! R29   R(17,26)                1.0942         estimate D2E/DX2                !
 ! R30   R(17,27)                1.0939         estimate D2E/DX2                !
 ! R31   R(17,28)                1.0931         estimate D2E/DX2                !
 ! R32   R(18,20)                1.0943         estimate D2E/DX2                !
 ! R33   R(18,21)                1.0933         estimate D2E/DX2                !
 ! R34   R(18,22)                1.094          estimate D2E/DX2                !
 ! R35   R(19,23)                1.0938         estimate D2E/DX2                !
 ! R36   R(19,24)                1.0938         estimate D2E/DX2                !
 ! R37   R(19,25)                1.0938         estimate D2E/DX2                !
 ! R38   R(37,38)                1.5083         estimate D2E/DX2                !
 ! R39   R(37,40)                1.0958         estimate D2E/DX2                !
 ! R40   R(37,41)                1.098          estimate D2E/DX2                !
 ! R41   R(38,39)                1.3388         estimate D2E/DX2                !
 ! R42   R(38,42)                1.0887         estimate D2E/DX2                !
 ! R43   R(39,43)                1.086          estimate D2E/DX2                !
 ! R44   R(39,44)                1.0862         estimate D2E/DX2                !
 ! A1    A(2,1,6)              109.2148         estimate D2E/DX2                !
 ! A2    A(2,1,10)             114.7938         estimate D2E/DX2                !
 ! A3    A(2,1,12)             113.5446         estimate D2E/DX2                !
 ! A4    A(6,1,10)             104.4057         estimate D2E/DX2                !
 ! A5    A(6,1,12)             107.895          estimate D2E/DX2                !
 ! A6    A(10,1,12)            106.4048         estimate D2E/DX2                !
 ! A7    A(1,2,3)              112.6302         estimate D2E/DX2                !
 ! A8    A(1,2,7)              107.5547         estimate D2E/DX2                !
 ! A9    A(1,2,14)             111.034          estimate D2E/DX2                !
 ! A10   A(3,2,7)              106.9828         estimate D2E/DX2                !
 ! A11   A(3,2,14)             113.6477         estimate D2E/DX2                !
 ! A12   A(7,2,14)             104.3767         estimate D2E/DX2                !
 ! A13   A(2,3,4)              106.7912         estimate D2E/DX2                !
 ! A14   A(2,3,15)             109.0246         estimate D2E/DX2                !
 ! A15   A(2,3,37)             111.0357         estimate D2E/DX2                !
 ! A16   A(4,3,15)             114.8368         estimate D2E/DX2                !
 ! A17   A(4,3,37)             111.3678         estimate D2E/DX2                !
 ! A18   A(15,3,37)            103.825          estimate D2E/DX2                !
 ! A19   A(3,4,5)              111.1061         estimate D2E/DX2                !
 ! A20   A(3,4,8)              112.1322         estimate D2E/DX2                !
 ! A21   A(3,4,9)              110.8376         estimate D2E/DX2                !
 ! A22   A(5,4,8)              107.1493         estimate D2E/DX2                !
 ! A23   A(5,4,9)              108.4948         estimate D2E/DX2                !
 ! A24   A(8,4,9)              106.9211         estimate D2E/DX2                !
 ! A25   A(4,5,10)             116.268          estimate D2E/DX2                !
 ! A26   A(4,5,11)             122.3286         estimate D2E/DX2                !
 ! A27   A(10,5,11)            121.3976         estimate D2E/DX2                !
 ! A28   A(1,10,5)             123.642          estimate D2E/DX2                !
 ! A29   A(1,12,13)            114.2852         estimate D2E/DX2                !
 ! A30   A(1,12,32)            108.7449         estimate D2E/DX2                !
 ! A31   A(1,12,33)            109.7616         estimate D2E/DX2                !
 ! A32   A(13,12,32)           108.6597         estimate D2E/DX2                !
 ! A33   A(13,12,33)           109.6188         estimate D2E/DX2                !
 ! A34   A(32,12,33)           105.3807         estimate D2E/DX2                !
 ! A35   A(12,13,34)           111.0056         estimate D2E/DX2                !
 ! A36   A(12,13,35)           111.7117         estimate D2E/DX2                !
 ! A37   A(12,13,36)           109.9963         estimate D2E/DX2                !
 ! A38   A(34,13,35)           108.5637         estimate D2E/DX2                !
 ! A39   A(34,13,36)           107.9478         estimate D2E/DX2                !
 ! A40   A(35,13,36)           107.4748         estimate D2E/DX2                !
 ! A41   A(2,14,29)            111.3234         estimate D2E/DX2                !
 ! A42   A(2,14,30)            110.799          estimate D2E/DX2                !
 ! A43   A(2,14,31)            111.7594         estimate D2E/DX2                !
 ! A44   A(29,14,30)           107.2973         estimate D2E/DX2                !
 ! A45   A(29,14,31)           108.2362         estimate D2E/DX2                !
 ! A46   A(30,14,31)           107.222          estimate D2E/DX2                !
 ! A47   A(3,15,16)            129.412          estimate D2E/DX2                !
 ! A48   A(15,16,17)           111.8982         estimate D2E/DX2                !
 ! A49   A(15,16,18)           113.2169         estimate D2E/DX2                !
 ! A50   A(15,16,19)           108.4887         estimate D2E/DX2                !
 ! A51   A(17,16,18)           108.8795         estimate D2E/DX2                !
 ! A52   A(17,16,19)           107.0339         estimate D2E/DX2                !
 ! A53   A(18,16,19)           107.025          estimate D2E/DX2                !
 ! A54   A(16,17,26)           110.395          estimate D2E/DX2                !
 ! A55   A(16,17,27)           110.5322         estimate D2E/DX2                !
 ! A56   A(16,17,28)           111.3191         estimate D2E/DX2                !
 ! A57   A(26,17,27)           108.2252         estimate D2E/DX2                !
 ! A58   A(26,17,28)           107.8319         estimate D2E/DX2                !
 ! A59   A(27,17,28)           108.4327         estimate D2E/DX2                !
 ! A60   A(16,18,20)           110.3681         estimate D2E/DX2                !
 ! A61   A(16,18,21)           111.3751         estimate D2E/DX2                !
 ! A62   A(16,18,22)           110.6763         estimate D2E/DX2                !
 ! A63   A(20,18,21)           107.8685         estimate D2E/DX2                !
 ! A64   A(20,18,22)           108.0028         estimate D2E/DX2                !
 ! A65   A(21,18,22)           108.4348         estimate D2E/DX2                !
 ! A66   A(16,19,23)           110.4655         estimate D2E/DX2                !
 ! A67   A(16,19,24)           110.2813         estimate D2E/DX2                !
 ! A68   A(16,19,25)           110.3032         estimate D2E/DX2                !
 ! A69   A(23,19,24)           108.5924         estimate D2E/DX2                !
 ! A70   A(23,19,25)           108.5934         estimate D2E/DX2                !
 ! A71   A(24,19,25)           108.5491         estimate D2E/DX2                !
 ! A72   A(3,37,38)            114.0793         estimate D2E/DX2                !
 ! A73   A(3,37,40)            111.2483         estimate D2E/DX2                !
 ! A74   A(3,37,41)            109.3225         estimate D2E/DX2                !
 ! A75   A(38,37,40)           109.7722         estimate D2E/DX2                !
 ! A76   A(38,37,41)           105.8112         estimate D2E/DX2                !
 ! A77   A(40,37,41)           106.1675         estimate D2E/DX2                !
 ! A78   A(37,38,39)           124.2461         estimate D2E/DX2                !
 ! A79   A(37,38,42)           116.5445         estimate D2E/DX2                !
 ! A80   A(39,38,42)           119.2062         estimate D2E/DX2                !
 ! A81   A(38,39,43)           120.7561         estimate D2E/DX2                !
 ! A82   A(38,39,44)           121.9948         estimate D2E/DX2                !
 ! A83   A(43,39,44)           117.2471         estimate D2E/DX2                !
 ! D1    D(6,1,2,3)            112.6855         estimate D2E/DX2                !
 ! D2    D(6,1,2,7)           -129.6829         estimate D2E/DX2                !
 ! D3    D(6,1,2,14)           -16.0631         estimate D2E/DX2                !
 ! D4    D(10,1,2,3)            -4.1359         estimate D2E/DX2                !
 ! D5    D(10,1,2,7)           113.4958         estimate D2E/DX2                !
 ! D6    D(10,1,2,14)         -132.8845         estimate D2E/DX2                !
 ! D7    D(12,1,2,3)          -126.8625         estimate D2E/DX2                !
 ! D8    D(12,1,2,7)            -9.2309         estimate D2E/DX2                !
 ! D9    D(12,1,2,14)          104.3889         estimate D2E/DX2                !
 ! D10   D(2,1,10,5)           -31.8553         estimate D2E/DX2                !
 ! D11   D(6,1,10,5)          -151.3899         estimate D2E/DX2                !
 ! D12   D(12,1,10,5)           94.6354         estimate D2E/DX2                !
 ! D13   D(2,1,12,13)          -63.5107         estimate D2E/DX2                !
 ! D14   D(2,1,12,32)          174.9026         estimate D2E/DX2                !
 ! D15   D(2,1,12,33)           60.0974         estimate D2E/DX2                !
 ! D16   D(6,1,12,13)           57.6838         estimate D2E/DX2                !
 ! D17   D(6,1,12,32)          -63.9029         estimate D2E/DX2                !
 ! D18   D(6,1,12,33)         -178.7081         estimate D2E/DX2                !
 ! D19   D(10,1,12,13)         169.2509         estimate D2E/DX2                !
 ! D20   D(10,1,12,32)          47.6642         estimate D2E/DX2                !
 ! D21   D(10,1,12,33)         -67.141          estimate D2E/DX2                !
 ! D22   D(1,2,3,4)             47.6901         estimate D2E/DX2                !
 ! D23   D(1,2,3,15)           172.3104         estimate D2E/DX2                !
 ! D24   D(1,2,3,37)           -73.8975         estimate D2E/DX2                !
 ! D25   D(7,2,3,4)            -70.2788         estimate D2E/DX2                !
 ! D26   D(7,2,3,15)            54.3416         estimate D2E/DX2                !
 ! D27   D(7,2,3,37)           168.1336         estimate D2E/DX2                !
 ! D28   D(14,2,3,4)           175.0667         estimate D2E/DX2                !
 ! D29   D(14,2,3,15)          -60.3129         estimate D2E/DX2                !
 ! D30   D(14,2,3,37)           53.4791         estimate D2E/DX2                !
 ! D31   D(1,2,14,29)         -179.2095         estimate D2E/DX2                !
 ! D32   D(1,2,14,30)          -59.8883         estimate D2E/DX2                !
 ! D33   D(1,2,14,31)           59.625          estimate D2E/DX2                !
 ! D34   D(3,2,14,29)           52.5891         estimate D2E/DX2                !
 ! D35   D(3,2,14,30)          171.9102         estimate D2E/DX2                !
 ! D36   D(3,2,14,31)          -68.5765         estimate D2E/DX2                !
 ! D37   D(7,2,14,29)          -63.6046         estimate D2E/DX2                !
 ! D38   D(7,2,14,30)           55.7166         estimate D2E/DX2                !
 ! D39   D(7,2,14,31)          175.2299         estimate D2E/DX2                !
 ! D40   D(2,3,4,5)            -63.2192         estimate D2E/DX2                !
 ! D41   D(2,3,4,8)             56.6614         estimate D2E/DX2                !
 ! D42   D(2,3,4,9)            176.0677         estimate D2E/DX2                !
 ! D43   D(15,3,4,5)           175.7929         estimate D2E/DX2                !
 ! D44   D(15,3,4,8)           -64.3266         estimate D2E/DX2                !
 ! D45   D(15,3,4,9)            55.0797         estimate D2E/DX2                !
 ! D46   D(37,3,4,5)            58.158          estimate D2E/DX2                !
 ! D47   D(37,3,4,8)           178.0386         estimate D2E/DX2                !
 ! D48   D(37,3,4,9)           -62.5551         estimate D2E/DX2                !
 ! D49   D(2,3,15,16)          -86.048          estimate D2E/DX2                !
 ! D50   D(4,3,15,16)           33.7084         estimate D2E/DX2                !
 ! D51   D(37,3,15,16)         155.5361         estimate D2E/DX2                !
 ! D52   D(2,3,37,38)          173.201          estimate D2E/DX2                !
 ! D53   D(2,3,37,40)           48.3586         estimate D2E/DX2                !
 ! D54   D(2,3,37,41)          -68.5733         estimate D2E/DX2                !
 ! D55   D(4,3,37,38)           54.3309         estimate D2E/DX2                !
 ! D56   D(4,3,37,40)          -70.5114         estimate D2E/DX2                !
 ! D57   D(4,3,37,41)          172.5567         estimate D2E/DX2                !
 ! D58   D(15,3,37,38)         -69.7786         estimate D2E/DX2                !
 ! D59   D(15,3,37,40)         165.3791         estimate D2E/DX2                !
 ! D60   D(15,3,37,41)          48.4472         estimate D2E/DX2                !
 ! D61   D(3,4,5,10)            32.3961         estimate D2E/DX2                !
 ! D62   D(3,4,5,11)          -148.4694         estimate D2E/DX2                !
 ! D63   D(8,4,5,10)           -90.4058         estimate D2E/DX2                !
 ! D64   D(8,4,5,11)            88.7287         estimate D2E/DX2                !
 ! D65   D(9,4,5,10)           154.4812         estimate D2E/DX2                !
 ! D66   D(9,4,5,11)           -26.3843         estimate D2E/DX2                !
 ! D67   D(4,5,10,1)            17.0891         estimate D2E/DX2                !
 ! D68   D(11,5,10,1)         -162.0542         estimate D2E/DX2                !
 ! D69   D(1,12,13,34)         -55.0529         estimate D2E/DX2                !
 ! D70   D(1,12,13,35)          66.2764         estimate D2E/DX2                !
 ! D71   D(1,12,13,36)        -174.4585         estimate D2E/DX2                !
 ! D72   D(32,12,13,34)         66.5807         estimate D2E/DX2                !
 ! D73   D(32,12,13,35)       -172.09           estimate D2E/DX2                !
 ! D74   D(32,12,13,36)        -52.825          estimate D2E/DX2                !
 ! D75   D(33,12,13,34)       -178.7378         estimate D2E/DX2                !
 ! D76   D(33,12,13,35)        -57.4085         estimate D2E/DX2                !
 ! D77   D(33,12,13,36)         61.8566         estimate D2E/DX2                !
 ! D78   D(3,15,16,17)         -71.5466         estimate D2E/DX2                !
 ! D79   D(3,15,16,18)          51.9504         estimate D2E/DX2                !
 ! D80   D(3,15,16,19)         170.5939         estimate D2E/DX2                !
 ! D81   D(15,16,17,26)       -168.6337         estimate D2E/DX2                !
 ! D82   D(15,16,17,27)        -48.9276         estimate D2E/DX2                !
 ! D83   D(15,16,17,28)         71.6434         estimate D2E/DX2                !
 ! D84   D(18,16,17,26)         65.4581         estimate D2E/DX2                !
 ! D85   D(18,16,17,27)       -174.8357         estimate D2E/DX2                !
 ! D86   D(18,16,17,28)        -54.2648         estimate D2E/DX2                !
 ! D87   D(19,16,17,26)        -49.9084         estimate D2E/DX2                !
 ! D88   D(19,16,17,27)         69.7977         estimate D2E/DX2                !
 ! D89   D(19,16,17,28)       -169.6313         estimate D2E/DX2                !
 ! D90   D(15,16,18,20)        175.773          estimate D2E/DX2                !
 ! D91   D(15,16,18,21)        -64.4396         estimate D2E/DX2                !
 ! D92   D(15,16,18,22)         56.269          estimate D2E/DX2                !
 ! D93   D(17,16,18,20)        -59.0861         estimate D2E/DX2                !
 ! D94   D(17,16,18,21)         60.7013         estimate D2E/DX2                !
 ! D95   D(17,16,18,22)       -178.5901         estimate D2E/DX2                !
 ! D96   D(19,16,18,20)         56.2862         estimate D2E/DX2                !
 ! D97   D(19,16,18,21)        176.0736         estimate D2E/DX2                !
 ! D98   D(19,16,18,22)        -63.2178         estimate D2E/DX2                !
 ! D99   D(15,16,19,23)        179.5908         estimate D2E/DX2                !
 ! D100  D(15,16,19,24)        -60.3617         estimate D2E/DX2                !
 ! D101  D(15,16,19,25)         59.5279         estimate D2E/DX2                !
 ! D102  D(17,16,19,23)         58.6772         estimate D2E/DX2                !
 ! D103  D(17,16,19,24)        178.7247         estimate D2E/DX2                !
 ! D104  D(17,16,19,25)        -61.3856         estimate D2E/DX2                !
 ! D105  D(18,16,19,23)        -57.9223         estimate D2E/DX2                !
 ! D106  D(18,16,19,24)         62.1252         estimate D2E/DX2                !
 ! D107  D(18,16,19,25)       -177.9851         estimate D2E/DX2                !
 ! D108  D(3,37,38,39)        -117.0914         estimate D2E/DX2                !
 ! D109  D(3,37,38,42)          63.581          estimate D2E/DX2                !
 ! D110  D(40,37,38,39)          8.5328         estimate D2E/DX2                !
 ! D111  D(40,37,38,42)       -170.7948         estimate D2E/DX2                !
 ! D112  D(41,37,38,39)        122.695          estimate D2E/DX2                !
 ! D113  D(41,37,38,42)        -56.6325         estimate D2E/DX2                !
 ! D114  D(37,38,39,43)       -179.7802         estimate D2E/DX2                !
 ! D115  D(37,38,39,44)          0.7564         estimate D2E/DX2                !
 ! D116  D(42,38,39,43)         -0.4694         estimate D2E/DX2                !
 ! D117  D(42,38,39,44)       -179.9328         estimate D2E/DX2                !
 --------------------------------------------------------------------------------
 Trust Radius=3.00D-01 FncErr=1.00D-07 GrdErr=1.00D-06
 Number of steps in this run=     25 maximum allowed number of steps=    264.
 GradGradGradGradGradGradGradGradGradGradGradGradGradGradGradGradGradGrad

                          Input orientation:                          
 ---------------------------------------------------------------------
 Center     Atomic      Atomic             Coordinates (Angstroms)
 Number     Number       Type             X           Y           Z
 ---------------------------------------------------------------------
      1          6           0        0.013009    0.131060    1.124087
      2          6           0       -0.940294    1.127796    0.425041
      3          6           0       -2.196869    1.449515    1.276687
      4          6           0       -1.702095    1.765665    2.695492
      5          6           0       -1.037688    0.575471    3.312030
      6          1           0        0.020029   -0.813354    0.566380
      7          1           0       -0.394750    2.068575    0.291482
      8          1           0       -0.973810    2.583446    2.705808
      9          1           0       -2.533966    2.071455    3.339135
     10          8           0       -0.380304   -0.246123    2.466897
     11          8           0       -1.069055    0.358744    4.518174
     12          6           0        1.464835    0.633806    1.221325
     13          6           0        2.147408    0.836367   -0.121351
     14          6           0       -1.265905    0.669005   -1.005492
     15          8           0       -2.937589    2.516094    0.639867
     16         14           0       -2.744643    4.170269    0.776501
     17          6           0       -3.307646    4.805392    2.452933
     18          6           0       -0.981502    4.736969    0.473300
     19          6           0       -3.828791    5.010697   -0.527402
     20          1           0       -0.922627    5.829341    0.500040
     21          1           0       -0.300782    4.345620    1.234029
     22          1           0       -0.631951    4.403448   -0.508244
     23          1           0       -3.732365    6.098256   -0.461695
     24          1           0       -3.529495    4.694028   -1.530692
     25          1           0       -4.878874    4.743959   -0.377110
     26          1           0       -3.362050    5.898252    2.448040
     27          1           0       -4.299583    4.414546    2.697935
     28          1           0       -2.614037    4.508296    3.243881
     29          1           0       -1.929492    1.378510   -1.509665
     30          1           0       -0.354033    0.592838   -1.606304
     31          1           0       -1.744663   -0.315262   -1.016877
     32          1           0        2.049380   -0.087340    1.807240
     33          1           0        1.496123    1.568464    1.795241
     34          1           0        2.109508   -0.077393   -0.722532
     35          1           0        1.686025    1.647574   -0.691441
     36          1           0        3.199860    1.097656    0.029335
     37          6           0       -3.201146    0.243620    1.276797
     38          6           0       -4.371094    0.417223    2.212694
     39          6           0       -4.619502   -0.374686    3.263258
     40          1           0       -2.688616   -0.700020    1.495145
     41          1           0       -3.634258    0.131405    0.274038
     42          1           0       -5.050539    1.239589    1.994894
     43          1           0       -5.482362   -0.199581    3.898958
     44          1           0       -3.971507   -1.207031    3.522528
 ---------------------------------------------------------------------
                    Distance matrix (angstroms):
                    1          2          3          4          5
     1  C    0.000000
     2  C    1.546265   0.000000
     3  C    2.577823   1.551704   0.000000
     4  C    2.843032   2.478339   1.535500   0.000000
     5  C    2.467501   2.940961   2.500055   1.496034   0.000000
     6  H    1.096815   2.170313   3.246498   3.761671   3.253643
     7  H    2.147897   1.095683   2.145110   2.753211   3.430224
     8  H    3.080560   2.705908   2.196374   1.095112   2.098464
     9  H    3.893411   3.452858   2.180398   1.095351   2.116022
    10  O    1.449172   2.523969   2.755303   2.417991   1.349600
    11  O    3.569668   4.166744   3.601248   2.387956   1.225862
    12  C    1.539483   2.581228   3.751869   3.672018   3.261452
    13  C    2.569870   3.149187   4.604694   4.859719   4.690523
    14  C    2.541675   1.537185   2.585388   3.884612   4.324561
    15  O    3.824773   2.441866   1.446304   2.513003   3.810000
    16  Si   4.903129   3.554693   2.820061   3.248315   4.718599
    17  C    5.885742   4.820935   3.725492   3.446240   4.876781
    18  C    4.756782   3.609731   3.595817   3.779688   5.037818
    19  C    6.426329   4.932290   4.312763   5.043819   6.496362
    20  H    5.808206   4.702176   4.627067   4.684127   5.960174
    21  H    4.227655   3.379028   3.461848   3.279591   4.367510
    22  H    4.618850   3.419940   3.789547   4.285678   5.423331
    23  H    7.221493   5.769526   5.195239   5.732466   7.211341
    24  H    6.357504   4.821500   4.492676   5.456678   6.828145
    25  H    6.889336   5.406708   4.558679   5.329451   6.763191
    26  H    6.812076   5.719675   4.745627   4.460376   5.872064
    27  H    6.278829   5.220498   3.902917   3.709922   5.074994
    28  H    5.527666   4.709040   3.660604   2.941835   4.237527
    29  H    3.502298   2.187340   2.800052   4.229059   4.968795
    30  H    2.793384   2.180882   3.527262   4.658137   4.965652
    31  H    2.805769   2.192841   2.929055   4.256025   4.475785
    32  H    2.158982   3.510724   4.546871   4.277404   3.497671
    33  H    2.171683   2.829799   3.731117   3.328354   3.115587
    34  H    2.801564   3.474291   4.987305   5.441330   5.158368
    35  H    2.897402   2.900733   4.357708   4.792141   4.959415
    36  H    3.505540   4.159131   5.550169   5.619946   5.385683
    37  C    3.219749   2.572685   1.569317   2.564463   2.988787
    38  C    4.526291   3.933320   2.582439   3.029017   3.513570
    39  C    5.127572   4.883595   3.625372   3.662612   3.706018
    40  H    2.850817   2.746391   2.215861   2.914388   2.766498
    41  H    3.745015   2.876289   2.192899   3.502499   4.021040
    42  H    5.256107   4.401256   2.950139   3.461166   4.275380
    43  H    6.165090   5.870299   4.515561   4.427295   4.549760
    44  H    4.839357   4.922814   3.905173   3.830293   3.439319
                    6          7          8          9         10
     6  H    0.000000
     7  H    2.924573   0.000000
     8  H    4.135592   2.535621   0.000000
     9  H    4.746913   3.723499   1.759922   0.000000
    10  O    2.023359   3.176549   2.900998   3.281802   0.000000
    11  O    4.263402   4.609028   2.871070   2.543516   2.246771
    12  C    2.147252   2.526109   3.457134   4.747880   2.393797
    13  C    2.778542   2.855054   4.559289   5.951106   3.776260
    14  C    2.514318   2.097582   4.186186   4.738209   3.698545
    15  O    4.454001   2.605317   2.851154   2.765260   4.184207
    16  Si   5.702987   3.189727   3.062039   3.319111   5.286970
    17  C    6.797265   4.543897   3.232303   2.976297   5.838436
    18  C    5.640728   2.738186   3.101905   4.210477   5.400655
    19  C    7.066070   4.595573   4.949355   5.026512   6.963623
    20  H    6.709575   3.803355   3.924776   4.977809   6.408893
    21  H    5.211879   2.466203   2.392563   3.819739   4.755038
    22  H    5.366090   2.479407   3.709367   4.884483   5.525695
    23  H    7.931441   5.286329   5.476914   5.665474   7.750104
    24  H    6.879541   4.476600   5.379035   5.619981   7.092476
    25  H    7.468142   5.264225   5.424180   5.143087   7.295644
    26  H    7.747565   5.303022   4.093663   4.015489   6.829679
    27  H    7.108693   5.151924   3.796545   3.003101   6.093928
    28  H    6.513622   4.426526   2.585520   2.440016   5.310157
    29  H    3.593725   2.464904   4.487250   4.935223   4.566450
    30  H    2.614929   2.404381   4.789672   5.603194   4.158787
    31  H    2.422589   3.035910   4.780701   5.029340   3.742050
    32  H    2.486985   3.594338   4.132820   5.292840   2.522642
    33  H    3.059740   2.467145   2.821328   4.344908   2.695334
    34  H    2.562978   3.450320   5.323573   6.532728   4.049703
    35  H    3.227046   2.339445   4.414961   5.850944   4.222665
    36  H    3.748560   3.732643   5.175964   6.691773   4.534868
    37  C    3.463792   3.489579   3.532405   2.835374   3.100538
    38  C    4.848364   4.714799   4.059214   2.716688   4.053523
    39  C    5.384313   5.713975   4.727829   3.215404   4.315266
    40  H    2.865695   3.791536   3.897103   3.332460   2.545315
    41  H    3.785743   3.774565   4.359357   3.790680   3.942001
    42  H    5.653838   5.026450   4.350985   2.971889   4.923538
    43  H    6.462128   6.636431   5.431012   3.763515   5.299430
    44  H    4.982585   5.827731   4.901116   3.584498   3.864510
                   11         12         13         14         15
    11  O    0.000000
    12  C    4.167190   0.000000
    13  C    5.665594   1.519775   0.000000
    14  C    5.535874   3.523761   3.529932   0.000000
    15  O    4.815272   4.823115   5.409078   2.985544   0.000000
    16  Si   5.597806   5.515809   5.987754   4.197739   1.670985
    17  C    5.389730   6.457210   7.220645   5.765337   2.943643
    18  C    5.961336   4.835292   5.035711   4.337746   2.964170
    19  C    7.396935   7.087856   7.301018   5.064311   2.894789
    20  H    6.789276   5.763142   5.894152   5.386421   3.880365
    21  H    5.222167   4.110368   4.488379   4.411849   3.263885
    22  H    6.466496   4.647378   4.538567   3.820369   3.193154
    23  H    8.051976   7.726814   7.897787   5.987980   3.831056
    24  H    7.838191   7.000167   7.006784   4.647632   3.131306
    25  H    7.596620   7.725995   8.043838   5.482122   3.125094
    26  H    6.342667   7.246933   7.910662   6.608005   3.858581
    27  H    5.495372   7.050027   7.894012   6.078458   3.113646
    28  H    4.607556   5.978261   6.890516   5.883433   3.294608
    29  H    6.173744   4.419768   4.340789   1.094502   2.632650
    30  H    6.170518   3.362357   2.919178   1.094663   3.926698
    31  H    5.616718   4.026308   4.156493   1.094587   3.490623
    32  H    4.156055   1.097744   2.140632   4.413007   5.745475
    33  H    3.931657   1.097244   2.152548   4.035087   4.678749
    34  H    6.144793   2.167945   1.094446   3.468514   5.835709
    35  H    6.032548   2.176080   1.093588   3.125718   4.889224
    36  H    6.238534   2.155530   1.094821   4.604092   6.328744
    37  C    3.881442   4.682596   5.559964   3.022409   2.374717
    38  C    4.027669   5.923495   6.936448   4.479097   2.988977
    39  C    3.836458   6.496592   7.662460   5.527941   4.250602
    40  H    3.589243   4.370952   5.325474   3.186145   3.337196
    41  H    4.964337   5.210615   5.837891   2.745051   2.511159
    42  H    4.795315   6.589042   7.513423   4.863264   2.816047
    43  H    4.491373   7.491849   8.686165   6.525839   4.946962
    44  H    3.444879   6.183691   7.409079   5.598460   4.820828
                   16         17         18         19         20
    16  Si   0.000000
    17  C    1.879036   0.000000
    18  C    1.876632   3.055254   0.000000
    19  C    1.892580   3.032514   3.030410   0.000000
    20  H    2.479656   3.248165   1.094284   3.189295   0.000000
    21  H    2.492496   3.276942   1.093271   3.998977   1.768293
    22  H    2.483628   4.011168   1.094007   3.254060   1.770395
    23  H    2.495167   3.216666   3.208514   1.093801   2.981925
    24  H    2.492680   3.991352   3.241928   1.093823   3.494076
    25  H    2.492966   3.237541   3.989079   1.093806   4.195156
    26  H    2.482168   1.094224   3.303814   3.139882   3.122537
    27  H    2.483831   1.093950   4.007820   3.313584   4.270389
    28  H    2.493849   1.093141   3.223908   3.993821   3.483488
    29  H    3.699317   5.417104   4.013737   4.214850   4.986240
    30  H    4.918413   6.553384   4.678920   5.723238   5.672825
    31  H    4.933169   6.379937   5.322413   5.740123   6.382235
    32  H    6.494021   7.283782   5.851461   8.123634   6.748979
    33  H    5.078515   5.829791   4.233861   6.752655   5.067837
    34  H    6.622123   7.954290   5.844864   7.822412   6.751150
    35  H    5.305626   6.692955   4.244606   6.461478   5.070687
    36  H    6.733225   7.872024   5.561069   8.063732   6.293275
    37  C    3.984628   4.712155   5.075688   5.135572   6.082374
    38  C    4.335129   4.521578   5.759777   5.376079   6.641997
    39  C    5.509598   5.404702   6.866435   6.632999   7.732542
    40  H    4.923343   5.622288   5.789582   6.164656   6.836776
    41  H    4.166090   5.167244   5.318650   4.948499   6.314309
    42  H    3.923076   3.995301   5.577094   4.698500   6.351383
    43  H    6.028303   5.645364   7.507490   7.033773   8.288047
    44  H    6.161267   6.142799   7.319089   7.421755   8.242672
                   21         22         23         24         25
    21  H    0.000000
    22  H    1.774410   0.000000
    23  H    4.209866   3.533710   0.000000
    24  H    4.264934   3.086357   1.776448   0.000000
    25  H    4.869637   4.262570   1.776445   1.775970   0.000000
    26  H    3.640858   4.292726   2.940016   4.160349   3.408023
    27  H    4.258894   4.871471   3.624897   4.307253   3.146425
    28  H    3.068732   4.244773   4.184486   4.865091   4.277452
    29  H    4.357097   3.440452   5.159903   3.681455   4.616035
    30  H    4.706772   3.975390   6.559945   5.187392   6.262341
    31  H    5.373564   4.874737   6.737388   5.342529   5.985674
    32  H    5.050046   5.719981   8.765742   8.070137   8.724307
    33  H    3.355059   4.227514   7.276666   6.788801   7.446037
    34  H    5.403765   5.257324   8.504949   7.430877   8.497190
    35  H    3.864491   3.605748   7.015718   6.098104   7.265281
    36  H    4.924942   5.089207   8.561709   7.787926   8.872805
    37  C    5.023977   5.204931   6.130360   5.272185   5.079688
    38  C    5.740865   6.105300   6.311455   5.745632   5.068093
    39  C    6.711960   7.277043   7.520722   7.061298   6.286500
    40  H    5.588239   5.855666   7.150887   6.241676   6.159503
    41  H    5.458320   5.279788   6.012840   4.907704   4.821692
    42  H    5.725953   5.983279   5.601701   5.164928   4.235148
    43  H    7.389822   8.008607   7.857515   7.565857   6.564110
    44  H    7.038706   7.673150   8.324568   7.781575   7.172501
                   26         27         28         29         30
    26  H    0.000000
    27  H    1.772794   0.000000
    28  H    1.767728   1.774235   0.000000
    29  H    6.176060   5.704274   5.732396   0.000000
    30  H    7.323475   6.978488   6.630439   1.763148   0.000000
    31  H    7.295844   6.534411   6.494350   1.773659   1.762363
    32  H    8.094536   7.833878   6.703079   5.383493   4.229813
    33  H    6.540264   6.519605   5.256861   4.763751   3.993173
    34  H    8.700506   8.541285   7.685887   4.364946   2.701721
    35  H    7.308055   7.414277   6.493152   3.716699   2.472100
    36  H    8.482601   8.623505   7.467742   5.362616   3.944656
    37  C    5.776899   4.541236   4.733031   3.266412   4.066974
    38  C    5.578103   4.027302   4.570282   4.554278   5.545482
    39  C    6.449459   4.833082   5.278805   5.752447   6.545454
    40  H    6.700650   5.495517   5.494561   3.731680   4.091546
    41  H    6.169028   4.966209   5.386835   2.764615   3.809000
    42  H    4.975890   3.337447   4.263913   4.694909   5.953493
    43  H    6.616982   4.912392   5.551623   6.660815   7.565421
    44  H    7.211866   5.691196   5.880929   6.014800   6.529209
                   31         32         33         34         35
    31  H    0.000000
    32  H    4.735224   0.000000
    33  H    4.686056   1.745831   0.000000
    34  H    3.872706   2.530506   3.069897   0.000000
    35  H    3.965886   3.063554   2.495177   1.776462   0.000000
    36  H    5.247781   2.426678   2.498560   1.770568   1.764546
    37  C    2.773920   5.287620   4.907987   5.683609   5.452475
    38  C    4.226678   6.453020   5.993651   7.131507   6.829089
    39  C    5.156335   6.832023   6.582688   7.826524   7.712902
    40  H    2.710967   4.787628   4.769499   5.322382   5.424928
    41  H    2.331639   5.890866   5.540759   5.833318   5.615722
    42  H    4.734674   7.225289   6.557957   7.770786   7.263893
    43  H    6.176505   7.817610   7.500057   8.888734   8.710311
    44  H    5.134227   6.359796   6.370390   7.501690   7.610123
                   36         37         38         39         40
    36  H    0.000000
    37  C    6.577113   0.000000
    38  C    7.908817   1.508250   0.000000
    39  C    8.588857   2.517948   1.338847   0.000000
    40  H    6.328854   1.095819   2.143325   2.638254   0.000000
    41  H    6.906424   1.098045   2.093563   3.187832   1.754026
    42  H    8.482491   2.219881   1.088746   2.097719   3.096855
    43  H    9.593633   3.503727   2.111599   1.085957   3.719378
    44  H    8.303161   2.782293   2.124508   1.086240   2.452173
                   41         42         43         44
    41  H    0.000000
    42  H    2.489030   0.000000
    43  H    4.082289   2.425519   0.000000
    44  H    3.529566   3.079598   1.854545   0.000000
 Stoichiometry    C14H26O3Si
 Framework group  C1[X(C14H26O3Si)]
 Deg. of freedom   126
 Full point group                 C1      NOp   1
 Largest Abelian subgroup         C1      NOp   1
 Largest concise Abelian subgroup C1      NOp   1
                         Standard orientation:                         
 ---------------------------------------------------------------------
 Center     Atomic      Atomic             Coordinates (Angstroms)
 Number     Number       Type             X           Y           Z
 ---------------------------------------------------------------------
      1          6           0        2.339690   -0.648397    0.294137
      2          6           0        0.871675   -0.848883    0.736484
      3          6           0       -0.017094    0.386581    0.433989
      4          6           0        0.271887    0.796242   -1.017364
      5          6           0        1.696965    1.219931   -1.183974
      6          1           0        2.981821   -0.606503    1.182347
      7          1           0        0.463775   -1.685732    0.158710
      8          1           0        0.094589   -0.024184   -1.720740
      9          1           0       -0.375173    1.624954   -1.324518
     10          8           0        2.600909    0.597345   -0.398678
     11          8           0        2.036730    2.072202   -1.996951
     12          6           0        2.866106   -1.771623   -0.617597
     13          6           0        2.918156   -3.139628    0.042380
     14          6           0        0.795195   -1.320590    2.197504
     15          8           0       -1.397473    0.052697    0.707617
     16         14           0       -2.529289   -0.675338   -0.282913
     17          6           0       -3.098780    0.472004   -1.657709
     18          6           0       -1.923448   -2.280422   -1.043444
     19          6           0       -4.054412   -1.095403    0.756031
     20          1           0       -2.723380   -2.754182   -1.620607
     21          1           0       -1.080013   -2.108568   -1.717480
     22          1           0       -1.607203   -2.981385   -0.265312
     23          1           0       -4.821204   -1.568447    0.135822
     24          1           0       -3.785680   -1.782921    1.563218
     25          1           0       -4.474529   -0.187278    1.197871
     26          1           0       -3.974183    0.054711   -2.164527
     27          1           0       -3.372330    1.450500   -1.252197
     28          1           0       -2.315084    0.614898   -2.406281
     29          1           0       -0.241552   -1.477424    2.511342
     30          1           0        1.321858   -2.271449    2.327045
     31          1           0        1.254740   -0.599822    2.881194
     32          1           0        3.875971   -1.506598   -0.956677
     33          1           0        2.257757   -1.825266   -1.529177
     34          1           0        3.501987   -3.106930    0.967521
     35          1           0        1.917672   -3.514838    0.275152
     36          1           0        3.391939   -3.861993   -0.630190
     37          6           0        0.289861    1.558997    1.430972
     38          6           0       -0.417922    2.849166    1.100327
     39          6           0        0.205430    3.988888    0.776325
     40          1           0        1.367779    1.738146    1.513544
     41          1           0       -0.051560    1.279639    2.436504
     42          1           0       -1.505646    2.832550    1.144463
     43          1           0       -0.361495    4.887452    0.551640
     44          1           0        1.288000    4.056259    0.717843
 ---------------------------------------------------------------------
 Rotational constants (GHZ):      0.4284299      0.3210347      0.2437349
 Standard basis: 6-31G(d,p) (6D, 7F)
 There are   404 symmetry adapted cartesian basis functions of A   symmetry.
 There are   404 symmetry adapted basis functions of A   symmetry.
   404 basis functions,   710 primitive gaussians,   404 cartesian basis functions
    74 alpha electrons       74 beta electrons
       nuclear repulsion energy      1642.9705776073 Hartrees.
 NAtoms=   44 NActive=   44 NUniq=   44 SFac= 1.00D+00 NAtFMM=   60 NAOKFM=F Big=F
 Integral buffers will be    131072 words long.
 Raffenetti 2 integral format.
 Two-electron integral symmetry is turned on.
 ------------------------------------------------------------------------------
 Polarizable Continuum Model (PCM)
 =================================
 Model                : PCM (using non-symmetric T matrix).
 Atomic radii         : UFF (Universal Force Field).
 Polarization charges : Total charges.
 Charge compensation  : None.
 Solution method      : On-the-fly selection.
 Cavity type          : Scaled VdW (van der Waals Surface) (Alpha=1.100).
 Cavity algorithm     : GePol (No added spheres)
                        Default sphere list used, NSphG=   44.
                        Lebedev-Laikov grids with approx.  5.0 points / Ang**2.
                        Smoothing algorithm: Karplus/York (Gamma=1.0000).
                        Polarization charges: spherical gaussians, with
                                              point-specific exponents (IZeta= 3).
                        Self-potential: point-specific (ISelfS= 7).
                        Self-field    : sphere-specific E.n sum rule (ISelfD= 2).
 1st derivatives      : Analytical E(r).r(x)/FMM algorithm (CHGder, D1EAlg=3).
                        Cavity 1st derivative terms included.
 Solvent              : Chloroform, Eps=   4.711300 Eps(inf)=   2.090627
 ------------------------------------------------------------------------------
 One-electron integrals computed using PRISM.
 NBasis=   404 RedAO= T EigKep=  1.64D-03  NBF=   404
 NBsUse=   404 1.00D-06 EigRej= -1.00D+00 NBFU=   404
 ExpMin= 7.78D-02 ExpMax= 1.61D+04 ExpMxC= 2.43D+03 IAcc=2 IRadAn=         4 AccDes= 0.00D+00
 Harris functional with IExCor=  402 and IRadAn=       4 diagonalized for initial guess.
 HarFok:  IExCor=  402 AccDes= 0.00D+00 IRadAn=         4 IDoV= 1 UseB2=F ITyADJ=14
 ICtDFT=  3500011 ScaDFX=  1.000000  1.000000  1.000000  1.000000
 FoFCou: FMM=F IPFlag=           0 FMFlag=      100000 FMFlg1=           0
         NFxFlg=           0 DoJE=T BraDBF=F KetDBF=T FulRan=T
         wScrn=  0.000000 ICntrl=     500 IOpCl=  0 I1Cent=   200000004 NGrid=           0
         NMat0=    1 NMatS0=      1 NMatT0=    0 NMatD0=    1 NMtDS0=    0 NMtDT0=    0
 Petite list used in FoFCou.
 Requested convergence on RMS density matrix=1.00D-08 within 128 cycles.
 Requested convergence on MAX density matrix=1.00D-06.
 Requested convergence on             energy=1.00D-06.
 No special actions if energy rises.
 Inv3:  Mode=1 IEnd=    24727923.
 Iteration    1 A*A^-1 deviation from unit magnitude is 4.44D-15 for   2834.
 Iteration    1 A*A^-1 deviation from orthogonality  is 2.83D-15 for   2402   1000.
 Iteration    1 A^-1*A deviation from unit magnitude is 4.00D-15 for   2834.
 Iteration    1 A^-1*A deviation from orthogonality  is 5.31D-12 for   2438   2436.
 Error on total polarization charges =  0.00911
 SCF Done:  E(RB3LYP) =  -1064.41425607     A.U. after   13 cycles
            NFock= 13  Conv=0.58D-08     -V/T= 2.0080

 **********************************************************************

            Population analysis using the SCF density.

 **********************************************************************

 Orbital symmetries:
       Occupied  (A) (A) (A) (A) (A) (A) (A) (A) (A) (A) (A) (A)
                 (A) (A) (A) (A) (A) (A) (A) (A) (A) (A) (A) (A)
                 (A) (A) (A) (A) (A) (A) (A) (A) (A) (A) (A) (A)
                 (A) (A) (A) (A) (A) (A) (A) (A) (A) (A) (A) (A)
                 (A) (A) (A) (A) (A) (A) (A) (A) (A) (A) (A) (A)
                 (A) (A) (A) (A) (A) (A) (A) (A) (A) (A) (A) (A)
                 (A) (A)
       Virtual   (A) (A) (A) (A) (A) (A) (A) (A) (A) (A) (A) (A)
                 (A) (A) (A) (A) (A) (A) (A) (A) (A) (A) (A) (A)
                 (A) (A) (A) (A) (A) (A) (A) (A) (A) (A) (A) (A)
                 (A) (A) (A) (A) (A) (A) (A) (A) (A) (A) (A) (A)
                 (A) (A) (A) (A) (A) (A) (A) (A) (A) (A) (A) (A)
                 (A) (A) (A) (A) (A) (A) (A) (A) (A) (A) (A) (A)
                 (A) (A) (A) (A) (A) (A) (A) (A) (A) (A) (A) (A)
                 (A) (A) (A) (A) (A) (A) (A) (A) (A) (A) (A) (A)
                 (A) (A) (A) (A) (A) (A) (A) (A) (A) (A) (A) (A)
                 (A) (A) (A) (A) (A) (A) (A) (A) (A) (A) (A) (A)
                 (A) (A) (A) (A) (A) (A) (A) (A) (A) (A) (A) (A)
                 (A) (A) (A) (A) (A) (A) (A) (A) (A) (A) (A) (A)
                 (A) (A) (A) (A) (A) (A) (A) (A) (A) (A) (A) (A)
                 (A) (A) (A) (A) (A) (A) (A) (A) (A) (A) (A) (A)
                 (A) (A) (A) (A) (A) (A) (A) (A) (A) (A) (A) (A)
                 (A) (A) (A) (A) (A) (A) (A) (A) (A) (A) (A) (A)
                 (A) (A) (A) (A) (A) (A) (A) (A) (A) (A) (A) (A)
                 (A) (A) (A) (A) (A) (A) (A) (A) (A) (A) (A) (A)
                 (A) (A) (A) (A) (A) (A) (A) (A) (A) (A) (A) (A)
                 (A) (A) (A) (A) (A) (A) (A) (A) (A) (A) (A) (A)
                 (A) (A) (A) (A) (A) (A) (A) (A) (A) (A) (A) (A)
                 (A) (A) (A) (A) (A) (A) (A) (A) (A) (A) (A) (A)
                 (A) (A) (A) (A) (A) (A) (A) (A) (A) (A) (A) (A)
                 (A) (A) (A) (A) (A) (A) (A) (A) (A) (A) (A) (A)
                 (A) (A) (A) (A) (A) (A) (A) (A) (A) (A) (A) (A)
                 (A) (A) (A) (A) (A) (A) (A) (A) (A) (A) (A) (A)
                 (A) (A) (A) (A) (A) (A) (A) (A) (A) (A) (A) (A)
                 (A) (A) (A) (A) (A) (A)
 The electronic state is 1-A.
 Alpha  occ. eigenvalues --  -66.13987 -19.19336 -19.14486 -19.13484 -10.32272
 Alpha  occ. eigenvalues --  -10.26705 -10.25741 -10.20197 -10.20148 -10.19152
 Alpha  occ. eigenvalues --  -10.18931 -10.18867 -10.18210 -10.17969 -10.17779
 Alpha  occ. eigenvalues --  -10.16079 -10.15810 -10.15679  -5.28151  -3.64207
 Alpha  occ. eigenvalues --   -3.63975  -3.63939  -1.09921  -1.01470  -1.00725
 Alpha  occ. eigenvalues --   -0.83026  -0.80613  -0.77466  -0.75570  -0.71499
 Alpha  occ. eigenvalues --   -0.70250  -0.69505  -0.67839  -0.67409  -0.64191
 Alpha  occ. eigenvalues --   -0.61346  -0.59958  -0.55836  -0.53653  -0.51496
 Alpha  occ. eigenvalues --   -0.50910  -0.48387  -0.47741  -0.46473  -0.45509
 Alpha  occ. eigenvalues --   -0.44158  -0.43279  -0.42621  -0.42458  -0.41158
 Alpha  occ. eigenvalues --   -0.41038  -0.40799  -0.40512  -0.39907  -0.39431
 Alpha  occ. eigenvalues --   -0.39041  -0.38682  -0.38496  -0.37936  -0.37447
 Alpha  occ. eigenvalues --   -0.36744  -0.36155  -0.35851  -0.34768  -0.34313
 Alpha  occ. eigenvalues --   -0.34066  -0.32480  -0.31726  -0.30907  -0.29086
 Alpha  occ. eigenvalues --   -0.28510  -0.27240  -0.26540  -0.25280
 Alpha virt. eigenvalues --    0.00036   0.01705   0.05902   0.06864   0.08630
 Alpha virt. eigenvalues --    0.08777   0.09799   0.10119   0.10284   0.11651
 Alpha virt. eigenvalues --    0.12652   0.12912   0.13209   0.14224   0.14310
 Alpha virt. eigenvalues --    0.15008   0.15391   0.15752   0.16042   0.16605
 Alpha virt. eigenvalues --    0.17155   0.17497   0.17811   0.18475   0.18702
 Alpha virt. eigenvalues --    0.19104   0.19379   0.19848   0.20420   0.20919
 Alpha virt. eigenvalues --    0.21218   0.21834   0.22290   0.23314   0.23662
 Alpha virt. eigenvalues --    0.23958   0.24856   0.26676   0.27186   0.29583
 Alpha virt. eigenvalues --    0.29788   0.30617   0.31155   0.35937   0.36792
 Alpha virt. eigenvalues --    0.37755   0.38098   0.39987   0.41110   0.44446
 Alpha virt. eigenvalues --    0.46660   0.47254   0.47407   0.49716   0.50669
 Alpha virt. eigenvalues --    0.51479   0.52521   0.53780   0.54867   0.56352
 Alpha virt. eigenvalues --    0.57232   0.57932   0.59780   0.60631   0.60813
 Alpha virt. eigenvalues --    0.61663   0.62690   0.63505   0.64139   0.65312
 Alpha virt. eigenvalues --    0.66154   0.66521   0.67327   0.67401   0.67543
 Alpha virt. eigenvalues --    0.70514   0.71248   0.71722   0.72085   0.73748
 Alpha virt. eigenvalues --    0.73932   0.75315   0.75811   0.76416   0.77195
 Alpha virt. eigenvalues --    0.78094   0.79152   0.81686   0.81870   0.82572
 Alpha virt. eigenvalues --    0.83588   0.84197   0.84661   0.84783   0.85336
 Alpha virt. eigenvalues --    0.86092   0.86627   0.87638   0.88131   0.88546
 Alpha virt. eigenvalues --    0.88718   0.89865   0.90566   0.91050   0.91255
 Alpha virt. eigenvalues --    0.91692   0.92347   0.92717   0.93399   0.93960
 Alpha virt. eigenvalues --    0.94443   0.95029   0.95581   0.96434   0.97622
 Alpha virt. eigenvalues --    0.98367   0.98759   0.99747   1.00743   1.01556
 Alpha virt. eigenvalues --    1.02112   1.03211   1.04326   1.04629   1.07690
 Alpha virt. eigenvalues --    1.09743   1.11945   1.12476   1.14251   1.16226
 Alpha virt. eigenvalues --    1.18121   1.19280   1.21021   1.22222   1.26039
 Alpha virt. eigenvalues --    1.28618   1.29467   1.30971   1.31676   1.34992
 Alpha virt. eigenvalues --    1.36774   1.37155   1.40548   1.41971   1.43086
 Alpha virt. eigenvalues --    1.44918   1.45914   1.46257   1.47419   1.48213
 Alpha virt. eigenvalues --    1.49077   1.51129   1.54136   1.54746   1.55422
 Alpha virt. eigenvalues --    1.57448   1.59821   1.62271   1.63472   1.64265
 Alpha virt. eigenvalues --    1.65680   1.66963   1.68850   1.69671   1.70783
 Alpha virt. eigenvalues --    1.73189   1.74999   1.76069   1.77924   1.80327
 Alpha virt. eigenvalues --    1.81195   1.82249   1.83741   1.84458   1.85177
 Alpha virt. eigenvalues --    1.86829   1.88151   1.88622   1.90274   1.90660
 Alpha virt. eigenvalues --    1.91715   1.94585   1.94664   1.95272   1.97100
 Alpha virt. eigenvalues --    1.98801   1.99207   2.01216   2.02201   2.03350
 Alpha virt. eigenvalues --    2.04504   2.04811   2.04873   2.05761   2.06430
 Alpha virt. eigenvalues --    2.06901   2.07365   2.07968   2.08652   2.08840
 Alpha virt. eigenvalues --    2.10175   2.10406   2.10868   2.11416   2.11830
 Alpha virt. eigenvalues --    2.12748   2.13262   2.14025   2.14486   2.14853
 Alpha virt. eigenvalues --    2.16169   2.16519   2.17114   2.17923   2.18210
 Alpha virt. eigenvalues --    2.18983   2.22083   2.24388   2.25122   2.26369
 Alpha virt. eigenvalues --    2.27341   2.28296   2.30045   2.31291   2.33287
 Alpha virt. eigenvalues --    2.33541   2.34786   2.35250   2.36293   2.37179
 Alpha virt. eigenvalues --    2.38337   2.39154   2.39453   2.42008   2.42728
 Alpha virt. eigenvalues --    2.43678   2.45079   2.45699   2.49662   2.51496
 Alpha virt. eigenvalues --    2.53384   2.53797   2.54813   2.55423   2.57274
 Alpha virt. eigenvalues --    2.58870   2.60540   2.62086   2.63848   2.64104
 Alpha virt. eigenvalues --    2.64418   2.65698   2.68200   2.68417   2.68917
 Alpha virt. eigenvalues --    2.70594   2.72477   2.73816   2.74106   2.76168
 Alpha virt. eigenvalues --    2.76521   2.78394   2.79046   2.79806   2.80957
 Alpha virt. eigenvalues --    2.81508   2.82071   2.84523   2.84967   2.85243
 Alpha virt. eigenvalues --    2.85320   2.86082   2.86838   2.87946   2.88397
 Alpha virt. eigenvalues --    2.90846   2.91795   2.91948   2.92817   2.93591
 Alpha virt. eigenvalues --    2.95252   2.99442   3.02766   3.07568   3.12313
 Alpha virt. eigenvalues --    3.16941   3.19210   3.20235   3.20854   3.21108
 Alpha virt. eigenvalues --    3.21436   3.22632   3.26089   3.29107   3.32746
 Alpha virt. eigenvalues --    3.34399   3.36553   3.39875   3.43101   3.43452
 Alpha virt. eigenvalues --    3.43772   3.44400   3.44891   3.45084   3.45732
 Alpha virt. eigenvalues --    3.46164   3.47119   3.47658   3.48373   3.51961
 Alpha virt. eigenvalues --    3.54308   3.56669   3.67148   4.01315   4.14743
 Alpha virt. eigenvalues --    4.20746   4.27413   4.34441   4.41162   4.45469
 Alpha virt. eigenvalues --    4.46219   4.47673   4.48331   4.53161   4.57852
 Alpha virt. eigenvalues --    4.64013   4.66602   4.74826   4.79837   4.87081
          Condensed to atoms (all electrons):
               1          2          3          4          5          6
     1  C    4.823172   0.306250  -0.034782  -0.004226  -0.008983   0.393646
     2  C    0.306250   5.106157   0.341936  -0.052931  -0.018140  -0.051073
     3  C   -0.034782   0.341936   4.809109   0.292153  -0.018978  -0.001083
     4  C   -0.004226  -0.052931   0.292153   5.367049   0.287114  -0.000347
     5  C   -0.008983  -0.018140  -0.018978   0.287114   4.357432   0.001744
     6  H    0.393646  -0.051073  -0.001083  -0.000347   0.001744   0.612052
     7  H   -0.048294   0.384488  -0.034229  -0.007869   0.001076   0.005939
     8  H    0.000203  -0.007279  -0.028295   0.361327  -0.023876   0.000036
     9  H    0.000298   0.005409  -0.027763   0.356986  -0.020187   0.000025
    10  O    0.174666  -0.030262   0.006443  -0.105148   0.253172  -0.034086
    11  O    0.001937  -0.000010   0.001651  -0.083010   0.577493  -0.000106
    12  C    0.373600  -0.037053   0.002367  -0.001423  -0.000835  -0.050187
    13  C   -0.039588  -0.001633   0.000146   0.000113  -0.000052  -0.002221
    14  C   -0.030869   0.349618  -0.029815   0.005222   0.000487  -0.007574
    15  O    0.002794  -0.040570   0.188782  -0.025747   0.001360  -0.000055
    16  Si   0.000639  -0.005304  -0.013429   0.002121  -0.000570  -0.000051
    17  C    0.000001  -0.000091  -0.002200  -0.000019   0.000105   0.000000
    18  C    0.000033  -0.001554  -0.000637  -0.002381  -0.000016  -0.000001
    19  C    0.000000  -0.000076   0.001044  -0.000061   0.000000   0.000000
    20  H   -0.000001   0.000105  -0.000001   0.000038   0.000000   0.000000
    21  H   -0.000058  -0.000879   0.000421  -0.001106  -0.000036   0.000001
    22  H    0.000011  -0.000693  -0.000395   0.000161   0.000003   0.000000
    23  H    0.000000   0.000001  -0.000012   0.000001   0.000000   0.000000
    24  H    0.000000  -0.000005  -0.000043   0.000003   0.000000   0.000000
    25  H    0.000000   0.000002  -0.000038  -0.000004   0.000000   0.000000
    26  H    0.000000   0.000001   0.000041   0.000039  -0.000001   0.000000
    27  H    0.000000   0.000000   0.000036  -0.000318  -0.000002   0.000000
    28  H    0.000001  -0.000020  -0.000119   0.000237   0.000000   0.000000
    29  H    0.004019  -0.028240  -0.006948   0.000230  -0.000023   0.000233
    30  H   -0.003080  -0.029490   0.004349  -0.000136  -0.000014   0.000732
    31  H   -0.006723  -0.032753  -0.007876   0.000064  -0.000007   0.004900
    32  H   -0.033144   0.005199  -0.000055   0.000119   0.000162  -0.005031
    33  H   -0.033324  -0.009158  -0.000316  -0.000333   0.002077   0.005782
    34  H   -0.005098  -0.001347  -0.000020  -0.000001   0.000005   0.005630
    35  H   -0.005995   0.003619   0.000045  -0.000011   0.000009  -0.000347
    36  H    0.003987  -0.000035   0.000000  -0.000001  -0.000002  -0.000113
    37  C   -0.001032  -0.053125   0.351153  -0.070871   0.001533   0.001076
    38  C   -0.000073   0.004926  -0.038660  -0.007581  -0.000808  -0.000009
    39  C   -0.000013  -0.000023  -0.003132  -0.000306   0.001535   0.000002
    40  H    0.000564  -0.002667  -0.026372  -0.003442   0.001596  -0.000528
    41  H   -0.000014  -0.008717  -0.025527   0.005617  -0.000133  -0.000088
    42  H   -0.000001   0.000055  -0.002791  -0.000659   0.000069   0.000000
    43  H    0.000000   0.000003  -0.000049  -0.000052   0.000001   0.000000
    44  H   -0.000005  -0.000011   0.000087  -0.000036   0.000913   0.000000
               7          8          9         10         11         12
     1  C   -0.048294   0.000203   0.000298   0.174666   0.001937   0.373600
     2  C    0.384488  -0.007279   0.005409  -0.030262  -0.000010  -0.037053
     3  C   -0.034229  -0.028295  -0.027763   0.006443   0.001651   0.002367
     4  C   -0.007869   0.361327   0.356986  -0.105148  -0.083010  -0.001423
     5  C    0.001076  -0.023876  -0.020187   0.253172   0.577493  -0.000835
     6  H    0.005939   0.000036   0.000025  -0.034086  -0.000106  -0.050187
     7  H    0.632044   0.003312   0.000008   0.001827   0.000000  -0.007730
     8  H    0.003312   0.559019  -0.026392   0.000633   0.000161   0.000317
     9  H    0.000008  -0.026392   0.545573   0.002842   0.000807  -0.000014
    10  O    0.001827   0.000633   0.002842   8.321649  -0.073665  -0.045058
    11  O    0.000000   0.000161   0.000807  -0.073665   8.082828  -0.000030
    12  C   -0.007730   0.000317  -0.000014  -0.045058  -0.000030   4.953433
    13  C   -0.001539  -0.000059   0.000000   0.003221  -0.000001   0.343583
    14  C   -0.049126   0.000084  -0.000148   0.001594   0.000002   0.000834
    15  O   -0.004240  -0.002560   0.000297   0.000010  -0.000012  -0.000029
    16  Si  -0.000978   0.003776   0.001004   0.000032  -0.000062  -0.000150
    17  C   -0.000051  -0.001451  -0.000896   0.000000   0.000000   0.000000
    18  C    0.002360   0.000014   0.000099   0.000000   0.000000  -0.000046
    19  C   -0.000041   0.000001  -0.000005   0.000000   0.000000   0.000000
    20  H    0.000058  -0.000005   0.000000   0.000000   0.000000   0.000000
    21  H    0.001378   0.003018  -0.000012   0.000000   0.000000   0.000035
    22  H    0.001347  -0.000099   0.000000   0.000000   0.000000  -0.000011
    23  H    0.000001   0.000000   0.000000   0.000000   0.000000   0.000000
    24  H   -0.000013   0.000000   0.000000   0.000000   0.000000   0.000000
    25  H    0.000001   0.000001  -0.000001   0.000000   0.000000   0.000000
    26  H    0.000002   0.000033   0.000048   0.000000   0.000000   0.000000
    27  H    0.000001   0.000050   0.000657   0.000000   0.000000   0.000000
    28  H   -0.000011   0.000621   0.000999   0.000000  -0.000002   0.000000
    29  H   -0.002853  -0.000002   0.000000  -0.000058   0.000000  -0.000186
    30  H   -0.005550  -0.000006   0.000002   0.000015   0.000000  -0.000446
    31  H    0.005749   0.000002   0.000002   0.000131   0.000000   0.000159
    32  H    0.000371  -0.000009  -0.000002   0.001119  -0.000029   0.379843
    33  H    0.003861   0.001365   0.000022  -0.000471  -0.000158   0.378075
    34  H    0.000180   0.000001   0.000000   0.000017   0.000000  -0.037958
    35  H    0.003187  -0.000001   0.000000  -0.000013   0.000000  -0.034258
    36  H   -0.000170   0.000001   0.000000  -0.000062   0.000000  -0.024362
    37  C    0.005329   0.005351  -0.007640  -0.005615   0.000434   0.000038
    38  C   -0.000123   0.000233   0.009812   0.000164  -0.000548   0.000001
    39  C    0.000000   0.000034   0.003271  -0.000048  -0.000103   0.000000
    40  H    0.000004  -0.000051   0.000115   0.005938  -0.000523   0.000188
    41  H   -0.000083  -0.000118   0.000112   0.000166  -0.000001  -0.000004
    42  H    0.000003  -0.000012   0.000445  -0.000005   0.000002   0.000000
    43  H    0.000000   0.000000   0.000059   0.000000   0.000008   0.000000
    44  H    0.000000   0.000002  -0.000029  -0.000105   0.000502   0.000000
              13         14         15         16         17         18
     1  C   -0.039588  -0.030869   0.002794   0.000639   0.000001   0.000033
     2  C   -0.001633   0.349618  -0.040570  -0.005304  -0.000091  -0.001554
     3  C    0.000146  -0.029815   0.188782  -0.013429  -0.002200  -0.000637
     4  C    0.000113   0.005222  -0.025747   0.002121  -0.000019  -0.002381
     5  C   -0.000052   0.000487   0.001360  -0.000570   0.000105  -0.000016
     6  H   -0.002221  -0.007574  -0.000055  -0.000051   0.000000  -0.000001
     7  H   -0.001539  -0.049126  -0.004240  -0.000978  -0.000051   0.002360
     8  H   -0.000059   0.000084  -0.002560   0.003776  -0.001451   0.000014
     9  H    0.000000  -0.000148   0.000297   0.001004  -0.000896   0.000099
    10  O    0.003221   0.001594   0.000010   0.000032   0.000000   0.000000
    11  O   -0.000001   0.000002  -0.000012  -0.000062   0.000000   0.000000
    12  C    0.343583   0.000834  -0.000029  -0.000150   0.000000  -0.000046
    13  C    4.944864  -0.001267   0.000000  -0.000012   0.000000  -0.000023
    14  C   -0.001267   4.977348  -0.004359   0.001079   0.000002  -0.000036
    15  O    0.000000  -0.004359   8.290630   0.335174  -0.016831  -0.015653
    16  Si  -0.000012   0.001079   0.335174  11.851877   0.369840   0.367033
    17  C    0.000000   0.000002  -0.016831   0.369840   5.143565  -0.035293
    18  C   -0.000023  -0.000036  -0.015653   0.367033  -0.035293   5.149438
    19  C    0.000000  -0.000010  -0.019235   0.378433  -0.032917  -0.031699
    20  H    0.000000  -0.000004   0.000516  -0.013813  -0.000233   0.370677
    21  H   -0.000008   0.000004  -0.000549  -0.029009  -0.001470   0.373825
    22  H   -0.000005   0.000241  -0.000403  -0.027568   0.001357   0.377814
    23  H    0.000000   0.000000   0.000473  -0.014757  -0.000618  -0.000664
    24  H    0.000000  -0.000008  -0.000374  -0.025027   0.001393  -0.001307
    25  H    0.000000   0.000000  -0.000423  -0.024488  -0.001225   0.001386
    26  H    0.000000   0.000000   0.000551  -0.013481   0.369685  -0.000059
    27  H    0.000000   0.000000  -0.000586  -0.025948   0.378991   0.001292
    28  H    0.000000   0.000000  -0.000398  -0.026838   0.375492  -0.001630
    29  H    0.000006   0.379407   0.007111   0.002804   0.000007  -0.000163
    30  H    0.001862   0.378057   0.000091  -0.000147   0.000000   0.000002
    31  H   -0.000037   0.382248   0.000039  -0.000194   0.000000   0.000002
    32  H   -0.035620  -0.000249   0.000001   0.000010   0.000000   0.000000
    33  H   -0.034793   0.000127  -0.000012  -0.000258   0.000000  -0.000005
    34  H    0.388946  -0.000105   0.000000  -0.000002   0.000000   0.000000
    35  H    0.386299  -0.001923   0.000002  -0.000002   0.000000   0.000017
    36  H    0.380870   0.000109   0.000000   0.000000   0.000000   0.000000
    37  C   -0.000006  -0.010717  -0.064519  -0.001954   0.000015  -0.000051
    38  C    0.000000   0.000235   0.001853   0.001089  -0.000176   0.000004
    39  C    0.000000   0.000000   0.000360   0.000104  -0.000009   0.000000
    40  H   -0.000003  -0.000417   0.003478   0.000156   0.000000   0.000002
    41  H    0.000000   0.002815  -0.000700   0.000627   0.000001  -0.000001
    42  H    0.000000  -0.000011   0.003784   0.001685  -0.000040   0.000003
    43  H    0.000000   0.000000   0.000003   0.000007   0.000000   0.000000
    44  H    0.000000  -0.000001  -0.000001   0.000010   0.000000   0.000000
              19         20         21         22         23         24
     1  C    0.000000  -0.000001  -0.000058   0.000011   0.000000   0.000000
     2  C   -0.000076   0.000105  -0.000879  -0.000693   0.000001  -0.000005
     3  C    0.001044  -0.000001   0.000421  -0.000395  -0.000012  -0.000043
     4  C   -0.000061   0.000038  -0.001106   0.000161   0.000001   0.000003
     5  C    0.000000   0.000000  -0.000036   0.000003   0.000000   0.000000
     6  H    0.000000   0.000000   0.000001   0.000000   0.000000   0.000000
     7  H   -0.000041   0.000058   0.001378   0.001347   0.000001  -0.000013
     8  H    0.000001  -0.000005   0.003018  -0.000099   0.000000   0.000000
     9  H   -0.000005   0.000000  -0.000012   0.000000   0.000000   0.000000
    10  O    0.000000   0.000000   0.000000   0.000000   0.000000   0.000000
    11  O    0.000000   0.000000   0.000000   0.000000   0.000000   0.000000
    12  C    0.000000   0.000000   0.000035  -0.000011   0.000000   0.000000
    13  C    0.000000   0.000000  -0.000008  -0.000005   0.000000   0.000000
    14  C   -0.000010  -0.000004   0.000004   0.000241   0.000000  -0.000008
    15  O   -0.019235   0.000516  -0.000549  -0.000403   0.000473  -0.000374
    16  Si   0.378433  -0.013813  -0.029009  -0.027568  -0.014757  -0.025027
    17  C   -0.032917  -0.000233  -0.001470   0.001357  -0.000618   0.001393
    18  C   -0.031699   0.370677   0.373825   0.377814  -0.000664  -0.001307
    19  C    5.117780  -0.000944   0.001490  -0.001154   0.373644   0.375306
    20  H   -0.000944   0.564785  -0.022541  -0.022753   0.000093  -0.000029
    21  H    0.001490  -0.022541   0.584441  -0.023870   0.000002   0.000003
    22  H   -0.001154  -0.022753  -0.023870   0.575371  -0.000056   0.000659
    23  H    0.373644   0.000093   0.000002  -0.000056   0.566583  -0.023561
    24  H    0.375306  -0.000029   0.000003   0.000659  -0.023561   0.577737
    25  H    0.376323   0.000010  -0.000028   0.000003  -0.023571  -0.022028
    26  H   -0.001056   0.000017  -0.000022   0.000001   0.000061   0.000021
    27  H   -0.000927   0.000016   0.000002  -0.000024  -0.000018   0.000000
    28  H    0.001443  -0.000032   0.000679   0.000008  -0.000001  -0.000028
    29  H   -0.000104   0.000001  -0.000002   0.000119   0.000001   0.000120
    30  H    0.000000   0.000000   0.000001   0.000017   0.000000   0.000000
    31  H    0.000000   0.000000   0.000000  -0.000003   0.000000   0.000000
    32  H    0.000000   0.000000  -0.000002   0.000000   0.000000   0.000000
    33  H    0.000000   0.000001   0.000495   0.000002   0.000000   0.000000
    34  H    0.000000   0.000000   0.000000   0.000000   0.000000   0.000000
    35  H    0.000000   0.000000   0.000021   0.000243   0.000000   0.000000
    36  H    0.000000   0.000000  -0.000001  -0.000001   0.000000   0.000000
    37  C   -0.000007   0.000001  -0.000006  -0.000006   0.000000  -0.000002
    38  C   -0.000011   0.000000   0.000000   0.000000   0.000000   0.000000
    39  C    0.000000   0.000000   0.000000   0.000000   0.000000   0.000000
    40  H    0.000000   0.000000   0.000000   0.000000   0.000000   0.000000
    41  H   -0.000014   0.000000   0.000000   0.000000   0.000000   0.000000
    42  H   -0.000031   0.000000   0.000000   0.000000   0.000000   0.000000
    43  H    0.000000   0.000000   0.000000   0.000000   0.000000   0.000000
    44  H    0.000000   0.000000   0.000000   0.000000   0.000000   0.000000
              25         26         27         28         29         30
     1  C    0.000000   0.000000   0.000000   0.000001   0.004019  -0.003080
     2  C    0.000002   0.000001   0.000000  -0.000020  -0.028240  -0.029490
     3  C   -0.000038   0.000041   0.000036  -0.000119  -0.006948   0.004349
     4  C   -0.000004   0.000039  -0.000318   0.000237   0.000230  -0.000136
     5  C    0.000000  -0.000001  -0.000002   0.000000  -0.000023  -0.000014
     6  H    0.000000   0.000000   0.000000   0.000000   0.000233   0.000732
     7  H    0.000001   0.000002   0.000001  -0.000011  -0.002853  -0.005550
     8  H    0.000001   0.000033   0.000050   0.000621  -0.000002  -0.000006
     9  H   -0.000001   0.000048   0.000657   0.000999   0.000000   0.000002
    10  O    0.000000   0.000000   0.000000   0.000000  -0.000058   0.000015
    11  O    0.000000   0.000000   0.000000  -0.000002   0.000000   0.000000
    12  C    0.000000   0.000000   0.000000   0.000000  -0.000186  -0.000446
    13  C    0.000000   0.000000   0.000000   0.000000   0.000006   0.001862
    14  C    0.000000   0.000000   0.000000   0.000000   0.379407   0.378057
    15  O   -0.000423   0.000551  -0.000586  -0.000398   0.007111   0.000091
    16  Si  -0.024488  -0.013481  -0.025948  -0.026838   0.002804  -0.000147
    17  C   -0.001225   0.369685   0.378991   0.375492   0.000007   0.000000
    18  C    0.001386  -0.000059   0.001292  -0.001630  -0.000163   0.000002
    19  C    0.376323  -0.001056  -0.000927   0.001443  -0.000104   0.000000
    20  H    0.000010   0.000017   0.000016  -0.000032   0.000001   0.000000
    21  H   -0.000028  -0.000022   0.000002   0.000679  -0.000002   0.000001
    22  H    0.000003   0.000001  -0.000024   0.000008   0.000119   0.000017
    23  H   -0.023571   0.000061  -0.000018  -0.000001   0.000001   0.000000
    24  H   -0.022028   0.000021   0.000000  -0.000028   0.000120   0.000000
    25  H    0.574085  -0.000055   0.000506   0.000008  -0.000003   0.000000
    26  H   -0.000055   0.570333  -0.023092  -0.023420   0.000000   0.000000
    27  H    0.000506  -0.023092   0.571295  -0.022963   0.000000   0.000000
    28  H    0.000008  -0.023420  -0.022963   0.581436   0.000000   0.000000
    29  H   -0.000003   0.000000   0.000000   0.000000   0.573898  -0.029299
    30  H    0.000000   0.000000   0.000000   0.000000  -0.029299   0.601313
    31  H    0.000000   0.000000   0.000000   0.000000  -0.027701  -0.031520
    32  H    0.000000   0.000000   0.000000   0.000000   0.000004  -0.000034
    33  H    0.000000   0.000000   0.000000   0.000000   0.000009   0.000044
    34  H    0.000000   0.000000   0.000000   0.000000   0.000010   0.001236
    35  H    0.000000   0.000000   0.000000   0.000000   0.000125   0.001372
    36  H    0.000000   0.000000   0.000000   0.000000  -0.000002  -0.000018
    37  C    0.000007   0.000001   0.000007   0.000013  -0.000834   0.000132
    38  C   -0.000003   0.000002   0.000079  -0.000036  -0.000065  -0.000003
    39  C    0.000000   0.000000   0.000006  -0.000006   0.000000   0.000000
    40  H    0.000000   0.000000   0.000000   0.000000   0.000051  -0.000013
    41  H   -0.000001   0.000000   0.000000  -0.000001   0.000923  -0.000010
    42  H    0.000005   0.000000   0.000363  -0.000016   0.000002   0.000000
    43  H    0.000000   0.000000  -0.000001   0.000000   0.000000   0.000000
    44  H    0.000000   0.000000   0.000000   0.000000   0.000000   0.000000
              31         32         33         34         35         36
     1  C   -0.006723  -0.033144  -0.033324  -0.005098  -0.005995   0.003987
     2  C   -0.032753   0.005199  -0.009158  -0.001347   0.003619  -0.000035
     3  C   -0.007876  -0.000055  -0.000316  -0.000020   0.000045   0.000000
     4  C    0.000064   0.000119  -0.000333  -0.000001  -0.000011  -0.000001
     5  C   -0.000007   0.000162   0.002077   0.000005   0.000009  -0.000002
     6  H    0.004900  -0.005031   0.005782   0.005630  -0.000347  -0.000113
     7  H    0.005749   0.000371   0.003861   0.000180   0.003187  -0.000170
     8  H    0.000002  -0.000009   0.001365   0.000001  -0.000001   0.000001
     9  H    0.000002  -0.000002   0.000022   0.000000   0.000000   0.000000
    10  O    0.000131   0.001119  -0.000471   0.000017  -0.000013  -0.000062
    11  O    0.000000  -0.000029  -0.000158   0.000000   0.000000   0.000000
    12  C    0.000159   0.379843   0.378075  -0.037958  -0.034258  -0.024362
    13  C   -0.000037  -0.035620  -0.034793   0.388946   0.386299   0.380870
    14  C    0.382248  -0.000249   0.000127  -0.000105  -0.001923   0.000109
[...]
    14  C   -0.000033  -0.000002  -0.000002   0.000152   0.000000  -0.000021
    15  O   -0.025350   0.000520  -0.000590  -0.000509   0.000673  -0.000584
    16  Si   0.381358  -0.013817  -0.026317  -0.025330  -0.015031  -0.023683
    17  C   -0.028992  -0.000231  -0.001130   0.001212  -0.000249   0.001189
    18  C   -0.028205   0.368499   0.376020   0.377746  -0.000387  -0.001339
    19  C    5.112795  -0.000667   0.001217  -0.001134   0.368353   0.376952
    20  H   -0.000667   0.569806  -0.023598  -0.023627   0.000062  -0.000019
    21  H    0.001217  -0.023598   0.577579  -0.023831  -0.000001   0.000006
    22  H   -0.001134  -0.023627  -0.023831   0.573405  -0.000053   0.000545
    23  H    0.368353   0.000062  -0.000001  -0.000053   0.576258  -0.024096
    24  H    0.376952  -0.000019   0.000006   0.000545  -0.024096   0.572567
    25  H    0.377403   0.000006  -0.000021   0.000000  -0.024097  -0.022456
    26  H   -0.000661   0.000052  -0.000031   0.000001   0.000014   0.000009
    27  H   -0.001020   0.000010  -0.000001  -0.000021  -0.000034   0.000000
    28  H    0.001194  -0.000035   0.000477   0.000004   0.000001  -0.000021
    29  H   -0.000108   0.000001  -0.000001   0.000066   0.000001   0.000334
    30  H    0.000000   0.000000   0.000001   0.000011   0.000000  -0.000001
    31  H    0.000001   0.000000   0.000000  -0.000001   0.000000   0.000000
    32  H    0.000000   0.000000   0.000000   0.000000   0.000000   0.000000
    33  H    0.000000   0.000000   0.000117   0.000002   0.000000   0.000000
    34  H    0.000000   0.000000   0.000000   0.000000   0.000000   0.000000
    35  H    0.000000   0.000000  -0.000001   0.000060   0.000000   0.000000
    36  H    0.000000   0.000000   0.000000   0.000000   0.000000   0.000000
    37  C   -0.000010   0.000001  -0.000004  -0.000005   0.000000  -0.000002
    38  C   -0.000027   0.000000   0.000000   0.000000   0.000000   0.000000
    39  C    0.000000   0.000000   0.000000   0.000000   0.000000   0.000000
    40  H    0.000000   0.000000   0.000000   0.000000   0.000000   0.000000
    41  H   -0.000018   0.000000   0.000000   0.000000   0.000000  -0.000001
    42  H   -0.000069   0.000000   0.000000   0.000000   0.000000  -0.000001
    43  H    0.000000   0.000000   0.000000   0.000000   0.000000   0.000000
    44  H    0.000000   0.000000   0.000000   0.000000   0.000000   0.000000
              25         26         27         28         29         30
     1  C    0.000000   0.000000   0.000000   0.000000   0.004034  -0.002285
     2  C    0.000002   0.000001  -0.000001  -0.000012  -0.030454  -0.029405
     3  C   -0.000047   0.000021  -0.000012  -0.000050  -0.007663   0.004213
     4  C   -0.000006   0.000030  -0.000164   0.000343   0.000294  -0.000135
     5  C    0.000000   0.000000  -0.000001  -0.000014  -0.000024  -0.000012
     6  H    0.000000   0.000000   0.000000   0.000000   0.000185   0.000128
     7  H    0.000001   0.000001   0.000001  -0.000008  -0.002390  -0.005438
     8  H    0.000001   0.000023   0.000050   0.000362   0.000000  -0.000006
     9  H   -0.000001   0.000028   0.000375   0.000811  -0.000002   0.000003
    10  O    0.000000   0.000000   0.000000   0.000000  -0.000051  -0.000002
    11  O    0.000000   0.000000   0.000000   0.000000   0.000000   0.000000
    12  C    0.000000   0.000000   0.000000   0.000000  -0.000153  -0.000490
    13  C    0.000000   0.000000   0.000000   0.000000   0.000019   0.001870
    14  C    0.000000   0.000000   0.000000   0.000000   0.379147   0.378267
    15  O   -0.000569   0.000560  -0.000676  -0.000490   0.008552   0.000082
    16  Si  -0.022762  -0.013861  -0.025149  -0.023640   0.002809  -0.000127
    17  C   -0.001228   0.367780   0.379150   0.376806   0.000008   0.000000
    18  C    0.001194  -0.000098   0.001180  -0.001306  -0.000170   0.000001
    19  C    0.377403  -0.000661  -0.001020   0.001194  -0.000108   0.000000
    20  H    0.000006   0.000052   0.000010  -0.000035   0.000001   0.000000
    21  H   -0.000021  -0.000031  -0.000001   0.000477  -0.000001   0.000001
    22  H    0.000000   0.000001  -0.000021   0.000004   0.000066   0.000011
    23  H   -0.024097   0.000014  -0.000034   0.000001   0.000001   0.000000
    24  H   -0.022456   0.000009   0.000000  -0.000021   0.000334  -0.000001
    25  H    0.569487  -0.000033   0.000425   0.000006  -0.000007   0.000000
    26  H   -0.000033   0.573893  -0.023814  -0.023883   0.000000   0.000000
    27  H    0.000425  -0.023814   0.570407  -0.023361   0.000000   0.000000
    28  H    0.000006  -0.023883  -0.023361   0.573401   0.000000   0.000000
    29  H   -0.000007   0.000000   0.000000   0.000000   0.571887  -0.027859
    30  H    0.000000   0.000000   0.000000   0.000000  -0.027859   0.596751
    31  H    0.000000   0.000000   0.000000   0.000000  -0.028023  -0.031189
    32  H    0.000000   0.000000   0.000000   0.000000   0.000005  -0.000033
    33  H    0.000000   0.000000   0.000000   0.000000   0.000009   0.000066
    34  H    0.000000   0.000000   0.000000   0.000000   0.000013   0.001256
    35  H    0.000000   0.000000   0.000000   0.000000   0.000148   0.002148
    36  H    0.000000   0.000000   0.000000   0.000000  -0.000004  -0.000004
    37  C    0.000011   0.000001   0.000008   0.000012  -0.001099   0.000178
    38  C   -0.000009   0.000003   0.000087  -0.000033  -0.000077  -0.000002
    39  C    0.000000   0.000000   0.000006  -0.000006   0.000000   0.000000
    40  H    0.000000   0.000000   0.000000   0.000000   0.000059  -0.000010
    41  H   -0.000002   0.000000   0.000001  -0.000001   0.001314  -0.000065
    42  H    0.000054   0.000000   0.000548  -0.000017   0.000001   0.000000
    43  H    0.000000   0.000000  -0.000002   0.000000   0.000000   0.000000
    44  H    0.000000   0.000000   0.000000   0.000000   0.000000   0.000000
              31         32         33         34         35         36
     1  C   -0.007319  -0.035252  -0.034645  -0.004648  -0.005642   0.003947
     2  C   -0.032254   0.005232  -0.010034  -0.001412   0.003816  -0.000055
     3  C   -0.007843  -0.000085  -0.000315  -0.000020   0.000002   0.000001
     4  C    0.000052   0.000077   0.000010   0.000000  -0.000009   0.000000
     5  C   -0.000008   0.000140   0.001379   0.000003   0.000008  -0.000002
     6  H    0.005961  -0.005473   0.006100   0.004922  -0.000287  -0.000111
     7  H    0.005395   0.000262   0.005399   0.000172   0.001904  -0.000110
     8  H    0.000003  -0.000004   0.000616   0.000000   0.000000   0.000000
     9  H    0.000003  -0.000002   0.000010   0.000000   0.000000   0.000000
    10  O    0.000077   0.001421   0.000351   0.000007  -0.000015  -0.000058
    11  O    0.000000  -0.000021  -0.000122   0.000000   0.000000   0.000000
    12  C    0.000100   0.380860   0.376553  -0.035984  -0.031977  -0.024083
    13  C    0.000005  -0.034565  -0.033934   0.388401   0.386585   0.379831
    14  C    0.382528  -0.000245   0.000108  -0.000063  -0.002915   0.000162
    15  O    0.000070   0.000001  -0.000009   0.000000   0.000001   0.000000
    16  Si  -0.000186   0.000006  -0.000130  -0.000001   0.000014   0.000000
    17  C    0.000000   0.000000   0.000000   0.000000   0.000000   0.000000
    18  C    0.000002   0.000000   0.000001   0.000000  -0.000003   0.000000
    19  C    0.000001   0.000000   0.000000   0.000000   0.000000   0.000000
    20  H    0.000000   0.000000   0.000000   0.000000   0.000000   0.000000
    21  H    0.000000   0.000000   0.000117   0.000000  -0.000001   0.000000
    22  H   -0.000001   0.000000   0.000002   0.000000   0.000060   0.000000
    23  H    0.000000   0.000000   0.000000   0.000000   0.000000   0.000000
    24  H    0.000000   0.000000   0.000000   0.000000   0.000000   0.000000
    25  H    0.000000   0.000000   0.000000   0.000000   0.000000   0.000000
    26  H    0.000000   0.000000   0.000000   0.000000   0.000000   0.000000
    27  H    0.000000   0.000000   0.000000   0.000000   0.000000   0.000000
    28  H    0.000000   0.000000   0.000000   0.000000   0.000000   0.000000
    29  H   -0.028023   0.000005   0.000009   0.000013   0.000148  -0.000004
    30  H   -0.031189  -0.000033   0.000066   0.001256   0.002148  -0.000004
    31  H    0.592874   0.000013   0.000003   0.000047   0.000046  -0.000005
    32  H    0.000013   0.609624  -0.035542  -0.003848   0.004997  -0.005198
    33  H    0.000003  -0.035542   0.621146   0.005267  -0.005489  -0.003040
    34  H    0.000047  -0.003848   0.005267   0.596451  -0.034400  -0.030263
    35  H    0.000046   0.004997  -0.005489  -0.034400   0.594091  -0.029764
    36  H   -0.000005  -0.005198  -0.003040  -0.030263  -0.029764   0.593379
    37  C    0.002812   0.000003   0.000012   0.000001   0.000000   0.000000
    38  C   -0.000041   0.000000   0.000000   0.000000   0.000000   0.000000
    39  C    0.000000   0.000000   0.000000   0.000000   0.000000   0.000000
    40  H    0.000521   0.000004  -0.000002   0.000000   0.000000   0.000000
    41  H    0.001798   0.000000   0.000000   0.000000   0.000000   0.000000
    42  H    0.000006   0.000000   0.000000   0.000000   0.000000   0.000000
    43  H    0.000000   0.000000   0.000000   0.000000   0.000000   0.000000
    44  H    0.000001   0.000000   0.000000   0.000000   0.000000   0.000000
              37         38         39         40         41         42
     1  C   -0.000494  -0.000110  -0.000013   0.001316  -0.000078   0.000000
     2  C   -0.054951   0.005029  -0.000043  -0.002946  -0.010266   0.000079
     3  C    0.349629  -0.036538  -0.002228  -0.025832  -0.030284  -0.004035
     4  C   -0.073507  -0.008925  -0.000211  -0.004973   0.006586  -0.000678
     5  C    0.002204  -0.000459   0.000804   0.002352  -0.000140   0.000059
     6  H    0.001837  -0.000016   0.000002  -0.000534  -0.000131   0.000000
     7  H    0.005770  -0.000134   0.000000  -0.000019  -0.000061   0.000002
     8  H    0.005782   0.000183   0.000019  -0.000002  -0.000156  -0.000009
     9  H   -0.008763   0.010558   0.003289   0.000151   0.000148   0.000460
    10  O   -0.005290   0.000148  -0.000028   0.005650   0.000107  -0.000003
    11  O    0.000466  -0.000319  -0.000027  -0.000598   0.000000   0.000001
    12  C   -0.000030   0.000001   0.000000   0.000177  -0.000007   0.000000
    13  C   -0.000003   0.000000   0.000000  -0.000004   0.000000   0.000000
    14  C   -0.010598   0.000185   0.000001  -0.000242   0.003384  -0.000011
    15  O   -0.066957   0.001527   0.000458   0.003566  -0.000216   0.004646
    16  Si  -0.001797   0.001042   0.000091   0.000114   0.000581   0.002047
    17  C    0.000017  -0.000208  -0.000009   0.000000   0.000002  -0.000034
    18  C   -0.000056   0.000004   0.000000   0.000001   0.000000   0.000004
    19  C   -0.000010  -0.000027   0.000000   0.000000  -0.000018  -0.000069
    20  H    0.000001   0.000000   0.000000   0.000000   0.000000   0.000000
    21  H   -0.000004   0.000000   0.000000   0.000000   0.000000   0.000000
    22  H   -0.000005   0.000000   0.000000   0.000000   0.000000   0.000000
    23  H    0.000000   0.000000   0.000000   0.000000   0.000000   0.000000
    24  H   -0.000002   0.000000   0.000000   0.000000  -0.000001  -0.000001
    25  H    0.000011  -0.000009   0.000000   0.000000  -0.000002   0.000054
    26  H    0.000001   0.000003   0.000000   0.000000   0.000000   0.000000
    27  H    0.000008   0.000087   0.000006   0.000000   0.000001   0.000548
    28  H    0.000012  -0.000033  -0.000006   0.000000  -0.000001  -0.000017
    29  H   -0.001099  -0.000077   0.000000   0.000059   0.001314   0.000001
    30  H    0.000178  -0.000002   0.000000  -0.000010  -0.000065   0.000000
    31  H    0.002812  -0.000041   0.000000   0.000521   0.001798   0.000006
    32  H    0.000003   0.000000   0.000000   0.000004   0.000000   0.000000
    33  H    0.000012   0.000000   0.000000  -0.000002   0.000000   0.000000
    34  H    0.000001   0.000000   0.000000   0.000000   0.000000   0.000000
    35  H    0.000000   0.000000   0.000000   0.000000   0.000000   0.000000
    36  H    0.000000   0.000000   0.000000   0.000000   0.000000   0.000000
    37  C    5.067093   0.384605  -0.039957   0.360802   0.366379  -0.051014
    38  C    0.384605   4.771026   0.654812  -0.037816  -0.032989   0.384964
    39  C   -0.039957   0.654812   4.933938  -0.006161   0.000918  -0.045876
    40  H    0.360802  -0.037816  -0.006161   0.615302  -0.029988   0.005146
    41  H    0.366379  -0.032989   0.000918  -0.029988   0.603044  -0.002325
    42  H   -0.051014   0.384964  -0.045876   0.005146  -0.002325   0.604544
    43  H    0.004669  -0.025970   0.376193   0.000088  -0.000211  -0.008002
    44  H   -0.011825  -0.034170   0.381993   0.005816   0.000168   0.005632
              43         44
     1  C    0.000000  -0.000005
     2  C    0.000003  -0.000008
     3  C   -0.000054   0.000094
     4  C   -0.000047  -0.000046
     5  C   -0.000002   0.000411
     6  H    0.000000   0.000001
     7  H    0.000000   0.000000
     8  H    0.000000   0.000001
     9  H    0.000059   0.000000
    10  O    0.000000  -0.000050
    11  O    0.000003   0.000176
    12  C    0.000000   0.000000
    13  C    0.000000   0.000000
    14  C    0.000000   0.000000
    15  O    0.000003  -0.000002
    16  Si   0.000009   0.000010
    17  C    0.000000   0.000000
    18  C    0.000000   0.000000
    19  C    0.000000   0.000000
    20  H    0.000000   0.000000
    21  H    0.000000   0.000000
    22  H    0.000000   0.000000
    23  H    0.000000   0.000000
    24  H    0.000000   0.000000
    25  H    0.000000   0.000000
    26  H    0.000000   0.000000
    27  H   -0.000002   0.000000
    28  H    0.000000   0.000000
    29  H    0.000000   0.000000
    30  H    0.000000   0.000000
    31  H    0.000000   0.000001
    32  H    0.000000   0.000000
    33  H    0.000000   0.000000
    34  H    0.000000   0.000000
    35  H    0.000000   0.000000
    36  H    0.000000   0.000000
    37  C    0.004669  -0.011825
    38  C   -0.025970  -0.034170
    39  C    0.376193   0.381993
    40  H    0.000088   0.005816
    41  H   -0.000211   0.000168
    42  H   -0.008002   0.005632
    43  H    0.592427  -0.043337
    44  H   -0.043337   0.590294
 Mulliken charges:
               1
     1  C    0.171719
     2  C   -0.093962
     3  C    0.306768
     4  C   -0.305579
     5  C    0.591544
     6  H    0.116133
     7  H    0.105067
     8  H    0.145158
     9  H    0.149056
    10  O   -0.484020
    11  O   -0.499486
    12  C   -0.185707
    13  C   -0.334409
    14  C   -0.342172
    15  O   -0.647238
    16  Si   0.913459
    17  C   -0.550126
    18  C   -0.555911
    19  C   -0.533880
    20  H    0.122944
    21  H    0.117617
    22  H    0.120686
    23  H    0.118595
    24  H    0.120687
    25  H    0.122647
    26  H    0.119965
    27  H    0.122005
    28  H    0.119459
    29  H    0.129198
    30  H    0.112091
    31  H    0.114554
    32  H    0.117622
    33  H    0.106115
    34  H    0.114100
    35  H    0.116683
    36  H    0.115375
    37  C   -0.225928
    38  C   -0.036330
    39  C   -0.257966
    40  H    0.108061
    41  H    0.122509
    42  H    0.103879
    43  H    0.104172
    44  H    0.104847
 Sum of Mulliken charges =   0.00000
 Mulliken charges with hydrogens summed into heavy atoms:
               1
     1  C    0.287853
     2  C    0.011105
     3  C    0.306768
     4  C   -0.011365
     5  C    0.591544
    10  O   -0.484020
    11  O   -0.499486
    12  C    0.038030
    13  C    0.011749
    14  C    0.013671
    15  O   -0.647238
    16  Si   0.913459
    17  C   -0.188697
    18  C   -0.194664
    19  C   -0.171952
    37  C    0.004642
    38  C    0.067549
    39  C   -0.048947
 Electronic spatial extent (au):  <R**2>=           5358.4845
 Charge=              0.0000 electrons
 Dipole moment (field-independent basis, Debye):
    X=             -1.8131    Y=             -4.8009    Z=              1.9476  Tot=              5.4890
 Quadrupole moment (field-independent basis, Debye-Ang):
   XX=           -116.9532   YY=           -122.6296   ZZ=           -122.8437
   XY=             -9.7344   XZ=              9.7029   YZ=              7.9660
 Traceless Quadrupole moment (field-independent basis, Debye-Ang):
   XX=              3.8557   YY=             -1.8208   ZZ=             -2.0349
   XY=             -9.7344   XZ=              9.7029   YZ=              7.9660
 Octapole moment (field-independent basis, Debye-Ang**2):
  XXX=             -7.5207  YYY=            -10.4081  ZZZ=              3.4132  XYY=            -13.6293
  XXY=            -28.3107  XXZ=             10.1668  XZZ=             -4.6535  YZZ=            -21.1804
  YYZ=             15.9498  XYZ=             14.9789
 Hexadecapole moment (field-independent basis, Debye-Ang**3):
 XXXX=          -3579.2628 YYYY=          -2439.2789 ZZZZ=          -1126.8476 XXXY=            -44.0040
 XXXZ=             39.4095 YYYX=            -37.1871 YYYZ=             19.8139 ZZZX=             12.7069
 ZZZY=              5.3010 XXYY=          -1010.5200 XXZZ=           -809.6746 YYZZ=           -657.9804
 XXYZ=             52.7212 YYXZ=             33.5878 ZZXY=            -22.3520
 N-N= 1.631134364432D+03 E-N=-5.752585108706D+03  KE= 1.055904687066D+03
 1\1\GINC-CPU-E-611\FOpt\RB3LYP\6-31G(d,p)\C14H26O3Si1\KE291\06-Feb-201
 9\0\\# b3lyp/6-31g(d,p) Opt=(maxcycles=25) scrf=(solvent=chloroform)\\
 P_ng_2ginp013\\0,1\C,0.0677081073,0.1193548799,1.1443152248\C,-0.86354
 19421,1.1682367957,0.4781895413\C,-2.1384021121,1.467930562,1.31722125
 15\C,-1.6698746889,1.7796395498,2.7467759494\C,-0.9233741258,0.6228668
 817,3.3749541081\H,-0.0886698147,-0.8507902984,0.6603033429\H,-0.32025
 74152,2.1218326911,0.4556189174\H,-0.9954941992,2.6447455651,2.7337620
 875\H,-2.5060864209,2.0177192449,3.4050196325\O,-0.2143176432,-0.17707
 42851,2.5521270072\O,-0.9505457032,0.370130923,4.560841474\C,1.5615112
 851,0.4721406075,1.0985372233\C,2.1728946087,0.576115427,-0.3019050447
 \C,-1.1817036499,0.7756374138,-0.9730050023\O,-2.8258188494,2.57162872
 13,0.7348624559\Si,-2.7763430952,4.2496880112,0.8497123189\C,-3.474049
 9597,4.842361563,2.499570973\C,-1.0358645144,4.9428312105,0.6060431843
 \C,-3.8862323599,4.8179676466,-0.5581916517\H,-1.0769810598,6.03863968
 6,0.6023526184\H,-0.3410486569,4.6498759885,1.4001089888\H,-0.60728981
 67,4.6270829639,-0.3510817552\H,-3.9597539172,5.9110369749,-0.57874306
 41\H,-3.4942501398,4.4898770054,-1.5264956045\H,-4.8994191456,4.416544
 9848,-0.4528406354\H,-3.5906725408,5.932419947,2.4867628859\H,-4.46040
 90065,4.405788662,2.689051049\H,-2.8275287094,4.5913263836,3.346222651
 4\H,-1.8687489101,1.5007028685,-1.4157447253\H,-0.2771079573,0.7491405
 488,-1.5844708147\H,-1.6449921855,-0.2141192424,-1.0311666463\H,2.0891
 950301,-0.2993809253,1.6695532745\H,1.7072778854,1.4159817461,1.639729
 3445\H,2.0093788372,-0.3392952577,-0.8808262493\H,1.7625246916,1.41493
 80298,-0.8716141498\H,3.2532389717,0.7308493584,-0.2264103096\C,-3.145
 2520116,0.285998694,1.3068553315\C,-4.3646858626,0.5116886838,2.158343
 0063\C,-4.7497313173,-0.2770755308,3.1629098089\H,-2.6386349443,-0.633
 9379612,1.6183761345\H,-3.4603313285,0.1472527861,0.2664347758\H,-4.96
 27207616,1.3853139993,1.9043022729\H,-5.6499088705,-0.07220916,3.73522
 71959\H,-4.1813917813,-1.1592433441,3.4487986228\\Version=ES64L-G09Rev
 D.01\State=1-A\HF=-1064.4211413\RMSD=9.809e-09\RMSF=9.343e-06\Dipole=0
 .3089337,1.0359508,-1.869475\Quadrupole=5.2072572,3.8192946,-9.0265518
 ,-0.1298672,-5.5742483,7.2790386\PG=C01 [X(C14H26O3Si1)]\\@


 The cat could very well be man's best friend
 but would never stoop to admitting it.
                               -- Doug Larson
 Job cpu time:       0 days  1 hours 57 minutes 49.5 seconds.
 File lengths (MBytes):  RWF=    374 Int=      0 D2E=      0 Chk=     17 Scr=      1
 Normal termination of Gaussian 09 at Wed Feb  6 11:09:49 2019.
