 Entering Gaussian System, Link 0=/usr/local/Cluster-Apps/gaussian/g09/g09
 Initial command:
 /usr/local/Cluster-Apps/gaussian/g09/l1.exe "/home/ke291/rds/hpc-work/06Feb0927IP1/Gau-382669.inp" -scrdir="/home/ke291/rds/hpc-work/06Feb0927IP1/"
 Entering Link 1 = /usr/local/Cluster-Apps/gaussian/g09/l1.exe PID=    382674.
  
 Copyright (c) 1988,1990,1992,1993,1995,1998,2003,2009,2013,
            Gaussian, Inc.  All Rights Reserved.
  
 This is part of the Gaussian(R) 09 program.  It is based on
 the Gaussian(R) 03 system (copyright 2003, Gaussian, Inc.),
 the Gaussian(R) 98 system (copyright 1998, Gaussian, Inc.),
 the Gaussian(R) 94 system (copyright 1995, Gaussian, Inc.),
 the Gaussian 92(TM) system (copyright 1992, Gaussian, Inc.),
 the Gaussian 90(TM) system (copyright 1990, Gaussian, Inc.),
 the Gaussian 88(TM) system (copyright 1988, Gaussian, Inc.),
 the Gaussian 86(TM) system (copyright 1986, Carnegie Mellon
 University), and the Gaussian 82(TM) system (copyright 1983,
 Carnegie Mellon University). Gaussian is a federally registered
 trademark of Gaussian, Inc.
  
 This software contains proprietary and confidential information,
 including trade secrets, belonging to Gaussian, Inc.
  
 This software is provided under written license and may be
 used, copied, transmitted, or stored only in accord with that
 written license.
  
 The following legend is applicable only to US Government
 contracts under FAR:
  
                    RESTRICTED RIGHTS LEGEND
  
 Use, reproduction and disclosure by the US Government is
 subject to restrictions as set forth in subparagraphs (a)
 and (c) of the Commercial Computer Software - Restricted
 Rights clause in FAR 52.227-19.
  
 Gaussian, Inc.
 340 Quinnipiac St., Bldg. 40, Wallingford CT 06492
  
  
 ---------------------------------------------------------------
 Warning -- This program may not be used in any manner that
 competes with the business of Gaussian, Inc. or will provide
 assistance to any competitor of Gaussian, Inc.  The licensee
 of this program is prohibited from giving any competitor of
 Gaussian, Inc. access to this program.  By using this program,
 the user acknowledges that Gaussian, Inc. is engaged in the
 business of creating and licensing software in the field of
 computational chemistry and represents and warrants to the
 licensee that it is not a competitor of Gaussian, Inc. and that
 it will not use this program in any manner prohibited above.
 ---------------------------------------------------------------
  

 Cite this work as:
 Gaussian 09, Revision D.01,
 M. J. Frisch, G. W. Trucks, H. B. Schlegel, G. E. Scuseria, 
 M. A. Robb, J. R. Cheeseman, G. Scalmani, V. Barone, B. Mennucci, 
 G. A. Petersson, H. Nakatsuji, M. Caricato, X. Li, H. P. Hratchian, 
 A. F. Izmaylov, J. Bloino, G. Zheng, J. L. Sonnenberg, M. Hada, 
 M. Ehara, K. Toyota, R. Fukuda, J. Hasegawa, M. Ishida, T. Nakajima, 
 Y. Honda, O. Kitao, H. Nakai, T. Vreven, J. A. Montgomery, Jr., 
 J. E. Peralta, F. Ogliaro, M. Bearpark, J. J. Heyd, E. Brothers, 
 K. N. Kudin, V. N. Staroverov, T. Keith, R. Kobayashi, J. Normand, 
 K. Raghavachari, A. Rendell, J. C. Burant, S. S. Iyengar, J. Tomasi, 
 M. Cossi, N. Rega, J. M. Millam, M. Klene, J. E. Knox, J. B. Cross, 
 V. Bakken, C. Adamo, J. Jaramillo, R. Gomperts, R. E. Stratmann, 
 O. Yazyev, A. J. Austin, R. Cammi, C. Pomelli, J. W. Ochterski, 
 R. L. Martin, K. Morokuma, V. G. Zakrzewski, G. A. Voth, 
 P. Salvador, J. J. Dannenberg, S. Dapprich, A. D. Daniels, 
 O. Farkas, J. B. Foresman, J. V. Ortiz, J. Cioslowski, 
 and D. J. Fox, Gaussian, Inc., Wallingford CT, 2013.
 
 ******************************************
 Gaussian 09:  ES64L-G09RevD.01 24-Apr-2013
                 6-Feb-2019 
 ******************************************
 %nprocshared=2
 Will use up to    2 processors via shared memory.
 %mem=6000MB
 %chk=/home/ke291/rds/hpc-work/06Feb0927IP1/P_ng_4ginp004.chk
 ---------------------------------------------------------------
 # b3lyp/6-31g(d,p) Opt=(maxcycles=25) scrf=(solvent=chloroform)
 ---------------------------------------------------------------
 1/6=25,14=-1,18=20,19=15,26=3,38=1/1,3;
 2/9=110,12=2,17=6,18=5,40=1/2;
 3/5=1,6=6,7=101,11=2,16=1,25=1,30=1,70=2201,71=1,72=7,74=-5/1,2,3;
 4//1;
 5/5=2,38=5,53=7/2;
 6/7=2,8=2,9=2,10=2,28=1/1;
 7//1,2,3,16;
 1/6=25,14=-1,18=20,19=15,26=3/3(2);
 2/9=110/2;
 99//99;
 2/9=110/2;
 3/5=1,6=6,7=101,11=2,16=1,25=1,30=1,70=2205,71=1,72=7,74=-5/1,2,3;
 4/5=5,16=3,69=1/1;
 5/5=2,38=5,53=7/2;
 7//1,2,3,16;
 1/6=25,14=-1,18=20,19=15,26=3/3(-5);
 2/9=110/2;
 6/7=2,8=2,9=2,10=2,19=2,28=1/1;
 99/9=1/99;
 -------------
 P_ng_4ginp004
 -------------
 Symbolic Z-matrix:
 Charge =  0 Multiplicity = 1
 C                     0.0933    2.07963  -0.46894 
 C                    -0.16446   1.31392   0.83382 
 C                    -1.16667   2.13164   1.71592 
 C                    -0.54124   3.5092    1.9702 
 C                     0.06504   4.18466   0.76887 
 H                    -0.83926   2.19929  -1.03062 
 H                    -0.61523   0.34034   0.60528 
 H                    -1.30435   4.195     2.35335 
 H                     0.23901   3.44738   2.73832 
 O                     0.58119   3.41179  -0.20786 
 O                     0.18141   5.40678   0.727 
 C                     1.09283   1.42853  -1.43831 
 C                     0.67972   0.04152  -1.90283 
 C                     1.14852   0.9907    1.58021 
 O                    -1.28058   1.3679    2.93799 
 Si                   -2.18838   1.67608   4.30855 
 C                    -1.32584   0.87087   5.78898 
 C                    -2.40837   3.48973   4.72223 
 C                    -3.89683   0.89453   4.17588 
 H                    -2.94121   3.59998   5.67192 
 H                    -1.44103   3.99028   4.82219 
 H                    -2.99243   4.00342   3.95362 
 H                    -4.43065   0.98145   5.12696 
 H                    -4.49466   1.38799   3.40497 
 H                    -3.8139   -0.16678   3.92434 
 H                    -1.90665   1.02874   6.70228 
 H                    -1.21768  -0.20527   5.62586 
 H                    -0.33097   1.30343   5.92881 
 H                     1.76974   0.30382   0.99673 
 H                     1.74412   1.88694   1.7778 
 H                     0.95808   0.49283   2.53599 
 H                     2.0962    1.39678  -0.99788 
 H                     1.19426   2.07768  -2.31823 
 H                     1.37734  -0.32253  -2.66392 
 H                     0.68412  -0.67801  -1.07925 
 H                    -0.3223    0.05773  -2.34306 
 C                    -2.55996   2.3082    1.0178 
 C                    -3.18809   1.02905   0.52586 
 C                    -3.60821   0.83018  -0.73001 
 H                    -2.47831   3.02111   0.18801 
 H                    -3.26967   2.76589   1.71643 
 H                    -3.30565   0.22515   1.25038 
 H                    -4.05716  -0.11557  -1.02014 
 H                    -3.52565   1.59731  -1.49383 
 

 GradGradGradGradGradGradGradGradGradGradGradGradGradGradGradGradGradGrad
 Berny optimization.
 Initialization pass.
                           ----------------------------
                           !    Initial Parameters    !
                           ! (Angstroms and Degrees)  !
 --------------------------                            --------------------------
 ! Name  Definition              Value          Derivative Info.                !
 --------------------------------------------------------------------------------
 ! R1    R(1,2)                  1.5329         estimate D2E/DX2                !
 ! R2    R(1,6)                  1.0952         estimate D2E/DX2                !
 ! R3    R(1,10)                 1.4425         estimate D2E/DX2                !
 ! R4    R(1,12)                 1.5371         estimate D2E/DX2                !
 ! R5    R(2,3)                  1.5656         estimate D2E/DX2                !
 ! R6    R(2,7)                  1.0969         estimate D2E/DX2                !
 ! R7    R(2,14)                 1.5445         estimate D2E/DX2                !
 ! R8    R(3,4)                  1.5341         estimate D2E/DX2                !
 ! R9    R(3,15)                 1.4456         estimate D2E/DX2                !
 ! R10   R(3,37)                 1.5684         estimate D2E/DX2                !
 ! R11   R(4,5)                  1.5057         estimate D2E/DX2                !
 ! R12   R(4,8)                  1.0952         estimate D2E/DX2                !
 ! R13   R(4,9)                  1.0966         estimate D2E/DX2                !
 ! R14   R(5,10)                 1.3482         estimate D2E/DX2                !
 ! R15   R(5,11)                 1.2284         estimate D2E/DX2                !
 ! R16   R(12,13)                1.5199         estimate D2E/DX2                !
 ! R17   R(12,32)                1.0962         estimate D2E/DX2                !
 ! R18   R(12,33)                1.0981         estimate D2E/DX2                !
 ! R19   R(13,34)                1.0947         estimate D2E/DX2                !
 ! R20   R(13,35)                1.0936         estimate D2E/DX2                !
 ! R21   R(13,36)                1.0946         estimate D2E/DX2                !
 ! R22   R(14,29)                1.0946         estimate D2E/DX2                !
 ! R23   R(14,30)                1.0941         estimate D2E/DX2                !
 ! R24   R(14,31)                1.0944         estimate D2E/DX2                !
 ! R25   R(15,16)                1.6726         estimate D2E/DX2                !
 ! R26   R(16,17)                1.8931         estimate D2E/DX2                !
 ! R27   R(16,18)                1.8732         estimate D2E/DX2                !
 ! R28   R(16,19)                1.8834         estimate D2E/DX2                !
 ! R29   R(17,26)                1.0938         estimate D2E/DX2                !
 ! R30   R(17,27)                1.0938         estimate D2E/DX2                !
 ! R31   R(17,28)                1.0938         estimate D2E/DX2                !
 ! R32   R(18,20)                1.0945         estimate D2E/DX2                !
 ! R33   R(18,21)                1.0938         estimate D2E/DX2                !
 ! R34   R(18,22)                1.0935         estimate D2E/DX2                !
 ! R35   R(19,23)                1.0941         estimate D2E/DX2                !
 ! R36   R(19,24)                1.0933         estimate D2E/DX2                !
 ! R37   R(19,25)                1.0939         estimate D2E/DX2                !
 ! R38   R(37,38)                1.5076         estimate D2E/DX2                !
 ! R39   R(37,40)                1.097          estimate D2E/DX2                !
 ! R40   R(37,41)                1.096          estimate D2E/DX2                !
 ! R41   R(38,39)                1.3391         estimate D2E/DX2                !
 ! R42   R(38,42)                1.0886         estimate D2E/DX2                !
 ! R43   R(39,43)                1.0864         estimate D2E/DX2                !
 ! R44   R(39,44)                1.0857         estimate D2E/DX2                !
 ! A1    A(2,1,6)              110.3189         estimate D2E/DX2                !
 ! A2    A(2,1,10)             111.3673         estimate D2E/DX2                !
 ! A3    A(2,1,12)             115.703          estimate D2E/DX2                !
 ! A4    A(6,1,10)             106.2553         estimate D2E/DX2                !
 ! A5    A(6,1,12)             106.0543         estimate D2E/DX2                !
 ! A6    A(10,1,12)            106.5822         estimate D2E/DX2                !
 ! A7    A(1,2,3)              108.9997         estimate D2E/DX2                !
 ! A8    A(1,2,7)              109.5951         estimate D2E/DX2                !
 ! A9    A(1,2,14)             111.8563         estimate D2E/DX2                !
 ! A10   A(3,2,7)              108.5352         estimate D2E/DX2                !
 ! A11   A(3,2,14)             112.408          estimate D2E/DX2                !
 ! A12   A(7,2,14)             105.3243         estimate D2E/DX2                !
 ! A13   A(2,3,4)              107.5426         estimate D2E/DX2                !
 ! A14   A(2,3,15)             104.5251         estimate D2E/DX2                !
 ! A15   A(2,3,37)             112.1281         estimate D2E/DX2                !
 ! A16   A(4,3,15)             111.4946         estimate D2E/DX2                !
 ! A17   A(4,3,37)             109.5637         estimate D2E/DX2                !
 ! A18   A(15,3,37)            111.4552         estimate D2E/DX2                !
 ! A19   A(3,4,5)              115.7692         estimate D2E/DX2                !
 ! A20   A(3,4,8)              109.6461         estimate D2E/DX2                !
 ! A21   A(3,4,9)              110.826          estimate D2E/DX2                !
 ! A22   A(5,4,8)              106.188          estimate D2E/DX2                !
 ! A23   A(5,4,9)              107.3167         estimate D2E/DX2                !
 ! A24   A(8,4,9)              106.6194         estimate D2E/DX2                !
 ! A25   A(4,5,10)             118.3597         estimate D2E/DX2                !
 ! A26   A(4,5,11)             120.7758         estimate D2E/DX2                !
 ! A27   A(10,5,11)            120.6221         estimate D2E/DX2                !
 ! A28   A(1,10,5)             122.0751         estimate D2E/DX2                !
 ! A29   A(1,12,13)            113.7371         estimate D2E/DX2                !
 ! A30   A(1,12,32)            110.7368         estimate D2E/DX2                !
 ! A31   A(1,12,33)            108.36           estimate D2E/DX2                !
 ! A32   A(13,12,32)           110.1893         estimate D2E/DX2                !
 ! A33   A(13,12,33)           108.6416         estimate D2E/DX2                !
 ! A34   A(32,12,33)           104.7446         estimate D2E/DX2                !
 ! A35   A(12,13,34)           110.0437         estimate D2E/DX2                !
 ! A36   A(12,13,35)           111.6629         estimate D2E/DX2                !
 ! A37   A(12,13,36)           110.9907         estimate D2E/DX2                !
 ! A38   A(34,13,35)           107.5895         estimate D2E/DX2                !
 ! A39   A(34,13,36)           107.9792         estimate D2E/DX2                !
 ! A40   A(35,13,36)           108.4387         estimate D2E/DX2                !
 ! A41   A(2,14,29)            110.8657         estimate D2E/DX2                !
 ! A42   A(2,14,30)            112.2488         estimate D2E/DX2                !
 ! A43   A(2,14,31)            111.6743         estimate D2E/DX2                !
 ! A44   A(29,14,30)           107.5388         estimate D2E/DX2                !
 ! A45   A(29,14,31)           106.1893         estimate D2E/DX2                !
 ! A46   A(30,14,31)           108.0398         estimate D2E/DX2                !
 ! A47   A(3,15,16)            129.6541         estimate D2E/DX2                !
 ! A48   A(15,16,17)           108.3688         estimate D2E/DX2                !
 ! A49   A(15,16,18)           115.0303         estimate D2E/DX2                !
 ! A50   A(15,16,19)           110.9873         estimate D2E/DX2                !
 ! A51   A(17,16,18)           107.0147         estimate D2E/DX2                !
 ! A52   A(17,16,19)           106.9707         estimate D2E/DX2                !
 ! A53   A(18,16,19)           108.1074         estimate D2E/DX2                !
 ! A54   A(16,17,26)           110.4646         estimate D2E/DX2                !
 ! A55   A(16,17,27)           110.2972         estimate D2E/DX2                !
 ! A56   A(16,17,28)           110.2533         estimate D2E/DX2                !
 ! A57   A(26,17,27)           108.6043         estimate D2E/DX2                !
 ! A58   A(26,17,28)           108.6121         estimate D2E/DX2                !
 ! A59   A(27,17,28)           108.5543         estimate D2E/DX2                !
 ! A60   A(16,18,20)           110.2619         estimate D2E/DX2                !
 ! A61   A(16,18,21)           111.0644         estimate D2E/DX2                !
 ! A62   A(16,18,22)           111.2433         estimate D2E/DX2                !
 ! A63   A(20,18,21)           107.7677         estimate D2E/DX2                !
 ! A64   A(20,18,22)           107.61           estimate D2E/DX2                !
 ! A65   A(21,18,22)           108.7625         estimate D2E/DX2                !
 ! A66   A(16,19,23)           110.3884         estimate D2E/DX2                !
 ! A67   A(16,19,24)           111.0028         estimate D2E/DX2                !
 ! A68   A(16,19,25)           110.4894         estimate D2E/DX2                !
 ! A69   A(23,19,24)           108.0787         estimate D2E/DX2                !
 ! A70   A(23,19,25)           108.2982         estimate D2E/DX2                !
 ! A71   A(24,19,25)           108.4956         estimate D2E/DX2                !
 ! A72   A(3,37,38)            114.8261         estimate D2E/DX2                !
 ! A73   A(3,37,40)            110.1046         estimate D2E/DX2                !
 ! A74   A(3,37,41)            109.7869         estimate D2E/DX2                !
 ! A75   A(38,37,40)           109.6076         estimate D2E/DX2                !
 ! A76   A(38,37,41)           107.0094         estimate D2E/DX2                !
 ! A77   A(40,37,41)           105.0091         estimate D2E/DX2                !
 ! A78   A(37,38,39)           124.2459         estimate D2E/DX2                !
 ! A79   A(37,38,42)           117.0266         estimate D2E/DX2                !
 ! A80   A(39,38,42)           118.7269         estimate D2E/DX2                !
 ! A81   A(38,39,43)           120.6235         estimate D2E/DX2                !
 ! A82   A(38,39,44)           122.0735         estimate D2E/DX2                !
 ! A83   A(43,39,44)           117.3011         estimate D2E/DX2                !
 ! D1    D(6,1,2,3)            -61.2689         estimate D2E/DX2                !
 ! D2    D(6,1,2,7)             57.3803         estimate D2E/DX2                !
 ! D3    D(6,1,2,14)           173.8064         estimate D2E/DX2                !
 ! D4    D(10,1,2,3)            56.4668         estimate D2E/DX2                !
 ! D5    D(10,1,2,7)           175.116          estimate D2E/DX2                !
 ! D6    D(10,1,2,14)          -68.4579         estimate D2E/DX2                !
 ! D7    D(12,1,2,3)           178.3658         estimate D2E/DX2                !
 ! D8    D(12,1,2,7)           -62.9851         estimate D2E/DX2                !
 ! D9    D(12,1,2,14)           53.4411         estimate D2E/DX2                !
 ! D10   D(2,1,10,5)           -41.9185         estimate D2E/DX2                !
 ! D11   D(6,1,10,5)            78.2456         estimate D2E/DX2                !
 ! D12   D(12,1,10,5)         -168.9624         estimate D2E/DX2                !
 ! D13   D(2,1,12,13)           59.6817         estimate D2E/DX2                !
 ! D14   D(2,1,12,32)          -65.0421         estimate D2E/DX2                !
 ! D15   D(2,1,12,33)         -179.3971         estimate D2E/DX2                !
 ! D16   D(6,1,12,13)          -62.9699         estimate D2E/DX2                !
 ! D17   D(6,1,12,32)          172.3063         estimate D2E/DX2                !
 ! D18   D(6,1,12,33)           57.9513         estimate D2E/DX2                !
 ! D19   D(10,1,12,13)        -175.9            estimate D2E/DX2                !
 ! D20   D(10,1,12,32)          59.3761         estimate D2E/DX2                !
 ! D21   D(10,1,12,33)         -54.9788         estimate D2E/DX2                !
 ! D22   D(1,2,3,4)            -58.2541         estimate D2E/DX2                !
 ! D23   D(1,2,3,15)          -176.8661         estimate D2E/DX2                !
 ! D24   D(1,2,3,37)            62.2535         estimate D2E/DX2                !
 ! D25   D(7,2,3,4)           -177.5647         estimate D2E/DX2                !
 ! D26   D(7,2,3,15)            63.8233         estimate D2E/DX2                !
 ! D27   D(7,2,3,37)           -57.057          estimate D2E/DX2                !
 ! D28   D(14,2,3,4)            66.3472         estimate D2E/DX2                !
 ! D29   D(14,2,3,15)          -52.2647         estimate D2E/DX2                !
 ! D30   D(14,2,3,37)         -173.1451         estimate D2E/DX2                !
 ! D31   D(1,2,14,29)          -64.9224         estimate D2E/DX2                !
 ! D32   D(1,2,14,30)           55.3677         estimate D2E/DX2                !
 ! D33   D(1,2,14,31)          176.8762         estimate D2E/DX2                !
 ! D34   D(3,2,14,29)          172.0653         estimate D2E/DX2                !
 ! D35   D(3,2,14,30)          -67.6446         estimate D2E/DX2                !
 ! D36   D(3,2,14,31)           53.864          estimate D2E/DX2                !
 ! D37   D(7,2,14,29)           54.0625         estimate D2E/DX2                !
 ! D38   D(7,2,14,30)          174.3526         estimate D2E/DX2                !
 ! D39   D(7,2,14,31)          -64.1389         estimate D2E/DX2                !
 ! D40   D(2,3,4,5)             45.2957         estimate D2E/DX2                !
 ! D41   D(2,3,4,8)            165.3652         estimate D2E/DX2                !
 ! D42   D(2,3,4,9)            -77.2016         estimate D2E/DX2                !
 ! D43   D(15,3,4,5)           159.3239         estimate D2E/DX2                !
 ! D44   D(15,3,4,8)           -80.6066         estimate D2E/DX2                !
 ! D45   D(15,3,4,9)            36.8266         estimate D2E/DX2                !
 ! D46   D(37,3,4,5)           -76.8175         estimate D2E/DX2                !
 ! D47   D(37,3,4,8)            43.252          estimate D2E/DX2                !
 ! D48   D(37,3,4,9)           160.6852         estimate D2E/DX2                !
 ! D49   D(2,3,15,16)          179.9098         estimate D2E/DX2                !
 ! D50   D(4,3,15,16)           64.0183         estimate D2E/DX2                !
 ! D51   D(37,3,15,16)         -58.7639         estimate D2E/DX2                !
 ! D52   D(2,3,37,38)           51.9271         estimate D2E/DX2                !
 ! D53   D(2,3,37,40)          -72.3416         estimate D2E/DX2                !
 ! D54   D(2,3,37,41)          172.5225         estimate D2E/DX2                !
 ! D55   D(4,3,37,38)          171.2559         estimate D2E/DX2                !
 ! D56   D(4,3,37,40)           46.9873         estimate D2E/DX2                !
 ! D57   D(4,3,37,41)          -68.1487         estimate D2E/DX2                !
 ! D58   D(15,3,37,38)         -64.8624         estimate D2E/DX2                !
 ! D59   D(15,3,37,40)         170.8689         estimate D2E/DX2                !
 ! D60   D(15,3,37,41)          55.733          estimate D2E/DX2                !
 ! D61   D(3,4,5,10)           -30.1495         estimate D2E/DX2                !
 ! D62   D(3,4,5,11)           155.4727         estimate D2E/DX2                !
 ! D63   D(8,4,5,10)          -152.0802         estimate D2E/DX2                !
 ! D64   D(8,4,5,11)            33.542          estimate D2E/DX2                !
 ! D65   D(9,4,5,10)            94.1869         estimate D2E/DX2                !
 ! D66   D(9,4,5,11)           -80.1909         estimate D2E/DX2                !
 ! D67   D(4,5,10,1)            28.0095         estimate D2E/DX2                !
 ! D68   D(11,5,10,1)         -157.6038         estimate D2E/DX2                !
 ! D69   D(1,12,13,34)         174.3101         estimate D2E/DX2                !
 ! D70   D(1,12,13,35)         -66.2811         estimate D2E/DX2                !
 ! D71   D(1,12,13,36)          54.8442         estimate D2E/DX2                !
 ! D72   D(32,12,13,34)        -60.6729         estimate D2E/DX2                !
 ! D73   D(32,12,13,35)         58.7359         estimate D2E/DX2                !
 ! D74   D(32,12,13,36)        179.8613         estimate D2E/DX2                !
 ! D75   D(33,12,13,34)         53.5467         estimate D2E/DX2                !
 ! D76   D(33,12,13,35)        172.9554         estimate D2E/DX2                !
 ! D77   D(33,12,13,36)        -65.9192         estimate D2E/DX2                !
 ! D78   D(3,15,16,17)        -152.6128         estimate D2E/DX2                !
 ! D79   D(3,15,16,18)         -32.9208         estimate D2E/DX2                !
 ! D80   D(3,15,16,19)          90.2073         estimate D2E/DX2                !
 ! D81   D(15,16,17,26)       -178.4676         estimate D2E/DX2                !
 ! D82   D(15,16,17,27)        -58.3956         estimate D2E/DX2                !
 ! D83   D(15,16,17,28)         61.4789         estimate D2E/DX2                !
 ! D84   D(18,16,17,26)         56.9332         estimate D2E/DX2                !
 ! D85   D(18,16,17,27)        177.0053         estimate D2E/DX2                !
 ! D86   D(18,16,17,28)        -63.1203         estimate D2E/DX2                !
 ! D87   D(19,16,17,26)        -58.7382         estimate D2E/DX2                !
 ! D88   D(19,16,17,27)         61.3338         estimate D2E/DX2                !
 ! D89   D(19,16,17,28)       -178.7917         estimate D2E/DX2                !
 ! D90   D(15,16,18,20)       -175.3856         estimate D2E/DX2                !
 ! D91   D(15,16,18,21)        -55.9949         estimate D2E/DX2                !
 ! D92   D(15,16,18,22)         65.3061         estimate D2E/DX2                !
 ! D93   D(17,16,18,20)        -54.9473         estimate D2E/DX2                !
 ! D94   D(17,16,18,21)         64.4434         estimate D2E/DX2                !
 ! D95   D(17,16,18,22)       -174.2557         estimate D2E/DX2                !
 ! D96   D(19,16,18,20)         59.9638         estimate D2E/DX2                !
 ! D97   D(19,16,18,21)        179.3545         estimate D2E/DX2                !
 ! D98   D(19,16,18,22)        -59.3445         estimate D2E/DX2                !
 ! D99   D(15,16,19,23)        172.1574         estimate D2E/DX2                !
 ! D100  D(15,16,19,24)        -68.0202         estimate D2E/DX2                !
 ! D101  D(15,16,19,25)         52.392          estimate D2E/DX2                !
 ! D102  D(17,16,19,23)         54.1258         estimate D2E/DX2                !
 ! D103  D(17,16,19,24)        173.9482         estimate D2E/DX2                !
 ! D104  D(17,16,19,25)        -65.6396         estimate D2E/DX2                !
 ! D105  D(18,16,19,23)        -60.8143         estimate D2E/DX2                !
 ! D106  D(18,16,19,24)         59.0082         estimate D2E/DX2                !
 ! D107  D(18,16,19,25)        179.4204         estimate D2E/DX2                !
 ! D108  D(3,37,38,39)        -126.2061         estimate D2E/DX2                !
 ! D109  D(3,37,38,42)          54.0843         estimate D2E/DX2                !
 ! D110  D(40,37,38,39)         -1.6753         estimate D2E/DX2                !
 ! D111  D(40,37,38,42)        178.6151         estimate D2E/DX2                !
 ! D112  D(41,37,38,39)        111.6821         estimate D2E/DX2                !
 ! D113  D(41,37,38,42)        -68.0275         estimate D2E/DX2                !
 ! D114  D(37,38,39,43)       -179.742          estimate D2E/DX2                !
 ! D115  D(37,38,39,44)         -0.2604         estimate D2E/DX2                !
 ! D116  D(42,38,39,43)         -0.037          estimate D2E/DX2                !
 ! D117  D(42,38,39,44)        179.4446         estimate D2E/DX2                !
 --------------------------------------------------------------------------------
 Trust Radius=3.00D-01 FncErr=1.00D-07 GrdErr=1.00D-06
 Number of steps in this run=     25 maximum allowed number of steps=    264.
 GradGradGradGradGradGradGradGradGradGradGradGradGradGradGradGradGradGrad

                          Input orientation:                          
 ---------------------------------------------------------------------
 Center     Atomic      Atomic             Coordinates (Angstroms)
 Number     Number       Type             X           Y           Z
 ---------------------------------------------------------------------
      1          6           0        0.093299    2.079633   -0.468939
      2          6           0       -0.164461    1.313921    0.833819
      3          6           0       -1.166667    2.131635    1.715921
      4          6           0       -0.541243    3.509204    1.970200
      5          6           0        0.065039    4.184665    0.768868
      6          1           0       -0.839255    2.199292   -1.030621
      7          1           0       -0.615234    0.340336    0.605281
      8          1           0       -1.304354    4.194995    2.353348
      9          1           0        0.239007    3.447379    2.738322
     10          8           0        0.581190    3.411790   -0.207855
     11          8           0        0.181409    5.406778    0.726995
     12          6           0        1.092834    1.428530   -1.438313
     13          6           0        0.679724    0.041524   -1.902834
     14          6           0        1.148519    0.990704    1.580210
     15          8           0       -1.280576    1.367897    2.937993
     16         14           0       -2.188383    1.676075    4.308554
     17          6           0       -1.325837    0.870874    5.788984
     18          6           0       -2.408368    3.489732    4.722227
     19          6           0       -3.896834    0.894534    4.175884
     20          1           0       -2.941211    3.599981    5.671921
     21          1           0       -1.441027    3.990282    4.822194
     22          1           0       -2.992430    4.003418    3.953615
     23          1           0       -4.430647    0.981445    5.126961
     24          1           0       -4.494664    1.387985    3.404965
     25          1           0       -3.813895   -0.166782    3.924340
     26          1           0       -1.906650    1.028741    6.702279
     27          1           0       -1.217682   -0.205271    5.625863
     28          1           0       -0.330965    1.303431    5.928813
     29          1           0        1.769744    0.303818    0.996734
     30          1           0        1.744123    1.886943    1.777800
     31          1           0        0.958080    0.492825    2.535992
     32          1           0        2.096196    1.396776   -0.997880
     33          1           0        1.194263    2.077675   -2.318228
     34          1           0        1.377337   -0.322529   -2.663917
     35          1           0        0.684116   -0.678010   -1.079254
     36          1           0       -0.322299    0.057728   -2.343061
     37          6           0       -2.559959    2.308200    1.017800
     38          6           0       -3.188087    1.029051    0.525858
     39          6           0       -3.608211    0.830184   -0.730011
     40          1           0       -2.478312    3.021106    0.188010
     41          1           0       -3.269666    2.765889    1.716434
     42          1           0       -3.305648    0.225147    1.250382
     43          1           0       -4.057157   -0.115568   -1.020136
     44          1           0       -3.525649    1.597311   -1.493833
 ---------------------------------------------------------------------
                    Distance matrix (angstroms):
                    1          2          3          4          5
     1  C    0.000000
     2  C    1.532949   0.000000
     3  C    2.522664   1.565624   0.000000
     4  C    2.897536   2.500519   1.534115   0.000000
     5  C    2.442156   2.880635   2.574673   1.505664   0.000000
     6  H    1.095199   2.171489   2.766816   3.287797   2.828005
     7  H    2.163590   1.096947   2.178612   3.451116   3.907480
     8  H    3.793876   3.450929   2.163961   1.095194   2.094259
     9  H    3.489768   2.888176   2.180001   1.096642   2.110120
    10  O    1.442513   2.458075   2.897363   2.452197   1.348234
    11  O    3.536653   4.108834   3.677206   2.380876   1.228355
    12  C    1.537105   2.599329   3.943209   4.314785   3.677539
    13  C    2.560046   3.133833   4.568710   5.340033   4.968043
    14  C    2.549170   1.544502   2.584614   3.057815   3.468947
    15  O    3.741829   2.382472   1.445590   2.463419   3.801311
    16  Si   5.309743   4.037474   2.823683   3.397254   4.888794
    17  C    6.529674   5.108693   4.266696   4.707386   6.173922
    18  C    5.932531   4.988887   3.524787   3.325686   4.714841
    19  C    6.236987   5.027514   3.877583   4.791819   6.174881
    20  H    7.016400   6.028569   4.577661   4.412576   5.780945
    21  H    5.831023   4.969876   3.630258   3.029013   4.328449
    22  H    5.725527   4.996392   3.441549   3.191630   4.418550
    23  H    7.279162   6.061514   4.859187   5.610897   7.033121
    24  H    6.044412   5.036560   3.805450   4.710378   5.963331
    25  H    6.293921   5.006213   4.143386   5.295450   6.628591
    26  H    7.518679   6.128244   5.160205   5.514490   7.003769
    27  H    6.639734   5.136234   4.555368   5.255356   6.671380
    28  H    6.458616   5.097725   4.374103   4.536548   5.923121
    29  H    2.848190   2.188150   3.532797   4.069742   4.244869
    30  H    2.794671   2.205028   2.921712   2.809207   3.019403
    31  H    3.506482   2.198111   2.805845   3.415645   4.189264
    32  H    2.181208   2.910766   4.307088   4.497548   3.875477
    33  H    2.152207   3.516369   4.674533   4.842713   3.904448
    34  H    3.498152   4.158036   5.628309   6.311748   5.815577
    35  H    2.885506   2.889242   4.374072   5.322916   5.238742
    36  H    2.788038   3.419868   4.635664   5.528548   5.183217
    37  C    3.049986   2.600164   1.568378   2.534697   3.236310
    38  C    3.586201   3.052590   2.591926   3.904237   4.538698
    39  C    3.915413   3.813001   3.692898   4.886162   5.195377
    40  H    2.816227   2.947110   2.201382   2.677065   2.856554
    41  H    4.068948   3.539706   2.196562   2.839226   3.745806
    42  H    4.236511   3.350524   2.902871   4.352597   5.222181
    43  H    4.727474   4.542430   4.570652   5.868793   6.219730
    44  H    3.792074   4.098275   4.019057   4.955960   4.970639
                    6          7          8          9         10
     6  H    0.000000
     7  H    2.486379   0.000000
     8  H    3.956058   4.288242   0.000000
     9  H    4.114037   3.864364   1.757583   0.000000
    10  O    2.040774   3.395063   3.275431   2.966195   0.000000
    11  O    3.797227   5.130135   2.514147   2.808558   2.239140
    12  C    2.119730   2.877141   5.270345   4.716890   2.389378
    13  C    2.779211   2.838458   6.269208   5.773596   3.773772
    14  C    3.496908   2.117614   4.108748   2.864208   3.062792
    15  O    4.078710   2.634408   2.887015   2.583263   4.188082
    16  Si   5.531789   4.239484   3.308972   3.390482   5.575051
    17  C    6.964802   5.259012   4.780569   4.288782   6.786390
    18  C    6.101034   5.484822   2.706997   3.308514   5.766215
    19  C    6.177287   4.881111   4.575547   5.068410   6.753254
    20  H    7.162696   6.458041   3.747835   4.329328   6.856711
    21  H    6.150221   5.637942   2.481086   2.731260   5.452101
    22  H    5.721332   5.502778   2.333914   3.496899   5.517120
    23  H    7.231671   5.950965   5.271958   5.795869   7.712675
    24  H    5.804710   4.897528   4.377589   5.205109   6.550767
    25  H    6.244872   4.637322   5.271708   5.558310   7.014128
    26  H    7.893495   6.270171   5.413051   5.115331   7.721284
    27  H    7.087588   5.085949   5.484451   4.878697   7.095868
    28  H    7.035243   5.417412   4.700274   3.885951   6.552549
    29  H    3.809182   2.417166   5.141181   3.906182   3.538811
    30  H    3.828659   3.055055   3.866726   2.371273   2.760507
    31  H    4.343175   2.495238   4.342583   3.047522   4.023816
    32  H    3.043350   3.322355   5.533941   4.649014   2.641905
    33  H    2.409962   3.852211   5.705239   5.325157   2.570874
    34  H    3.733700   3.885535   7.264464   6.685222   4.539959
    35  H    3.256055   2.358601   6.283546   5.638337   4.182869
    36  H    2.564379   2.976306   6.335430   6.133943   4.077392
    37  C    2.677445   2.797252   2.630633   3.477375   3.547810
    38  C    3.051082   2.664622   4.112344   4.742181   4.519207
    39  C    3.103537   3.313739   5.112418   5.803458   4.948577
    40  H    2.201578   3.291155   2.728531   3.750950   3.109646
    41  H    3.711366   3.763506   2.512062   3.717455   4.353064
    42  H    3.896578   2.769070   4.580546   5.016106   5.233417
    43  H    3.964036   3.833623   6.126930   6.728865   5.883563
    44  H    2.791713   3.802207   5.146155   5.958735   4.670353
                   11         12         13         14         15
    11  O    0.000000
    12  C    4.620142   0.000000
    13  C    5.995854   1.519943   0.000000
    14  C    4.600542   3.050619   3.640372   0.000000
    15  O    4.830991   4.978836   5.388474   2.808265   0.000000
    16  Si   5.688728   6.622246   7.034141   4.364460   1.672580
    17  C    6.962036   7.641647   7.992131   4.883705   2.894345
    18  C    5.132630   7.379649   8.081948   5.363661   2.992923
    19  C    6.991942   7.530016   7.656587   5.674712   2.932789
    20  H    6.121075   8.458377   9.118701   6.346362   3.900547
    21  H    4.627031   7.223363   8.081849   5.119929   3.233088
    22  H    4.738539   7.238254   7.967391   5.644197   3.302711
    23  H    7.759790   8.591365   8.741702   6.611098   3.855369
    24  H    6.722193   7.394533   7.533922   5.944163   3.247896
    25  H    7.566376   7.441711   7.361519   5.608946   3.121830
    26  H    7.696182   8.684813   9.039463   5.964151   3.831037
    27  H    7.579674   7.609886   7.768033   4.837000   3.115037
    28  H    6.645216   7.504492   7.996787   4.604022   3.138618
    29  H    5.351240   2.766340   3.108768   1.094613   3.768979
    30  H    3.991930   3.313262   4.252715   1.094089   3.280893
    31  H    5.293640   4.085193   4.470384   1.094381   2.436993
    32  H    4.766730   1.096232   2.159176   2.776605   5.185993
    33  H    4.624087   1.098147   2.140844   4.047396   5.852903
    34  H    6.764132   2.156213   1.094736   4.448545   6.426775
    35  H    6.367095   2.175657   1.093633   3.173803   4.917725
    36  H    6.187997   2.168010   1.094583   4.292529   5.524886
    37  C    4.147391   4.488787   4.915635   3.975539   2.491612
    38  C    5.527970   4.726927   4.672656   4.463102   3.093834
    39  C    6.117949   4.791611   4.514852   5.290498   4.377359
    40  H    3.613316   4.234892   4.818997   4.383453   3.424920
    41  H    4.456815   5.547284   6.009904   4.763423   2.720858
    42  H    6.267599   5.293756   5.085241   4.531497   2.873121
    43  H    7.177340   5.392728   4.820983   5.923234   5.057357
    44  H    5.760763   4.621899   4.502546   5.627216   4.973335
                   16         17         18         19         20
    16  Si   0.000000
    17  C    1.893147   0.000000
    18  C    1.873198   3.027914   0.000000
    19  C    1.883404   3.035239   3.041229   0.000000
    20  H    2.475264   3.173509   1.094530   3.235859   0.000000
    21  H    2.485542   3.267822   1.093751   4.004043   1.767745
    22  H    2.487770   3.994865   1.093511   3.245383   1.765775
    23  H    2.485970   3.176530   3.247295   1.094101   3.061394
    24  H    2.493672   3.999052   3.241165   1.093257   3.527780
    25  H    2.487173   3.277813   3.997777   1.093867   4.243126
    26  H    2.495663   1.093789   3.198250   3.218931   2.956895
    27  H    2.493397   1.093798   3.985892   3.238806   4.177633
    28  H    2.492811   1.093814   3.248286   3.994418   3.486190
    29  H    5.340226   5.733222   6.440960   6.524266   7.410476
    30  H    4.681216   5.152344   5.336831   6.209354   6.328588
    31  H    3.800301   3.992638   5.009396   5.140117   5.890071
    32  H    6.825970   7.618950   7.575697   7.933252   8.643832
    33  H    7.451028   8.575206   8.033733   8.336221   9.124804
    34  H    8.082334   8.954490   9.133456   8.722442  10.174583
    35  H    6.543809   7.321997   7.784004   7.146641   8.776250
    36  H    7.095442   8.233981   8.127031   7.481590   9.145829
    37  C    3.371456   5.133533   3.891244   3.709337   4.845090
    38  C    3.965708   5.585113   4.926705   3.720633   5.757829
    39  C    5.302696   6.907111   6.183827   4.914799   7.007239
    40  H    4.344197   6.109223   4.558906   4.736840   5.533774
    41  H    3.012632   4.894407   3.209451   3.153443   4.055795
    42  H    3.564532   4.993548   4.849364   3.058781   5.574256
    43  H    5.924292   7.402519   6.977924   5.295718   7.735261
    44  H    5.955013   7.642402   6.593101   5.725152   7.463262
                   21         22         23         24         25
    21  H    0.000000
    22  H    1.778048   0.000000
    23  H    4.252506   3.546481   0.000000
    24  H    4.255019   3.065651   1.770492   0.000000
    25  H    4.870095   4.250439   1.773445   1.774964   0.000000
    26  H    3.538679   4.193182   2.975639   4.207036   3.575445
    27  H    4.277667   4.864073   3.461263   4.267255   3.104349
    28  H    3.110629   4.274896   4.189753   4.869635   4.279047
    29  H    6.207513   6.716285   7.480829   6.798368   6.322133
    30  H    4.882371   5.625706   7.082697   6.466768   6.302141
    31  H    4.818157   5.471786   5.999187   5.593643   5.013416
    32  H    7.287762   7.563465   8.960238   7.926194   7.848703
    33  H    7.847831   7.782859   9.395327   8.099043   8.311973
    34  H    9.087649   9.033295   9.804632   8.616123   8.389176
    35  H    7.818969   7.795032   8.211680   7.155160   6.747548
    36  H    8.249692   7.895961   8.575139   7.226203   7.177880
    37  C    4.307531   3.417573   4.705843   3.207559   4.018192
    38  C    5.502691   4.542539   4.766169   3.182017   3.656683
    39  C    6.746102   5.690778   5.916367   4.265556   4.764371
    40  H    4.846744   3.925434   5.689030   4.132984   5.089850
    41  H    3.806416   2.571637   4.020424   2.500075   3.711010
    42  H    5.514607   4.656276   4.106760   2.721797   2.749904
    43  H    7.604930   6.545066   6.255376   4.693996   4.950721
    44  H    7.068533   5.978993   6.710680   4.998103   5.705410
                   26         27         28         29         30
    26  H    0.000000
    27  H    1.776551   0.000000
    28  H    1.776651   1.776014   0.000000
    29  H    6.826026   5.532876   5.453220   0.000000
    30  H    6.189923   5.287460   4.677327   1.765504   0.000000
    31  H    5.084470   3.842991   3.718865   1.750382   1.770956
    32  H    8.686235   7.577751   7.340225   2.297741   2.840531
    33  H    9.596117   8.610337   8.422557   3.803514   4.137169
    34  H   10.016792   8.687251   8.910502   3.734523   4.974450
    35  H    8.377191   6.985622   7.353197   2.540138   3.983134
    36  H    9.234241   8.023380   8.365151   3.948599   4.959599
    37  C    5.863201   5.417886   5.485984   4.771197   4.390920
    38  C    6.307952   5.605006   6.118035   5.032671   5.160430
    39  C    7.627167   6.869056   7.436682   5.672840   6.004443
    40  H    6.836082   6.447398   6.365401   5.107217   4.652173
    41  H    5.452903   5.321848   5.340307   5.654681   5.090618
    42  H    5.685608   4.867206   5.647933   5.082335   5.342277
    43  H    8.097519   7.227722   8.011614   6.180326   6.744876
    44  H    8.373809   7.698447   8.086287   5.993099   6.209506
                   31         32         33         34         35
    31  H    0.000000
    32  H    3.821084   0.000000
    33  H    5.111847   1.737937   0.000000
    34  H    5.280117   2.499689   2.431871   0.000000
    35  H    3.809976   2.511041   3.064165   1.765808   0.000000
    36  H    5.062987   3.074358   2.526017   1.770962   1.775215
    37  C    4.239940   5.154943   5.027565   5.998173   4.882531
    38  C    4.638844   5.511864   5.328548   5.731015   4.525969
    39  C    5.624198   5.738732   5.209839   5.470323   4.562970
    40  H    4.869704   4.997090   4.545228   5.846316   5.028953
    41  H    4.869531   6.167207   6.056302   7.093690   5.942113
    42  H    4.461370   5.967187   6.034570   6.127971   4.707559
    43  H    6.178090   6.336516   5.837189   5.681424   4.774883
    44  H    6.128883   5.647240   4.815386   5.393900   4.803237
                   36         37         38         39         40
    36  H    0.000000
    37  C    4.622460   0.000000
    38  C    4.169761   1.507572   0.000000
    39  C    3.741101   2.517580   1.339126   0.000000
    40  H    4.453799   1.097020   2.141543   2.630508   0.000000
    41  H    5.700930   1.096017   2.107305   3.137939   1.739959
    42  H    4.673460   2.224692   1.088585   2.092742   3.103306
    43  H    3.966021   3.502776   2.110813   1.086357   3.713636
    44  H    3.654170   2.783203   2.125093   1.085691   2.439816
                   41         42         43         44
    41  H    0.000000
    42  H    2.583383   0.000000
    43  H    4.051142   2.415803   0.000000
    44  H    3.425918   3.076028   1.854951   0.000000
 Stoichiometry    C14H26O3Si
 Framework group  C1[X(C14H26O3Si)]
 Deg. of freedom   126
 Full point group                 C1      NOp   1
 Largest Abelian subgroup         C1      NOp   1
 Largest concise Abelian subgroup C1      NOp   1
                         Standard orientation:                         
 ---------------------------------------------------------------------
 Center     Atomic      Atomic             Coordinates (Angstroms)
 Number     Number       Type             X           Y           Z
 ---------------------------------------------------------------------
      1          6           0       -2.440519   -0.073327    0.045826
      2          6           0       -1.145557    0.260143    0.795363
      3          6           0        0.076757   -0.090180   -0.118092
      4          6           0       -0.019915   -1.580636   -0.468384
      5          6           0       -1.382439   -2.068353   -0.883938
      6          1           0       -2.514411    0.523181   -0.869695
      7          1           0       -1.116578    1.333412    1.020191
      8          1           0        0.652945   -1.807300   -1.302249
      9          1           0        0.305726   -2.201293    0.375042
     10          8           0       -2.466857   -1.454651   -0.369018
     11          8           0       -1.504481   -3.065567   -1.590709
     12          6           0       -3.743399    0.176449    0.822233
     13          6           0       -3.930641    1.621573    1.254415
     14          6           0       -1.076992   -0.446257    2.167143
     15          8           0        1.233990    0.187058    0.702690
     16         14           0        2.859881    0.028210    0.343846
     17          6           0        3.799468   -0.282335    1.957768
     18          6           0        3.281555   -1.381153   -0.815790
     19          6           0        3.546285    1.619097   -0.394493
     20          1           0        4.366680   -1.464507   -0.932198
     21          1           0        2.913481   -2.334500   -0.425991
     22          1           0        2.853809   -1.218561   -1.808949
     23          1           0        4.633684    1.553914   -0.496334
     24          1           0        3.123330    1.805676   -1.385203
     25          1           0        3.312136    2.472082    0.249040
     26          1           0        4.873059   -0.364777    1.765468
     27          1           0        3.632655    0.540911    2.658362
     28          1           0        3.455908   -1.210587    2.423326
     29          1           0       -1.862612   -0.078481    2.834765
     30          1           0       -1.197937   -1.530255    2.081395
     31          1           0       -0.127963   -0.250312    2.675689
     32          1           0       -3.811947   -0.489874    1.690011
     33          1           0       -4.588092   -0.110704    0.181948
     34          1           0       -4.917357    1.752024    1.710289
     35          1           0       -3.182735    1.922024    1.993603
     36          1           0       -3.862125    2.299126    0.397478
     37          6           0        0.091694    0.759257   -1.436441
     38          6           0       -0.023990    2.248325   -1.231340
     39          6           0       -0.941368    3.021876   -1.825728
     40          1           0       -0.701045    0.418250   -2.113738
     41          1           0        1.026091    0.582291   -1.981269
     42          1           0        0.694089    2.712078   -0.557312
     43          1           0       -0.968638    4.091585   -1.638241
     44          1           0       -1.677337    2.618064   -2.514211
 ---------------------------------------------------------------------
 Rotational constants (GHZ):      0.5148533      0.2617618      0.2324258
 Standard basis: 6-31G(d,p) (6D, 7F)
 There are   404 symmetry adapted cartesian basis functions of A   symmetry.
 There are   404 symmetry adapted basis functions of A   symmetry.
   404 basis functions,   710 primitive gaussians,   404 cartesian basis functions
    74 alpha electrons       74 beta electrons
       nuclear repulsion energy      1630.2945793840 Hartrees.
 NAtoms=   44 NActive=   44 NUniq=   44 SFac= 1.00D+00 NAtFMM=   60 NAOKFM=F Big=F
 Integral buffers will be    131072 words long.
 Raffenetti 2 integral format.
 Two-electron integral symmetry is turned on.
 ------------------------------------------------------------------------------
 Polarizable Continuum Model (PCM)
 =================================
 Model                : PCM (using non-symmetric T matrix).
 Atomic radii         : UFF (Universal Force Field).
 Polarization charges : Total charges.
 Charge compensation  : None.
 Solution method      : On-the-fly selection.
 Cavity type          : Scaled VdW (van der Waals Surface) (Alpha=1.100).
 Cavity algorithm     : GePol (No added spheres)
                        Default sphere list used, NSphG=   44.
                        Lebedev-Laikov grids with approx.  5.0 points / Ang**2.
                        Smoothing algorithm: Karplus/York (Gamma=1.0000).
                        Polarization charges: spherical gaussians, with
                                              point-specific exponents (IZeta= 3).
                        Self-potential: point-specific (ISelfS= 7).
                        Self-field    : sphere-specific E.n sum rule (ISelfD= 2).
 1st derivatives      : Analytical E(r).r(x)/FMM algorithm (CHGder, D1EAlg=3).
                        Cavity 1st derivative terms included.
 Solvent              : Chloroform, Eps=   4.711300 Eps(inf)=   2.090627
 ------------------------------------------------------------------------------
 One-electron integrals computed using PRISM.
 NBasis=   404 RedAO= T EigKep=  1.83D-03  NBF=   404
 NBsUse=   404 1.00D-06 EigRej= -1.00D+00 NBFU=   404
 ExpMin= 7.78D-02 ExpMax= 1.61D+04 ExpMxC= 2.43D+03 IAcc=2 IRadAn=         4 AccDes= 0.00D+00
 Harris functional with IExCor=  402 and IRadAn=       4 diagonalized for initial guess.
 HarFok:  IExCor=  402 AccDes= 0.00D+00 IRadAn=         4 IDoV= 1 UseB2=F ITyADJ=14
 ICtDFT=  3500011 ScaDFX=  1.000000  1.000000  1.000000  1.000000
 FoFCou: FMM=F IPFlag=           0 FMFlag=      100000 FMFlg1=           0
         NFxFlg=           0 DoJE=T BraDBF=F KetDBF=T FulRan=T
         wScrn=  0.000000 ICntrl=     500 IOpCl=  0 I1Cent=   200000004 NGrid=           0
         NMat0=    1 NMatS0=      1 NMatT0=    0 NMatD0=    1 NMtDS0=    0 NMtDT0=    0
 Petite list used in FoFCou.
 Requested convergence on RMS density matrix=1.00D-08 within 128 cycles.
 Requested convergence on MAX density matrix=1.00D-06.
 Requested convergence on             energy=1.00D-06.
 No special actions if energy rises.
 Inv3:  Mode=1 IEnd=    23772675.
 Iteration    1 A*A^-1 deviation from unit magnitude is 6.99D-15 for   2810.
 Iteration    1 A*A^-1 deviation from orthogonality  is 5.50D-15 for   2781   2619.
 Iteration    1 A^-1*A deviation from unit magnitude is 6.99D-15 for   2810.
 Iteration    1 A^-1*A deviation from orthogonality  is 4.50D-13 for   2093   2072.
 Error on total polarization charges =  0.00906
 SCF Done:  E(RB3LYP) =  -1064.41655228     A.U. after   13 cycles
            NFock= 13  Conv=0.50D-08     -V/T= 2.0081

 **********************************************************************

            Population analysis using the SCF density.

 **********************************************************************

 Orbital symmetries:
       Occupied  (A) (A) (A) (A) (A) (A) (A) (A) (A) (A) (A) (A)
                 (A) (A) (A) (A) (A) (A) (A) (A) (A) (A) (A) (A)
                 (A) (A) (A) (A) (A) (A) (A) (A) (A) (A) (A) (A)
                 (A) (A) (A) (A) (A) (A) (A) (A) (A) (A) (A) (A)
                 (A) (A) (A) (A) (A) (A) (A) (A) (A) (A) (A) (A)
                 (A) (A) (A) (A) (A) (A) (A) (A) (A) (A) (A) (A)
                 (A) (A)
       Virtual   (A) (A) (A) (A) (A) (A) (A) (A) (A) (A) (A) (A)
                 (A) (A) (A) (A) (A) (A) (A) (A) (A) (A) (A) (A)
                 (A) (A) (A) (A) (A) (A) (A) (A) (A) (A) (A) (A)
                 (A) (A) (A) (A) (A) (A) (A) (A) (A) (A) (A) (A)
                 (A) (A) (A) (A) (A) (A) (A) (A) (A) (A) (A) (A)
                 (A) (A) (A) (A) (A) (A) (A) (A) (A) (A) (A) (A)
                 (A) (A) (A) (A) (A) (A) (A) (A) (A) (A) (A) (A)
                 (A) (A) (A) (A) (A) (A) (A) (A) (A) (A) (A) (A)
                 (A) (A) (A) (A) (A) (A) (A) (A) (A) (A) (A) (A)
                 (A) (A) (A) (A) (A) (A) (A) (A) (A) (A) (A) (A)
                 (A) (A) (A) (A) (A) (A) (A) (A) (A) (A) (A) (A)
                 (A) (A) (A) (A) (A) (A) (A) (A) (A) (A) (A) (A)
                 (A) (A) (A) (A) (A) (A) (A) (A) (A) (A) (A) (A)
                 (A) (A) (A) (A) (A) (A) (A) (A) (A) (A) (A) (A)
                 (A) (A) (A) (A) (A) (A) (A) (A) (A) (A) (A) (A)
                 (A) (A) (A) (A) (A) (A) (A) (A) (A) (A) (A) (A)
                 (A) (A) (A) (A) (A) (A) (A) (A) (A) (A) (A) (A)
                 (A) (A) (A) (A) (A) (A) (A) (A) (A) (A) (A) (A)
                 (A) (A) (A) (A) (A) (A) (A) (A) (A) (A) (A) (A)
                 (A) (A) (A) (A) (A) (A) (A) (A) (A) (A) (A) (A)
                 (A) (A) (A) (A) (A) (A) (A) (A) (A) (A) (A) (A)
                 (A) (A) (A) (A) (A) (A) (A) (A) (A) (A) (A) (A)
                 (A) (A) (A) (A) (A) (A) (A) (A) (A) (A) (A) (A)
                 (A) (A) (A) (A) (A) (A) (A) (A) (A) (A) (A) (A)
                 (A) (A) (A) (A) (A) (A) (A) (A) (A) (A) (A) (A)
                 (A) (A) (A) (A) (A) (A) (A) (A) (A) (A) (A) (A)
                 (A) (A) (A) (A) (A) (A) (A) (A) (A) (A) (A) (A)
                 (A) (A) (A) (A) (A) (A)
 The electronic state is 1-A.
 Alpha  occ. eigenvalues --  -66.13978 -19.19177 -19.14462 -19.13445 -10.32270
 Alpha  occ. eigenvalues --  -10.26682 -10.25228 -10.20040 -10.19983 -10.19837
 Alpha  occ. eigenvalues --  -10.19567 -10.18801 -10.18433 -10.17955 -10.17536
 Alpha  occ. eigenvalues --  -10.16025 -10.15707 -10.15665  -5.28131  -3.64186
 Alpha  occ. eigenvalues --   -3.63955  -3.63922  -1.09911  -1.01370  -1.00711
 Alpha  occ. eigenvalues --   -0.82965  -0.80329  -0.78131  -0.74727  -0.71296
 Alpha  occ. eigenvalues --   -0.70827  -0.69249  -0.67734  -0.67331  -0.64516
 Alpha  occ. eigenvalues --   -0.60821  -0.59772  -0.56605  -0.52717  -0.50995
 Alpha  occ. eigenvalues --   -0.50754  -0.49252  -0.48914  -0.46022  -0.45262
 Alpha  occ. eigenvalues --   -0.44388  -0.43357  -0.43080  -0.42675  -0.41792
 Alpha  occ. eigenvalues --   -0.40974  -0.40813  -0.40062  -0.39668  -0.39043
 Alpha  occ. eigenvalues --   -0.38688  -0.38444  -0.37894  -0.37607  -0.37430
 Alpha  occ. eigenvalues --   -0.36710  -0.36206  -0.35644  -0.35168  -0.34788
 Alpha  occ. eigenvalues --   -0.33602  -0.32603  -0.31517  -0.30109  -0.29286
 Alpha  occ. eigenvalues --   -0.28572  -0.27686  -0.26476  -0.25633
 Alpha virt. eigenvalues --   -0.00445   0.00914   0.06351   0.07072   0.08455
 Alpha virt. eigenvalues --    0.09143   0.09321   0.10198   0.10704   0.12193
 Alpha virt. eigenvalues --    0.12766   0.13038   0.13770   0.14418   0.14539
 Alpha virt. eigenvalues --    0.14806   0.15621   0.15856   0.16398   0.16820
 Alpha virt. eigenvalues --    0.16992   0.17701   0.18243   0.18416   0.18754
 Alpha virt. eigenvalues --    0.19387   0.19677   0.20410   0.20526   0.20931
 Alpha virt. eigenvalues --    0.21067   0.21959   0.22519   0.23047   0.23942
 Alpha virt. eigenvalues --    0.24481   0.25448   0.26292   0.26877   0.28587
 Alpha virt. eigenvalues --    0.28626   0.30901   0.32079   0.35530   0.35800
 Alpha virt. eigenvalues --    0.37056   0.38180   0.39409   0.40767   0.42323
 Alpha virt. eigenvalues --    0.46020   0.47714   0.48509   0.50474   0.51262
 Alpha virt. eigenvalues --    0.51626   0.52566   0.53549   0.55042   0.55716
 Alpha virt. eigenvalues --    0.56913   0.57823   0.59228   0.59762   0.60740
 Alpha virt. eigenvalues --    0.62050   0.62474   0.63466   0.63986   0.65299
 Alpha virt. eigenvalues --    0.65630   0.66028   0.67311   0.67925   0.68545
 Alpha virt. eigenvalues --    0.69493   0.70452   0.70792   0.71402   0.71992
 Alpha virt. eigenvalues --    0.74729   0.75210   0.75700   0.75995   0.77933
 Alpha virt. eigenvalues --    0.79639   0.80558   0.81394   0.82572   0.82873
 Alpha virt. eigenvalues --    0.83845   0.84652   0.84777   0.85937   0.86957
 Alpha virt. eigenvalues --    0.87284   0.87342   0.87615   0.88479   0.89156
 Alpha virt. eigenvalues --    0.89557   0.90174   0.90576   0.91634   0.91743
 Alpha virt. eigenvalues --    0.91839   0.92800   0.93154   0.94551   0.94930
 Alpha virt. eigenvalues --    0.95275   0.95553   0.95866   0.96380   0.96598
 Alpha virt. eigenvalues --    0.97757   0.99659   0.99819   1.00281   1.00834
 Alpha virt. eigenvalues --    1.02166   1.03459   1.04012   1.05657   1.08100
 Alpha virt. eigenvalues --    1.09269   1.09881   1.12272   1.12668   1.16998
 Alpha virt. eigenvalues --    1.17597   1.20281   1.21361   1.25108   1.27403
 Alpha virt. eigenvalues --    1.28562   1.29811   1.30526   1.31483   1.32615
 Alpha virt. eigenvalues --    1.33991   1.37413   1.38619   1.41357   1.42449
 Alpha virt. eigenvalues --    1.43821   1.45015   1.45846   1.46884   1.48280
 Alpha virt. eigenvalues --    1.49391   1.52125   1.52636   1.54725   1.55372
 Alpha virt. eigenvalues --    1.56526   1.59200   1.60429   1.62409   1.64097
 Alpha virt. eigenvalues --    1.65456   1.68298   1.68576   1.70717   1.71860
 Alpha virt. eigenvalues --    1.73850   1.74751   1.76410   1.77932   1.79938
 Alpha virt. eigenvalues --    1.80882   1.81439   1.83250   1.84430   1.85650
 Alpha virt. eigenvalues --    1.86239   1.88754   1.88872   1.90206   1.90443
 Alpha virt. eigenvalues --    1.91260   1.93135   1.94158   1.95346   1.95724
 Alpha virt. eigenvalues --    1.98100   1.98526   1.99671   2.00605   2.02649
 Alpha virt. eigenvalues --    2.02857   2.04293   2.04878   2.05316   2.05428
 Alpha virt. eigenvalues --    2.05931   2.07020   2.08119   2.08651   2.09275
 Alpha virt. eigenvalues --    2.09608   2.09915   2.10330   2.11988   2.12440
 Alpha virt. eigenvalues --    2.12780   2.13550   2.13783   2.14044   2.15350
 Alpha virt. eigenvalues --    2.16359   2.16494   2.16964   2.17135   2.17871
 Alpha virt. eigenvalues --    2.19218   2.22339   2.23253   2.23574   2.25719
 Alpha virt. eigenvalues --    2.27135   2.28190   2.29037   2.30811   2.32657
 Alpha virt. eigenvalues --    2.33588   2.33929   2.35159   2.36020   2.36412
 Alpha virt. eigenvalues --    2.38913   2.39102   2.40990   2.41381   2.42375
 Alpha virt. eigenvalues --    2.44046   2.44920   2.45852   2.49125   2.50460
 Alpha virt. eigenvalues --    2.51045   2.53516   2.54569   2.57259   2.58209
 Alpha virt. eigenvalues --    2.59537   2.60411   2.62646   2.63801   2.65198
 Alpha virt. eigenvalues --    2.66083   2.67694   2.68339   2.68507   2.69124
 Alpha virt. eigenvalues --    2.70760   2.71570   2.72314   2.74517   2.75043
 Alpha virt. eigenvalues --    2.77155   2.78031   2.79879   2.80144   2.81552
 Alpha virt. eigenvalues --    2.82338   2.83024   2.84538   2.84968   2.85115
 Alpha virt. eigenvalues --    2.85201   2.86003   2.86343   2.87616   2.89355
 Alpha virt. eigenvalues --    2.90011   2.91153   2.91675   2.93066   2.93342
 Alpha virt. eigenvalues --    2.95538   2.97724   3.01657   3.09783   3.10419
 Alpha virt. eigenvalues --    3.17408   3.17958   3.20289   3.20916   3.21128
 Alpha virt. eigenvalues --    3.21913   3.22923   3.26699   3.30665   3.33468
 Alpha virt. eigenvalues --    3.35272   3.36905   3.39474   3.43319   3.43698
 Alpha virt. eigenvalues --    3.44489   3.44698   3.45088   3.45666   3.46012
 Alpha virt. eigenvalues --    3.46562   3.46967   3.48876   3.49475   3.50777
 Alpha virt. eigenvalues --    3.53079   3.56142   3.66263   4.00262   4.12898
 Alpha virt. eigenvalues --    4.20829   4.23738   4.34716   4.38517   4.45307
 Alpha virt. eigenvalues --    4.46021   4.47955   4.51436   4.52133   4.59676
 Alpha virt. eigenvalues --    4.61865   4.67275   4.71059   4.78808   4.80744
          Condensed to atoms (all electrons):
               1          2          3          4          5          6
     1  C    4.824685   0.309942  -0.028627  -0.011271  -0.007386   0.382385
     2  C    0.309942   5.122375   0.354434  -0.052425  -0.014934  -0.049875
     3  C   -0.028627   0.354434   4.841195   0.274030  -0.015378  -0.014251
     4  C   -0.011271  -0.052425   0.274030   5.339796   0.292871   0.001295
     5  C   -0.007386  -0.014934  -0.015378   0.292871   4.362379  -0.002509
     6  H    0.382385  -0.049875  -0.014251   0.001295  -0.002509   0.640671
     7  H   -0.027129   0.365344  -0.031148   0.006215   0.000471  -0.000949
     8  H    0.000011   0.005895  -0.034009   0.360064  -0.022027   0.000095
     9  H    0.000697  -0.005883  -0.022149   0.367775  -0.023769  -0.000059
    10  O    0.159917  -0.035545   0.000657  -0.093647   0.261136  -0.039821
    11  O    0.001860  -0.000158   0.002802  -0.085774   0.569348   0.000193
    12  C    0.383003  -0.037230   0.004767  -0.000407   0.001481  -0.049375
    13  C   -0.040071  -0.000161   0.000031   0.000033  -0.000059  -0.001690
    14  C   -0.044261   0.351901  -0.042612  -0.007569  -0.000314   0.006045
    15  O    0.002687  -0.050091   0.182788  -0.030276   0.001346  -0.000005
    16  Si   0.000202  -0.001517  -0.012107  -0.004166   0.000445  -0.000012
    17  C    0.000000   0.000003   0.001065  -0.000189  -0.000002   0.000000
    18  C    0.000003  -0.000024  -0.001622  -0.000427   0.000095   0.000000
    19  C    0.000000  -0.000049  -0.001246  -0.000144   0.000000   0.000000
    20  H    0.000000   0.000001   0.000005   0.000143  -0.000002   0.000000
    21  H    0.000000  -0.000003  -0.000268  -0.000425  -0.000007   0.000000
    22  H    0.000000  -0.000002   0.000475  -0.002091  -0.000047   0.000000
    23  H    0.000000   0.000001   0.000020   0.000001   0.000000   0.000000
    24  H    0.000000  -0.000001  -0.000086  -0.000027   0.000000   0.000000
    25  H    0.000000   0.000008  -0.000026   0.000003   0.000000   0.000000
    26  H    0.000000   0.000000  -0.000013   0.000002   0.000000   0.000000
    27  H    0.000000   0.000006  -0.000037   0.000007   0.000000   0.000000
    28  H    0.000000  -0.000003  -0.000028  -0.000038   0.000000   0.000000
    29  H   -0.005305  -0.028044   0.004240  -0.000115  -0.000003  -0.000041
    30  H   -0.006968  -0.033922  -0.007221   0.003951   0.000049   0.000189
    31  H    0.004508  -0.026861  -0.007117  -0.000220  -0.000066  -0.000130
    32  H   -0.031681  -0.011076  -0.000061  -0.000008   0.000133   0.006054
    33  H   -0.030288   0.005406  -0.000085   0.000017   0.000014  -0.006921
    34  H    0.004037   0.000074  -0.000002   0.000000   0.000000  -0.000128
    35  H   -0.006552   0.002556  -0.000007  -0.000003   0.000003  -0.000267
    36  H   -0.004940  -0.001727  -0.000060   0.000000   0.000003   0.005484
    37  C    0.001685  -0.062222   0.341406  -0.060908  -0.000370   0.004568
    38  C   -0.002900  -0.008030  -0.035323   0.004868   0.000003   0.001029
    39  C   -0.001043   0.000265  -0.001524  -0.000085  -0.000012   0.003399
    40  H    0.001081  -0.003370  -0.025276  -0.003948   0.003417  -0.000490
    41  H   -0.000100   0.005069  -0.030387  -0.005621  -0.000182   0.000161
    42  H    0.000070  -0.001085  -0.002898   0.000097  -0.000002   0.000013
    43  H    0.000024  -0.000046  -0.000073   0.000003   0.000000  -0.000029
    44  H   -0.000236  -0.000101   0.000208  -0.000005  -0.000006   0.001151
               7          8          9         10         11         12
     1  C   -0.027129   0.000011   0.000697   0.159917   0.001860   0.383003
     2  C    0.365344   0.005895  -0.005883  -0.035545  -0.000158  -0.037230
     3  C   -0.031148  -0.034009  -0.022149   0.000657   0.002802   0.004767
     4  C    0.006215   0.360064   0.367775  -0.093647  -0.085774  -0.000407
     5  C    0.000471  -0.022027  -0.023769   0.261136   0.569348   0.001481
     6  H   -0.000949   0.000095  -0.000059  -0.039821   0.000193  -0.049375
     7  H    0.610683  -0.000124  -0.000092   0.002845   0.000004  -0.005562
     8  H   -0.000124   0.569259  -0.024291   0.003183   0.002732   0.000009
     9  H   -0.000092  -0.024291   0.535246  -0.000141  -0.001093  -0.000004
    10  O    0.002845   0.003183  -0.000141   8.330722  -0.075092  -0.038982
    11  O    0.000004   0.002732  -0.001093  -0.075092   8.089567  -0.000082
    12  C   -0.005562   0.000009  -0.000004  -0.038982  -0.000082   4.939797
    13  C    0.002531   0.000000  -0.000001   0.002613   0.000000   0.349856
    14  C   -0.041342   0.000078   0.001828  -0.003837  -0.000010  -0.008036
    15  O    0.000365   0.000060  -0.001509  -0.000010  -0.000013  -0.000041
    16  Si   0.000625  -0.001425   0.002578   0.000006  -0.000080  -0.000005
    17  C   -0.000003   0.000015  -0.000129   0.000000   0.000000   0.000000
    18  C    0.000003  -0.000228  -0.000573  -0.000001  -0.000003   0.000000
    19  C   -0.000022  -0.000017   0.000013   0.000000   0.000000   0.000000
    20  H    0.000000   0.000124   0.000000   0.000000   0.000000   0.000000
    21  H    0.000000   0.000627   0.000865   0.000000   0.000004   0.000000
    22  H    0.000000   0.002897  -0.000077   0.000000  -0.000003   0.000000
    23  H    0.000000   0.000001   0.000000   0.000000   0.000000   0.000000
    24  H   -0.000002  -0.000010   0.000000   0.000000   0.000000   0.000000
    25  H   -0.000002   0.000000   0.000000   0.000000   0.000000   0.000000
    26  H    0.000000   0.000000   0.000002   0.000000   0.000000   0.000000
    27  H    0.000000   0.000000  -0.000002   0.000000   0.000000   0.000000
    28  H    0.000000  -0.000003   0.000014   0.000000   0.000000   0.000000
    29  H   -0.005273   0.000000  -0.000033   0.000030   0.000000   0.001847
    30  H    0.005372   0.000029   0.001122   0.006187  -0.000091  -0.001534
    31  H   -0.002419  -0.000039   0.000599   0.000044   0.000000   0.000131
    32  H    0.000144   0.000000  -0.000007   0.000823  -0.000005   0.379867
    33  H   -0.000026  -0.000001   0.000001   0.001876  -0.000009   0.377812
    34  H   -0.000033   0.000000   0.000000  -0.000051   0.000000  -0.025545
    35  H    0.001643   0.000000   0.000000  -0.000005   0.000000  -0.034825
    36  H    0.000622   0.000000   0.000000   0.000017   0.000000  -0.036656
    37  C   -0.011263  -0.007654   0.004438  -0.001780  -0.000043  -0.000140
    38  C    0.010712   0.000121  -0.000120   0.000117   0.000000  -0.000004
    39  C    0.001778   0.000001   0.000001   0.000003   0.000000  -0.000074
    40  H    0.000098   0.000220   0.000099   0.000481  -0.000146   0.000091
    41  H    0.000178   0.003780  -0.000085  -0.000005   0.000002  -0.000002
    42  H    0.000887   0.000000   0.000004   0.000000   0.000000   0.000003
    43  H    0.000046   0.000000   0.000000   0.000000   0.000000  -0.000001
    44  H    0.000032   0.000001   0.000000  -0.000002   0.000000   0.000011
              13         14         15         16         17         18
     1  C   -0.040071  -0.044261   0.002687   0.000202   0.000000   0.000003
     2  C   -0.000161   0.351901  -0.050091  -0.001517   0.000003  -0.000024
     3  C    0.000031  -0.042612   0.182788  -0.012107   0.001065  -0.001622
     4  C    0.000033  -0.007569  -0.030276  -0.004166  -0.000189  -0.000427
     5  C   -0.000059  -0.000314   0.001346   0.000445  -0.000002   0.000095
     6  H   -0.001690   0.006045  -0.000005  -0.000012   0.000000   0.000000
     7  H    0.002531  -0.041342   0.000365   0.000625  -0.000003   0.000003
     8  H    0.000000   0.000078   0.000060  -0.001425   0.000015  -0.000228
     9  H   -0.000001   0.001828  -0.001509   0.002578  -0.000129  -0.000573
    10  O    0.002613  -0.003837  -0.000010   0.000006   0.000000  -0.000001
    11  O    0.000000  -0.000010  -0.000013  -0.000080   0.000000  -0.000003
    12  C    0.349856  -0.008036  -0.000041  -0.000005   0.000000   0.000000
    13  C    4.936022  -0.002253   0.000000   0.000000   0.000000   0.000000
    14  C   -0.002253   4.976794  -0.007945   0.000309  -0.000032  -0.000016
    15  O    0.000000  -0.007945   8.292502   0.336974  -0.020147  -0.013919
    16  Si   0.000000   0.000309   0.336974  11.856323   0.377758   0.366680
    17  C    0.000000  -0.000032  -0.020147   0.377758   5.119878  -0.031289
    18  C    0.000000  -0.000016  -0.013919   0.366680  -0.031289   5.150434
    19  C    0.000000   0.000003  -0.018529   0.370118  -0.034733  -0.035362
    20  H    0.000000   0.000000   0.000447  -0.013397  -0.001073   0.372261
    21  H    0.000000  -0.000002  -0.000417  -0.026294  -0.001109   0.377676
    22  H    0.000000  -0.000001  -0.000379  -0.027761   0.001477   0.375620
    23  H    0.000000   0.000000   0.000566  -0.013431  -0.000590  -0.000353
    24  H    0.000000   0.000000  -0.000565  -0.028598   0.001411  -0.001493
    25  H    0.000000   0.000000  -0.000770  -0.026824  -0.001161   0.001347
    26  H    0.000000   0.000000   0.000509  -0.014148   0.372444  -0.000807
    27  H    0.000000  -0.000006  -0.000461  -0.024654   0.376462   0.001416
    28  H    0.000000   0.000001  -0.000415  -0.025104   0.375428  -0.001230
    29  H   -0.000034   0.379270   0.000301  -0.000032   0.000000   0.000000
    30  H    0.000173   0.382769  -0.000042  -0.000052  -0.000001   0.000001
    31  H    0.000014   0.381971   0.008603   0.001654   0.000038   0.000004
    32  H   -0.034934   0.004751  -0.000001   0.000000   0.000000   0.000000
    33  H   -0.035656   0.000018   0.000000   0.000000   0.000000   0.000000
    34  H    0.382005  -0.000004   0.000000   0.000000   0.000000   0.000000
    35  H    0.387710   0.000181   0.000001  -0.000001   0.000000   0.000000
    36  H    0.386077   0.000206   0.000000   0.000000   0.000000   0.000000
    37  C   -0.000003   0.005381  -0.046344   0.000418  -0.000060  -0.001475
    38  C   -0.000105   0.000062   0.000992   0.000057  -0.000005   0.000044
    39  C   -0.000189   0.000022   0.000227  -0.000012   0.000000   0.000000
    40  H    0.000003  -0.000106   0.003054  -0.000463   0.000001   0.000007
    41  H    0.000000  -0.000102  -0.004139   0.006446   0.000001  -0.000651
    42  H   -0.000002  -0.000039   0.003321   0.000629  -0.000009   0.000008
    43  H   -0.000002   0.000000   0.000003   0.000006   0.000000   0.000000
    44  H   -0.000015   0.000000  -0.000002   0.000014   0.000000   0.000000
              19         20         21         22         23         24
     1  C    0.000000   0.000000   0.000000   0.000000   0.000000   0.000000
     2  C   -0.000049   0.000001  -0.000003  -0.000002   0.000001  -0.000001
     3  C   -0.001246   0.000005  -0.000268   0.000475   0.000020  -0.000086
     4  C   -0.000144   0.000143  -0.000425  -0.002091   0.000001  -0.000027
     5  C    0.000000  -0.000002  -0.000007  -0.000047   0.000000   0.000000
     6  H    0.000000   0.000000   0.000000   0.000000   0.000000   0.000000
     7  H   -0.000022   0.000000   0.000000   0.000000   0.000000  -0.000002
     8  H   -0.000017   0.000124   0.000627   0.002897   0.000001  -0.000010
     9  H    0.000013   0.000000   0.000865  -0.000077   0.000000   0.000000
    10  O    0.000000   0.000000   0.000000   0.000000   0.000000   0.000000
    11  O    0.000000   0.000000   0.000004  -0.000003   0.000000   0.000000
    12  C    0.000000   0.000000   0.000000   0.000000   0.000000   0.000000
    13  C    0.000000   0.000000   0.000000   0.000000   0.000000   0.000000
    14  C    0.000003   0.000000  -0.000002  -0.000001   0.000000   0.000000
    15  O   -0.018529   0.000447  -0.000417  -0.000379   0.000566  -0.000565
    16  Si   0.370118  -0.013397  -0.026294  -0.027761  -0.013431  -0.028598
    17  C   -0.034733  -0.001073  -0.001109   0.001477  -0.000590   0.001411
    18  C   -0.035362   0.372261   0.377676   0.375620  -0.000353  -0.001493
    19  C    5.141581  -0.000575   0.001362  -0.001591   0.369742   0.375791
    20  H   -0.000575   0.561142  -0.022572  -0.022774   0.000095  -0.000019
    21  H    0.001362  -0.022572   0.571281  -0.023768   0.000006   0.000006
    22  H   -0.001591  -0.022774  -0.023768   0.578079  -0.000015   0.000606
    23  H    0.369742   0.000095   0.000006  -0.000015   0.570957  -0.023446
    24  H    0.375791  -0.000019   0.000006   0.000606  -0.023446   0.583746
    25  H    0.379070   0.000015  -0.000025   0.000011  -0.023643  -0.022873
    26  H   -0.000302   0.000093  -0.000052   0.000000  -0.000046   0.000003
    27  H   -0.001417   0.000016   0.000004  -0.000027  -0.000043   0.000005
    28  H    0.001384  -0.000043   0.000609   0.000000   0.000017  -0.000027
    29  H    0.000000   0.000000   0.000000   0.000000   0.000000   0.000000
    30  H    0.000000   0.000000  -0.000002   0.000000   0.000000   0.000000
    31  H   -0.000004   0.000000  -0.000003   0.000000   0.000000   0.000000
    32  H    0.000000   0.000000   0.000000   0.000000   0.000000   0.000000
    33  H    0.000000   0.000000   0.000000   0.000000   0.000000   0.000000
    34  H    0.000000   0.000000   0.000000   0.000000   0.000000   0.000000
    35  H    0.000000   0.000000   0.000000   0.000000   0.000000   0.000000
    36  H    0.000000   0.000000   0.000000   0.000000   0.000000   0.000000
    37  C   -0.000248   0.000022   0.000079  -0.000556   0.000010  -0.000376
    38  C   -0.001034   0.000000   0.000000  -0.000014   0.000041   0.000937
    39  C    0.000009   0.000000   0.000000  -0.000001   0.000000   0.000033
    40  H    0.000026   0.000000   0.000001   0.000003   0.000000   0.000005
    41  H   -0.000701   0.000006  -0.000042   0.001862   0.000003   0.001143
    42  H    0.000712   0.000000   0.000000   0.000000   0.000011   0.000138
    43  H    0.000001   0.000000   0.000000   0.000000   0.000000   0.000001
    44  H   -0.000001   0.000000   0.000000   0.000000   0.000000  -0.000001
              25         26         27         28         29         30
     1  C    0.000000   0.000000   0.000000   0.000000  -0.005305  -0.006968
     2  C    0.000008   0.000000   0.000006  -0.000003  -0.028044  -0.033922
     3  C   -0.000026  -0.000013  -0.000037  -0.000028   0.004240  -0.007221
     4  C    0.000003   0.000002   0.000007  -0.000038  -0.000115   0.003951
     5  C    0.000000   0.000000   0.000000   0.000000  -0.000003   0.000049
     6  H    0.000000   0.000000   0.000000   0.000000  -0.000041   0.000189
     7  H   -0.000002   0.000000   0.000000   0.000000  -0.005273   0.005372
     8  H    0.000000   0.000000   0.000000  -0.000003   0.000000   0.000029
     9  H    0.000000   0.000002  -0.000002   0.000014  -0.000033   0.001122
    10  O    0.000000   0.000000   0.000000   0.000000   0.000030   0.006187
    11  O    0.000000   0.000000   0.000000   0.000000   0.000000  -0.000091
    12  C    0.000000   0.000000   0.000000   0.000000   0.001847  -0.001534
    13  C    0.000000   0.000000   0.000000   0.000000  -0.000034   0.000173
    14  C    0.000000   0.000000  -0.000006   0.000001   0.379270   0.382769
    15  O   -0.000770   0.000509  -0.000461  -0.000415   0.000301  -0.000042
    16  Si  -0.026824  -0.014148  -0.024654  -0.025104  -0.000032  -0.000052
    17  C   -0.001161   0.372444   0.376462   0.375428   0.000000  -0.000001
    18  C    0.001347  -0.000807   0.001416  -0.001230   0.000000   0.000001
    19  C    0.379070  -0.000302  -0.001417   0.001384   0.000000   0.000000
    20  H    0.000015   0.000093   0.000016  -0.000043   0.000000   0.000000
    21  H   -0.000025  -0.000052   0.000004   0.000609   0.000000  -0.000002
    22  H    0.000011   0.000000  -0.000027   0.000000   0.000000   0.000000
    23  H   -0.023643  -0.000046  -0.000043   0.000017   0.000000   0.000000
    24  H   -0.022873   0.000003   0.000005  -0.000027   0.000000   0.000000
    25  H    0.574797  -0.000034   0.000585   0.000003   0.000000   0.000000
    26  H   -0.000034   0.568769  -0.023827  -0.023583   0.000000   0.000000
    27  H    0.000585  -0.023827   0.575854  -0.021954   0.000000   0.000000
    28  H    0.000003  -0.023583  -0.021954   0.578947   0.000000  -0.000001
    29  H    0.000000   0.000000   0.000000   0.000000   0.601039  -0.031213
    30  H    0.000000   0.000000   0.000000  -0.000001  -0.031213   0.602853
    31  H   -0.000002   0.000000   0.000043   0.000072  -0.030194  -0.029524
    32  H    0.000000   0.000000   0.000000   0.000000   0.000726   0.001060
    33  H    0.000000   0.000000   0.000000   0.000000   0.000017  -0.000035
    34  H    0.000000   0.000000   0.000000   0.000000  -0.000053   0.000001
    35  H    0.000000   0.000000   0.000000   0.000000   0.002177  -0.000020
    36  H    0.000000   0.000000   0.000000   0.000000  -0.000040  -0.000004
    37  C    0.000007   0.000001  -0.000002   0.000001  -0.000091  -0.000053
    38  C   -0.000400   0.000000   0.000000   0.000000   0.000000  -0.000002
    39  C    0.000001   0.000000   0.000000   0.000000   0.000001  -0.000001
    40  H   -0.000002   0.000000   0.000000   0.000000  -0.000002  -0.000005
    41  H    0.000051   0.000001   0.000001   0.000000   0.000002   0.000002
    42  H    0.001324   0.000000  -0.000003   0.000000   0.000000   0.000000
    43  H   -0.000002   0.000000   0.000000   0.000000   0.000000   0.000000
    44  H    0.000000   0.000000   0.000000   0.000000   0.000000   0.000000
              31         32         33         34         35         36
     1  C    0.004508  -0.031681  -0.030288   0.004037  -0.006552  -0.004940
     2  C   -0.026861  -0.011076   0.005406   0.000074   0.002556  -0.001727
     3  C   -0.007117  -0.000061  -0.000085  -0.000002  -0.000007  -0.000060
     4  C   -0.000220  -0.000008   0.000017   0.000000  -0.000003   0.000000
     5  C   -0.000066   0.000133   0.000014   0.000000   0.000003   0.000003
     6  H   -0.000130   0.006054  -0.006921  -0.000128  -0.000267   0.005484
     7  H   -0.002419   0.000144  -0.000026  -0.000033   0.001643   0.000622
     8  H   -0.000039   0.000000  -0.000001   0.000000   0.000000   0.000000
     9  H    0.000599  -0.000007   0.000001   0.000000   0.000000   0.000000
    10  O    0.000044   0.000823   0.001876  -0.000051  -0.000005   0.000017
    11  O    0.000000  -0.000005  -0.000009   0.000000   0.000000   0.000000
    12  C    0.000131   0.379867   0.377812  -0.025545  -0.034825  -0.036656
    13  C    0.000014  -0.034934  -0.035656   0.382005   0.387710   0.386077
    14  C    0.381971   0.004751   0.000018  -0.000004   0.000181   0.000206
[...]
    14  C    0.000002   0.000000  -0.000002  -0.000001   0.000000   0.000000
    15  O   -0.018038   0.000490  -0.000511  -0.000503   0.000533  -0.000629
    16  Si   0.365376  -0.014214  -0.024127  -0.024574  -0.013460  -0.025964
    17  C   -0.030779  -0.000708  -0.001123   0.001182  -0.000397   0.001195
    18  C   -0.033115   0.369282   0.378242   0.376990  -0.000426  -0.001208
    19  C    5.144658  -0.000415   0.001206  -0.001219   0.367593   0.377371
    20  H   -0.000415   0.568665  -0.023268  -0.023511   0.000130  -0.000023
    21  H    0.001206  -0.023268   0.568918  -0.024156   0.000006   0.000003
    22  H   -0.001219  -0.023511  -0.024156   0.573105  -0.000032   0.000426
    23  H    0.367593   0.000130   0.000006  -0.000032   0.573310  -0.023663
    24  H    0.377371  -0.000023   0.000003   0.000426  -0.023663   0.575145
    25  H    0.379037   0.000008  -0.000021   0.000005  -0.024249  -0.023408
    26  H   -0.000036   0.000047  -0.000051  -0.000002  -0.000039   0.000005
    27  H   -0.001383   0.000008   0.000000  -0.000020  -0.000019   0.000002
    28  H    0.001215  -0.000037   0.000469   0.000004   0.000008  -0.000021
    29  H    0.000000   0.000000   0.000000   0.000000   0.000000   0.000000
    30  H    0.000000   0.000000  -0.000001   0.000000   0.000000   0.000000
    31  H   -0.000001   0.000000  -0.000004   0.000000   0.000000   0.000000
    32  H    0.000000   0.000000   0.000000   0.000000   0.000000   0.000000
    33  H    0.000000   0.000000   0.000000   0.000000   0.000000   0.000000
    34  H    0.000000   0.000000   0.000000   0.000000   0.000000   0.000000
    35  H    0.000000   0.000000   0.000000   0.000000   0.000000   0.000000
    36  H    0.000000   0.000000   0.000000   0.000000   0.000000   0.000000
    37  C   -0.000028   0.000014   0.000049  -0.000355   0.000009  -0.000217
    38  C   -0.001146   0.000000   0.000001  -0.000004   0.000049   0.001024
    39  C   -0.000002   0.000000   0.000000   0.000000   0.000000   0.000042
    40  H    0.000018   0.000000   0.000001  -0.000002   0.000000   0.000001
    41  H   -0.000581   0.000006  -0.000021   0.001104   0.000000   0.000983
    42  H    0.000666   0.000000   0.000000  -0.000001   0.000015  -0.000154
    43  H    0.000002   0.000000   0.000000   0.000000   0.000000   0.000001
    44  H   -0.000001   0.000000   0.000000   0.000000   0.000000  -0.000001
              25         26         27         28         29         30
     1  C    0.000000   0.000000   0.000000   0.000000  -0.004566  -0.007102
     2  C    0.000007   0.000000   0.000011  -0.000003  -0.026747  -0.033826
     3  C   -0.000030  -0.000015  -0.000050  -0.000022   0.004113  -0.006508
     4  C    0.000002   0.000001   0.000007  -0.000035  -0.000033   0.003464
     5  C    0.000000   0.000000   0.000000   0.000000  -0.000032   0.000509
     6  H    0.000000   0.000000   0.000000   0.000000  -0.000072   0.000193
     7  H   -0.000004   0.000000   0.000001   0.000000  -0.005969   0.005199
     8  H    0.000000   0.000000   0.000000  -0.000002   0.000000   0.000036
     9  H    0.000000   0.000002  -0.000002   0.000012  -0.000039   0.000725
    10  O    0.000000   0.000000   0.000000   0.000000   0.000050   0.005372
    11  O    0.000000   0.000000   0.000000   0.000000   0.000000  -0.000142
    12  C    0.000000   0.000000   0.000000   0.000000   0.001484  -0.001895
    13  C    0.000000   0.000000   0.000000   0.000000   0.000197   0.000193
    14  C    0.000000   0.000001  -0.000011  -0.000004   0.379752   0.383224
    15  O   -0.000879   0.000677  -0.000681  -0.000539   0.000243   0.000026
    16  Si  -0.025646  -0.014686  -0.023094  -0.023294  -0.000026  -0.000048
    17  C   -0.001124   0.367983   0.377244   0.376846   0.000000  -0.000001
    18  C    0.001197  -0.000482   0.001195  -0.001331   0.000000   0.000001
    19  C    0.379037  -0.000036  -0.001383   0.001215   0.000000   0.000000
    20  H    0.000008   0.000047   0.000008  -0.000037   0.000000   0.000000
    21  H   -0.000021  -0.000051   0.000000   0.000469   0.000000  -0.000001
    22  H    0.000005  -0.000002  -0.000020   0.000004   0.000000   0.000000
    23  H   -0.024249  -0.000039  -0.000019   0.000008   0.000000   0.000000
    24  H   -0.023408   0.000005   0.000002  -0.000021   0.000000   0.000000
    25  H    0.572641  -0.000053   0.000483   0.000002   0.000000   0.000000
    26  H   -0.000053   0.576311  -0.024197  -0.024064   0.000000   0.000000
    27  H    0.000483  -0.024197   0.570913  -0.022437   0.000000   0.000000
    28  H    0.000002  -0.024064  -0.022437   0.572620   0.000000  -0.000001
    29  H    0.000000   0.000000   0.000000   0.000000   0.597084  -0.032027
    30  H    0.000000   0.000000   0.000000  -0.000001  -0.032027   0.602284
    31  H   -0.000002   0.000001   0.000121   0.000216  -0.027820  -0.029427
    32  H    0.000000   0.000000   0.000000   0.000000   0.000341   0.001428
    33  H    0.000000   0.000000   0.000000   0.000000   0.000027  -0.000049
    34  H    0.000000   0.000000   0.000000   0.000000  -0.000051   0.000001
    35  H    0.000000   0.000000   0.000000   0.000000   0.002187  -0.000019
    36  H    0.000000   0.000000   0.000000   0.000000  -0.000046  -0.000003
    37  C    0.000010   0.000002  -0.000005   0.000001  -0.000104  -0.000077
    38  C   -0.000418   0.000000   0.000000   0.000000   0.000000  -0.000001
    39  C    0.000000   0.000000   0.000000   0.000000   0.000001   0.000000
    40  H   -0.000002   0.000000   0.000000   0.000000  -0.000002  -0.000007
    41  H    0.000050   0.000001   0.000001   0.000000   0.000002   0.000002
    42  H    0.001381   0.000000  -0.000008   0.000000   0.000000   0.000000
    43  H   -0.000003   0.000000   0.000000   0.000000   0.000000   0.000000
    44  H    0.000000   0.000000   0.000000   0.000000   0.000000   0.000000
              31         32         33         34         35         36
     1  C    0.004692  -0.032934  -0.032625   0.003943  -0.006180  -0.005002
     2  C   -0.030180  -0.012271   0.005531   0.000043   0.002568  -0.001485
     3  C   -0.007850  -0.000048  -0.000087  -0.000002  -0.000009  -0.000047
     4  C   -0.000591   0.000000   0.000017   0.000000  -0.000003   0.000000
     5  C   -0.000078   0.000150   0.000068   0.000000   0.000004   0.000002
     6  H   -0.000148   0.006105  -0.006185  -0.000096  -0.000295   0.005583
     7  H   -0.001781   0.000152  -0.000057  -0.000042   0.001459   0.000582
     8  H   -0.000051   0.000000  -0.000001   0.000000   0.000000   0.000000
     9  H    0.000867  -0.000011   0.000001   0.000000   0.000000   0.000000
    10  O    0.000015   0.001025   0.001835  -0.000051  -0.000008   0.000016
    11  O    0.000000  -0.000012  -0.000013   0.000000   0.000000   0.000000
    12  C    0.000183   0.379963   0.378690  -0.025214  -0.033196  -0.035312
    13  C    0.000005  -0.034075  -0.033804   0.382091   0.387064   0.385762
    14  C    0.381823   0.005840  -0.000006   0.000010  -0.000078   0.000183
    15  O    0.010414  -0.000001   0.000000   0.000000   0.000001   0.000000
    16  Si   0.001531   0.000000   0.000000   0.000000   0.000000   0.000000
    17  C    0.000166   0.000000   0.000000   0.000000   0.000000   0.000000
    18  C    0.000002   0.000000   0.000000   0.000000   0.000000   0.000000
    19  C   -0.000001   0.000000   0.000000   0.000000   0.000000   0.000000
    20  H    0.000000   0.000000   0.000000   0.000000   0.000000   0.000000
    21  H   -0.000004   0.000000   0.000000   0.000000   0.000000   0.000000
    22  H    0.000000   0.000000   0.000000   0.000000   0.000000   0.000000
    23  H    0.000000   0.000000   0.000000   0.000000   0.000000   0.000000
    24  H    0.000000   0.000000   0.000000   0.000000   0.000000   0.000000
    25  H   -0.000002   0.000000   0.000000   0.000000   0.000000   0.000000
    26  H    0.000001   0.000000   0.000000   0.000000   0.000000   0.000000
    27  H    0.000121   0.000000   0.000000   0.000000   0.000000   0.000000
    28  H    0.000216   0.000000   0.000000   0.000000   0.000000   0.000000
    29  H   -0.027820   0.000341   0.000027  -0.000051   0.002187  -0.000046
    30  H   -0.029427   0.001428  -0.000049   0.000001  -0.000019  -0.000003
    31  H    0.566611  -0.000100  -0.000002   0.000000  -0.000049   0.000001
    32  H   -0.000100   0.610137  -0.036094  -0.002618  -0.005311   0.005090
    33  H   -0.000002  -0.036094   0.612202  -0.004504   0.004998  -0.004033
    34  H    0.000000  -0.002618  -0.004504   0.592096  -0.030056  -0.030038
    35  H   -0.000049  -0.005311   0.004998  -0.030056   0.593983  -0.032794
    36  H    0.000001   0.005090  -0.004033  -0.030038  -0.032794   0.597397
    37  C    0.000293   0.000004   0.000005   0.000000   0.000007  -0.000014
    38  C   -0.000002  -0.000005  -0.000001   0.000001  -0.000025   0.000154
    39  C    0.000000   0.000000   0.000001   0.000001  -0.000008   0.000660
    40  H   -0.000011  -0.000003   0.000002   0.000000   0.000000  -0.000010
    41  H   -0.000005   0.000000   0.000000   0.000000   0.000000   0.000000
    42  H   -0.000004   0.000000   0.000000   0.000000  -0.000001   0.000001
    43  H    0.000000   0.000000   0.000000   0.000000   0.000000   0.000005
    44  H    0.000000   0.000000  -0.000001   0.000000  -0.000001   0.000047
              37         38         39         40         41         42
     1  C    0.001801  -0.003331  -0.001015   0.001172  -0.000106   0.000097
     2  C   -0.064004  -0.009425   0.000138  -0.003755   0.005796  -0.001513
     3  C    0.344806  -0.033253  -0.000908  -0.025816  -0.032525  -0.003267
     4  C   -0.060797   0.005031  -0.000104  -0.003650  -0.006883   0.000145
     5  C   -0.000167  -0.000024  -0.000009   0.002521  -0.000209  -0.000003
     6  H    0.005553   0.001199   0.003715  -0.001911   0.000204   0.000002
     7  H   -0.013211   0.012213   0.001703   0.000117   0.000229   0.001150
     8  H   -0.007427   0.000104   0.000001   0.000168   0.004328   0.000000
     9  H    0.004748  -0.000132   0.000001   0.000082  -0.000101   0.000004
    10  O   -0.002228   0.000141   0.000001   0.001276  -0.000003   0.000000
    11  O   -0.000006   0.000000   0.000000  -0.000209  -0.000001   0.000000
    12  C   -0.000147   0.000019  -0.000046   0.000147  -0.000002   0.000004
    13  C    0.000001  -0.000088  -0.000117   0.000000   0.000000  -0.000002
    14  C    0.005741   0.000029   0.000016  -0.000132  -0.000126  -0.000048
    15  O   -0.052241   0.000569   0.000304   0.003542  -0.004476   0.004168
    16  Si  -0.000965   0.000066  -0.000046  -0.000269   0.006133   0.001191
    17  C   -0.000061  -0.000009   0.000000   0.000001   0.000002  -0.000029
    18  C   -0.000997   0.000033   0.000000  -0.000001  -0.000434   0.000008
    19  C   -0.000028  -0.001146  -0.000002   0.000018  -0.000581   0.000666
    20  H    0.000014   0.000000   0.000000   0.000000   0.000006   0.000000
    21  H    0.000049   0.000001   0.000000   0.000001  -0.000021   0.000000
    22  H   -0.000355  -0.000004   0.000000  -0.000002   0.001104  -0.000001
    23  H    0.000009   0.000049   0.000000   0.000000   0.000000   0.000015
    24  H   -0.000217   0.001024   0.000042   0.000001   0.000983  -0.000154
    25  H    0.000010  -0.000418   0.000000  -0.000002   0.000050   0.001381
    26  H    0.000002   0.000000   0.000000   0.000000   0.000001   0.000000
    27  H   -0.000005   0.000000   0.000000   0.000000   0.000001  -0.000008
    28  H    0.000001   0.000000   0.000000   0.000000   0.000000   0.000000
    29  H   -0.000104   0.000000   0.000001  -0.000002   0.000002   0.000000
    30  H   -0.000077  -0.000001   0.000000  -0.000007   0.000002   0.000000
    31  H    0.000293  -0.000002   0.000000  -0.000011  -0.000005  -0.000004
    32  H    0.000004  -0.000005   0.000000  -0.000003   0.000000   0.000000
    33  H    0.000005  -0.000001   0.000001   0.000002   0.000000   0.000000
    34  H    0.000000   0.000001   0.000001   0.000000   0.000000   0.000000
    35  H    0.000007  -0.000025  -0.000008   0.000000   0.000000  -0.000001
    36  H   -0.000014   0.000154   0.000660  -0.000010   0.000000   0.000001
    37  C    5.069071   0.379766  -0.039345   0.362054   0.369257  -0.054069
    38  C    0.379766   4.768474   0.654206  -0.038639  -0.036783   0.384796
    39  C   -0.039345   0.654206   4.937417  -0.006372  -0.000524  -0.043288
    40  H    0.362054  -0.038639  -0.006372   0.621257  -0.030239   0.005217
    41  H    0.369257  -0.036783  -0.000524  -0.030239   0.604172  -0.001334
    42  H   -0.054069   0.384796  -0.043288   0.005217  -0.001334   0.600860
    43  H    0.004641  -0.024640   0.376331   0.000096  -0.000201  -0.007982
    44  H   -0.012109  -0.035257   0.382209   0.005799   0.000170   0.005604
              43         44
     1  C    0.000020  -0.000191
     2  C   -0.000040  -0.000092
     3  C   -0.000082   0.000225
     4  C    0.000003  -0.000004
     5  C    0.000000  -0.000004
     6  H   -0.000026   0.000913
     7  H    0.000050   0.000031
     8  H    0.000000   0.000001
     9  H    0.000000   0.000000
    10  O    0.000000  -0.000002
    11  O    0.000000   0.000000
    12  C   -0.000001   0.000009
    13  C   -0.000001  -0.000009
    14  C    0.000000   0.000000
    15  O    0.000003  -0.000002
    16  Si   0.000013   0.000011
    17  C    0.000000   0.000000
    18  C    0.000000   0.000000
    19  C    0.000002  -0.000001
    20  H    0.000000   0.000000
    21  H    0.000000   0.000000
    22  H    0.000000   0.000000
    23  H    0.000000   0.000000
    24  H    0.000001  -0.000001
    25  H   -0.000003   0.000000
    26  H    0.000000   0.000000
    27  H    0.000000   0.000000
    28  H    0.000000   0.000000
    29  H    0.000000   0.000000
    30  H    0.000000   0.000000
    31  H    0.000000   0.000000
    32  H    0.000000   0.000000
    33  H    0.000000  -0.000001
    34  H    0.000000   0.000000
    35  H    0.000000  -0.000001
    36  H    0.000005   0.000047
    37  C    0.004641  -0.012109
    38  C   -0.024640  -0.035257
    39  C    0.376331   0.382209
    40  H    0.000096   0.005799
    41  H   -0.000201   0.000170
    42  H   -0.007982   0.005604
    43  H    0.586826  -0.043114
    44  H   -0.043114   0.591953
 Mulliken charges:
               1
     1  C    0.171912
     2  C   -0.097143
     3  C    0.312981
     4  C   -0.298567
     5  C    0.593392
     6  H    0.114013
     7  H    0.112850
     8  H    0.140394
     9  H    0.160631
    10  O   -0.490710
    11  O   -0.500993
    12  C   -0.196380
    13  C   -0.335221
    14  C   -0.337833
    15  O   -0.645613
    16  Si   0.904323
    17  C   -0.532437
    18  C   -0.556934
    19  C   -0.549170
    20  H    0.123380
    21  H    0.123480
    22  H    0.120244
    23  H    0.120614
    24  H    0.119196
    25  H    0.121015
    26  H    0.118596
    27  H    0.121923
    28  H    0.120397
    29  H    0.112054
    30  H    0.108481
    31  H    0.131164
    32  H    0.113248
    33  H    0.114087
    34  H    0.114488
    35  H    0.115766
    36  H    0.113303
    37  C   -0.239261
    38  C   -0.024691
    39  C   -0.264960
    40  H    0.107557
    41  H    0.122113
    42  H    0.106395
    43  H    0.108101
    44  H    0.103815
 Sum of Mulliken charges =   0.00000
 Mulliken charges with hydrogens summed into heavy atoms:
               1
     1  C    0.285925
     2  C    0.015707
     3  C    0.312981
     4  C    0.002458
     5  C    0.593392
    10  O   -0.490710
    11  O   -0.500993
    12  C    0.030954
    13  C    0.008335
    14  C    0.013866
    15  O   -0.645613
    16  Si   0.904323
    17  C   -0.171520
    18  C   -0.189830
    19  C   -0.188346
    37  C   -0.009592
    38  C    0.081704
    39  C   -0.053044
 Electronic spatial extent (au):  <R**2>=           5531.7001
 Charge=              0.0000 electrons
 Dipole moment (field-independent basis, Debye):
    X=              2.3220    Y=              4.2360    Z=              1.5515  Tot=              5.0737
 Quadrupole moment (field-independent basis, Debye-Ang):
   XX=           -113.7559   YY=           -130.6513   ZZ=           -119.4735
   XY=            -12.5524   XZ=             -5.7028   YZ=             -7.8671
 Traceless Quadrupole moment (field-independent basis, Debye-Ang):
   XX=              7.5377   YY=             -9.3578   ZZ=              1.8201
   XY=            -12.5524   XZ=             -5.7028   YZ=             -7.8671
 Octapole moment (field-independent basis, Debye-Ang**2):
  XXX=             11.5313  YYY=             43.3123  ZZZ=              0.4939  XYY=             25.8122
  XXY=             20.7068  XXZ=             12.8776  XZZ=             -4.9597  YZZ=              6.1704
  YYZ=             29.6105  XYZ=             18.5202
 Hexadecapole moment (field-independent basis, Debye-Ang**3):
 XXXX=          -4268.7745 YYYY=          -1901.2175 ZZZZ=          -1196.0614 XXXY=            -48.3531
 XXXZ=            -25.6902 YYYX=            -77.2596 YYYZ=            -83.1458 ZZZX=              2.0219
 ZZZY=             11.3689 XXYY=          -1106.0304 XXZZ=           -941.6710 YYZZ=           -539.0037
 XXYZ=            -20.0112 YYXZ=            -25.8459 ZZXY=            -22.9406
 N-N= 1.625990738066D+03 E-N=-5.742271177608D+03  KE= 1.055907736337D+03
 1\1\GINC-CPU-E-1146\FOpt\RB3LYP\6-31G(d,p)\C14H26O3Si1\KE291\06-Feb-20
 19\0\\# b3lyp/6-31g(d,p) Opt=(maxcycles=25) scrf=(solvent=chloroform)\
 \P_ng_4ginp004\\0,1\C,0.072129045,2.0477763952,-0.4875573732\C,-0.1597
 305959,1.3411901577,0.8550239423\C,-1.1773932407,2.1661667484,1.690956
 8366\C,-0.576797783,3.5647572764,1.9183141504\C,0.0878404368,4.2141328
 649,0.7139130027\H,-0.8749710691,2.0859182611,-1.0369975909\H,-0.64413
 25412,0.3860806626,0.6238577223\H,-1.3175826566,4.2747585025,2.2928777
 02\H,0.2004094307,3.4926465589,2.6873056327\O,0.4939951533,3.439929428
 4,-0.3142904698\O,0.3288130704,5.4032653635,0.679384449\C,1.1204929809
 ,1.4236477552,-1.4088492091\C,0.7550795697,0.0113714455,-1.8772675322\
 C,1.1438001151,1.0492922861,1.6161772604\O,-1.3366706428,1.4851681478,
 2.9332453458\Si,-2.2430949955,1.7047534623,4.3356495078\C,-1.287801747
 8,0.7455975604,5.6414549287\C,-2.3965668589,3.518055079,4.8394178372\C
 ,-3.9692237927,0.9647863613,4.1485930668\H,-2.9202471478,3.579668179,5
 .8008283179\H,-1.4190755945,3.9942807483,4.9652809309\H,-2.9718666826,
 4.1093683376,4.1193139471\H,-4.5030959302,1.0237434578,5.1044789764\H,
 -4.5749227134,1.4876266612,3.4016679299\H,-3.9213592625,-0.0914157695,
 3.8626480667\H,-1.8114937661,0.7661536111,6.603673071\H,-1.1671215206,
 -0.3028126608,5.3491721839\H,-0.2890200844,1.1678609066,5.793446886\H,
 1.7324942652,0.2879740095,1.0976380398\H,1.7750907427,1.9381527215,1.7
 146647218\H,0.917534091,0.6772947533,2.6161080082\H,2.0948714717,1.422
 2356456,-0.909228095\H,1.218570552,2.0850055846,-2.276784427\H,1.48762
 4933,-0.3486299977,-2.6053223746\H,0.7344536098,-0.704478813,-1.049567
 6701\H,-0.2290182989,-0.0072866729,-2.3581542879\C,-2.5541431543,2.300
 3995955,0.9812735494\C,-3.1758034429,0.9998351084,0.5516854443\C,-3.66
 69532782,0.7577762561,-0.6651750213\H,-2.4731670206,2.9735518,0.120657
 5841\H,-3.2202733676,2.8104778343,1.6907853478\H,-3.2278742674,0.22105
 19209,1.3104524847\H,-4.1222598136,-0.1956961304,-0.9162975037\H,-3.64
 20291978,1.5078425957,-1.45277032\\Version=ES64L-G09RevD.01\State=1-A\
 HF=-1064.4233151\RMSD=5.577e-09\RMSF=6.844e-06\Dipole=-0.9102897,-1.70
 79676,0.4887573\Quadrupole=2.2818141,-9.9923868,7.7105727,-7.0255901,0
 .3545532,6.9543599\PG=C01 [X(C14H26O3Si1)]\\@


 A great many people think they are thinking when they
 are merely rearranging their prejudices.
                               -- William James
 Job cpu time:       0 days  1 hours 59 minutes  3.8 seconds.
 File lengths (MBytes):  RWF=    360 Int=      0 D2E=      0 Chk=     17 Scr=      1
 Normal termination of Gaussian 09 at Wed Feb  6 11:10:28 2019.
