 Entering Gaussian System, Link 0=/usr/local/Cluster-Apps/gaussian/g09/g09
 Initial command:
 /usr/local/Cluster-Apps/gaussian/g09/l1.exe "/home/ke291/rds/hpc-work/06Feb0927IP1/Gau-382656.inp" -scrdir="/home/ke291/rds/hpc-work/06Feb0927IP1/"
 Entering Link 1 = /usr/local/Cluster-Apps/gaussian/g09/l1.exe PID=    382662.
  
 Copyright (c) 1988,1990,1992,1993,1995,1998,2003,2009,2013,
            Gaussian, Inc.  All Rights Reserved.
  
 This is part of the Gaussian(R) 09 program.  It is based on
 the Gaussian(R) 03 system (copyright 2003, Gaussian, Inc.),
 the Gaussian(R) 98 system (copyright 1998, Gaussian, Inc.),
 the Gaussian(R) 94 system (copyright 1995, Gaussian, Inc.),
 the Gaussian 92(TM) system (copyright 1992, Gaussian, Inc.),
 the Gaussian 90(TM) system (copyright 1990, Gaussian, Inc.),
 the Gaussian 88(TM) system (copyright 1988, Gaussian, Inc.),
 the Gaussian 86(TM) system (copyright 1986, Carnegie Mellon
 University), and the Gaussian 82(TM) system (copyright 1983,
 Carnegie Mellon University). Gaussian is a federally registered
 trademark of Gaussian, Inc.
  
 This software contains proprietary and confidential information,
 including trade secrets, belonging to Gaussian, Inc.
  
 This software is provided under written license and may be
 used, copied, transmitted, or stored only in accord with that
 written license.
  
 The following legend is applicable only to US Government
 contracts under FAR:
  
                    RESTRICTED RIGHTS LEGEND
  
 Use, reproduction and disclosure by the US Government is
 subject to restrictions as set forth in subparagraphs (a)
 and (c) of the Commercial Computer Software - Restricted
 Rights clause in FAR 52.227-19.
  
 Gaussian, Inc.
 340 Quinnipiac St., Bldg. 40, Wallingford CT 06492
  
  
 ---------------------------------------------------------------
 Warning -- This program may not be used in any manner that
 competes with the business of Gaussian, Inc. or will provide
 assistance to any competitor of Gaussian, Inc.  The licensee
 of this program is prohibited from giving any competitor of
 Gaussian, Inc. access to this program.  By using this program,
 the user acknowledges that Gaussian, Inc. is engaged in the
 business of creating and licensing software in the field of
 computational chemistry and represents and warrants to the
 licensee that it is not a competitor of Gaussian, Inc. and that
 it will not use this program in any manner prohibited above.
 ---------------------------------------------------------------
  

 Cite this work as:
 Gaussian 09, Revision D.01,
 M. J. Frisch, G. W. Trucks, H. B. Schlegel, G. E. Scuseria, 
 M. A. Robb, J. R. Cheeseman, G. Scalmani, V. Barone, B. Mennucci, 
 G. A. Petersson, H. Nakatsuji, M. Caricato, X. Li, H. P. Hratchian, 
 A. F. Izmaylov, J. Bloino, G. Zheng, J. L. Sonnenberg, M. Hada, 
 M. Ehara, K. Toyota, R. Fukuda, J. Hasegawa, M. Ishida, T. Nakajima, 
 Y. Honda, O. Kitao, H. Nakai, T. Vreven, J. A. Montgomery, Jr., 
 J. E. Peralta, F. Ogliaro, M. Bearpark, J. J. Heyd, E. Brothers, 
 K. N. Kudin, V. N. Staroverov, T. Keith, R. Kobayashi, J. Normand, 
 K. Raghavachari, A. Rendell, J. C. Burant, S. S. Iyengar, J. Tomasi, 
 M. Cossi, N. Rega, J. M. Millam, M. Klene, J. E. Knox, J. B. Cross, 
 V. Bakken, C. Adamo, J. Jaramillo, R. Gomperts, R. E. Stratmann, 
 O. Yazyev, A. J. Austin, R. Cammi, C. Pomelli, J. W. Ochterski, 
 R. L. Martin, K. Morokuma, V. G. Zakrzewski, G. A. Voth, 
 P. Salvador, J. J. Dannenberg, S. Dapprich, A. D. Daniels, 
 O. Farkas, J. B. Foresman, J. V. Ortiz, J. Cioslowski, 
 and D. J. Fox, Gaussian, Inc., Wallingford CT, 2013.
 
 ******************************************
 Gaussian 09:  ES64L-G09RevD.01 24-Apr-2013
                 6-Feb-2019 
 ******************************************
 %nprocshared=2
 Will use up to    2 processors via shared memory.
 %mem=6000MB
 %chk=/home/ke291/rds/hpc-work/06Feb0927IP1/P_ng_4ginp001.chk
 ---------------------------------------------------------------
 # b3lyp/6-31g(d,p) Opt=(maxcycles=25) scrf=(solvent=chloroform)
 ---------------------------------------------------------------
 1/6=25,14=-1,18=20,19=15,26=3,38=1/1,3;
 2/9=110,12=2,17=6,18=5,40=1/2;
 3/5=1,6=6,7=101,11=2,16=1,25=1,30=1,70=2201,71=1,72=7,74=-5/1,2,3;
 4//1;
 5/5=2,38=5,53=7/2;
 6/7=2,8=2,9=2,10=2,28=1/1;
 7//1,2,3,16;
 1/6=25,14=-1,18=20,19=15,26=3/3(2);
 2/9=110/2;
 99//99;
 2/9=110/2;
 3/5=1,6=6,7=101,11=2,16=1,25=1,30=1,70=2205,71=1,72=7,74=-5/1,2,3;
 4/5=5,16=3,69=1/1;
 5/5=2,38=5,53=7/2;
 7//1,2,3,16;
 1/6=25,14=-1,18=20,19=15,26=3/3(-5);
 2/9=110/2;
 6/7=2,8=2,9=2,10=2,19=2,28=1/1;
 99/9=1/99;
 -------------
 P_ng_4ginp001
 -------------
 Symbolic Z-matrix:
 Charge =  0 Multiplicity = 1
 C                     0.10973   1.83066  -0.38734 
 C                    -0.1707    1.17163   0.97015 
 C                    -1.27194   1.9899    1.72074 
 C                    -0.75221   3.42461   1.87053 
 C                    -0.22299   4.03511   0.60116 
 H                    -0.78744   1.78122  -1.01398 
 H                    -0.53654   0.15034   0.80073 
 H                    -1.55482   4.07676   2.23551 
 H                     0.05452   3.4803    2.60975 
 O                     0.44134   3.22699  -0.25181 
 O                    -0.2866    5.24505   0.40412 
 C                     1.23845   1.15172  -1.18018 
 C                     1.3312    1.67449  -2.60951 
 C                     1.11345   1.00619   1.81075 
 O                    -1.45606   1.30273   2.97934 
 Si                   -2.11936   1.8732    4.40573 
 C                    -0.91313   2.98376   5.32857 
 C                    -3.73204   2.80147   4.18379 
 C                    -2.47996   0.39364   5.53002 
 H                    -4.14376   3.08705   5.15676 
 H                    -3.58714   3.71571   3.60177 
 H                    -4.47342   2.17815   3.67542 
 H                    -2.89975   0.73031   6.48229 
 H                    -3.19663  -0.28004   5.05149 
 H                    -1.56012  -0.16287   5.73151 
 H                    -1.27718   3.18372   6.34084 
 H                     0.06738   2.50475   5.4047 
 H                    -0.79172   3.94339   4.81907 
 H                     1.7942    0.2895    1.33931 
 H                     1.65587   1.94924   1.92713 
 H                     0.89722   0.61221   2.8084 
 H                     1.07476   0.06851  -1.21046 
 H                     2.20619   1.33727  -0.70019 
 H                     2.13239   1.15813  -3.14777 
 H                     0.39517   1.50353  -3.15069 
 H                     1.54962   2.74673  -2.62859 
 C                    -2.62969   2.0018    0.93659 
 C                    -3.18375   0.63604   0.62178 
 C                    -3.50237   0.21594  -0.60908 
 H                    -2.53806   2.58878   0.01505 
 H                    -3.3918    2.52009   1.5263 
 H                    -3.33637  -0.03652   1.46467 
 H                    -3.90417  -0.78097  -0.7664 
 H                    -3.38137   0.84841  -1.48308 
 

 GradGradGradGradGradGradGradGradGradGradGradGradGradGradGradGradGradGrad
 Berny optimization.
 Initialization pass.
                           ----------------------------
                           !    Initial Parameters    !
                           ! (Angstroms and Degrees)  !
 --------------------------                            --------------------------
 ! Name  Definition              Value          Derivative Info.                !
 --------------------------------------------------------------------------------
 ! R1    R(1,2)                  1.5348         estimate D2E/DX2                !
 ! R2    R(1,6)                  1.0955         estimate D2E/DX2                !
 ! R3    R(1,10)                 1.4416         estimate D2E/DX2                !
 ! R4    R(1,12)                 1.5374         estimate D2E/DX2                !
 ! R5    R(2,3)                  1.5639         estimate D2E/DX2                !
 ! R6    R(2,7)                  1.098          estimate D2E/DX2                !
 ! R7    R(2,14)                 1.5437         estimate D2E/DX2                !
 ! R8    R(3,4)                  1.5333         estimate D2E/DX2                !
 ! R9    R(3,15)                 1.4457         estimate D2E/DX2                !
 ! R10   R(3,37)                 1.568          estimate D2E/DX2                !
 ! R11   R(4,5)                  1.5047         estimate D2E/DX2                !
 ! R12   R(4,8)                  1.0967         estimate D2E/DX2                !
 ! R13   R(4,9)                  1.0956         estimate D2E/DX2                !
 ! R14   R(5,10)                 1.3498         estimate D2E/DX2                !
 ! R15   R(5,11)                 1.2275         estimate D2E/DX2                !
 ! R16   R(12,13)                1.5248         estimate D2E/DX2                !
 ! R17   R(12,32)                1.0959         estimate D2E/DX2                !
 ! R18   R(12,33)                1.0961         estimate D2E/DX2                !
 ! R19   R(13,34)                1.0947         estimate D2E/DX2                !
 ! R20   R(13,35)                1.0946         estimate D2E/DX2                !
 ! R21   R(13,36)                1.0944         estimate D2E/DX2                !
 ! R22   R(14,29)                1.0951         estimate D2E/DX2                !
 ! R23   R(14,30)                1.0941         estimate D2E/DX2                !
 ! R24   R(14,31)                1.0942         estimate D2E/DX2                !
 ! R25   R(15,16)                1.6733         estimate D2E/DX2                !
 ! R26   R(16,17)                1.8815         estimate D2E/DX2                !
 ! R27   R(16,18)                1.8739         estimate D2E/DX2                !
 ! R28   R(16,19)                1.8929         estimate D2E/DX2                !
 ! R29   R(17,26)                1.0942         estimate D2E/DX2                !
 ! R30   R(17,27)                1.0939         estimate D2E/DX2                !
 ! R31   R(17,28)                1.0933         estimate D2E/DX2                !
 ! R32   R(18,20)                1.0944         estimate D2E/DX2                !
 ! R33   R(18,21)                1.0934         estimate D2E/DX2                !
 ! R34   R(18,22)                1.0939         estimate D2E/DX2                !
 ! R35   R(19,23)                1.0938         estimate D2E/DX2                !
 ! R36   R(19,24)                1.0938         estimate D2E/DX2                !
 ! R37   R(19,25)                1.0938         estimate D2E/DX2                !
 ! R38   R(37,38)                1.5071         estimate D2E/DX2                !
 ! R39   R(37,40)                1.0964         estimate D2E/DX2                !
 ! R40   R(37,41)                1.0942         estimate D2E/DX2                !
 ! R41   R(38,39)                1.339          estimate D2E/DX2                !
 ! R42   R(38,42)                1.0891         estimate D2E/DX2                !
 ! R43   R(39,43)                1.0863         estimate D2E/DX2                !
 ! R44   R(39,44)                1.0856         estimate D2E/DX2                !
 ! A1    A(2,1,6)              109.689          estimate D2E/DX2                !
 ! A2    A(2,1,10)             112.0112         estimate D2E/DX2                !
 ! A3    A(2,1,12)             113.618          estimate D2E/DX2                !
 ! A4    A(6,1,10)             106.6121         estimate D2E/DX2                !
 ! A5    A(6,1,12)             106.6399         estimate D2E/DX2                !
 ! A6    A(10,1,12)            107.9003         estimate D2E/DX2                !
 ! A7    A(1,2,3)              109.1774         estimate D2E/DX2                !
 ! A8    A(1,2,7)              108.8929         estimate D2E/DX2                !
 ! A9    A(1,2,14)             112.0642         estimate D2E/DX2                !
 ! A10   A(3,2,7)              109.0331         estimate D2E/DX2                !
 ! A11   A(3,2,14)             112.3644         estimate D2E/DX2                !
 ! A12   A(7,2,14)             105.1592         estimate D2E/DX2                !
 ! A13   A(2,3,4)              107.3249         estimate D2E/DX2                !
 ! A14   A(2,3,15)             104.9995         estimate D2E/DX2                !
 ! A15   A(2,3,37)             111.9445         estimate D2E/DX2                !
 ! A16   A(4,3,15)             113.7581         estimate D2E/DX2                !
 ! A17   A(4,3,37)             109.5893         estimate D2E/DX2                !
 ! A18   A(15,3,37)            109.1899         estimate D2E/DX2                !
 ! A19   A(3,4,5)              114.6114         estimate D2E/DX2                !
 ! A20   A(3,4,8)              109.93           estimate D2E/DX2                !
 ! A21   A(3,4,9)              111.2887         estimate D2E/DX2                !
 ! A22   A(5,4,8)              107.271          estimate D2E/DX2                !
 ! A23   A(5,4,9)              106.8332         estimate D2E/DX2                !
 ! A24   A(8,4,9)              106.5054         estimate D2E/DX2                !
 ! A25   A(4,5,10)             117.5997         estimate D2E/DX2                !
 ! A26   A(4,5,11)             121.1386         estimate D2E/DX2                !
 ! A27   A(10,5,11)            120.9431         estimate D2E/DX2                !
 ! A28   A(1,10,5)             121.7432         estimate D2E/DX2                !
 ! A29   A(1,12,13)            112.1284         estimate D2E/DX2                !
 ! A30   A(1,12,32)            109.9427         estimate D2E/DX2                !
 ! A31   A(1,12,33)            110.3422         estimate D2E/DX2                !
 ! A32   A(13,12,32)           108.7871         estimate D2E/DX2                !
 ! A33   A(13,12,33)           107.3838         estimate D2E/DX2                !
 ! A34   A(32,12,33)           108.1381         estimate D2E/DX2                !
 ! A35   A(12,13,34)           110.1051         estimate D2E/DX2                !
 ! A36   A(12,13,35)           110.9709         estimate D2E/DX2                !
 ! A37   A(12,13,36)           111.3696         estimate D2E/DX2                !
 ! A38   A(34,13,35)           108.0042         estimate D2E/DX2                !
 ! A39   A(34,13,36)           107.9085         estimate D2E/DX2                !
 ! A40   A(35,13,36)           108.3637         estimate D2E/DX2                !
 ! A41   A(2,14,29)            110.6597         estimate D2E/DX2                !
 ! A42   A(2,14,30)            112.2064         estimate D2E/DX2                !
 ! A43   A(2,14,31)            111.7584         estimate D2E/DX2                !
 ! A44   A(29,14,30)           107.5587         estimate D2E/DX2                !
 ! A45   A(29,14,31)           106.2428         estimate D2E/DX2                !
 ! A46   A(30,14,31)           108.1395         estimate D2E/DX2                !
 ! A47   A(3,15,16)            129.0893         estimate D2E/DX2                !
 ! A48   A(15,16,17)           111.42           estimate D2E/DX2                !
 ! A49   A(15,16,18)           114.1451         estimate D2E/DX2                !
 ! A50   A(15,16,19)           108.3812         estimate D2E/DX2                !
 ! A51   A(17,16,18)           108.5072         estimate D2E/DX2                !
 ! A52   A(17,16,19)           106.9883         estimate D2E/DX2                !
 ! A53   A(18,16,19)           107.073          estimate D2E/DX2                !
 ! A54   A(16,17,26)           110.385          estimate D2E/DX2                !
 ! A55   A(16,17,27)           110.5065         estimate D2E/DX2                !
 ! A56   A(16,17,28)           111.1444         estimate D2E/DX2                !
 ! A57   A(26,17,27)           108.293          estimate D2E/DX2                !
 ! A58   A(26,17,28)           107.92           estimate D2E/DX2                !
 ! A59   A(27,17,28)           108.4972         estimate D2E/DX2                !
 ! A60   A(16,18,20)           110.3483         estimate D2E/DX2                !
 ! A61   A(16,18,21)           111.2959         estimate D2E/DX2                !
 ! A62   A(16,18,22)           110.8565         estimate D2E/DX2                !
 ! A63   A(20,18,21)           107.7521         estimate D2E/DX2                !
 ! A64   A(20,18,22)           107.8711         estimate D2E/DX2                !
 ! A65   A(21,18,22)           108.5945         estimate D2E/DX2                !
 ! A66   A(16,19,23)           110.4641         estimate D2E/DX2                !
 ! A67   A(16,19,24)           110.2657         estimate D2E/DX2                !
 ! A68   A(16,19,25)           110.297          estimate D2E/DX2                !
 ! A69   A(23,19,24)           108.602          estimate D2E/DX2                !
 ! A70   A(23,19,25)           108.601          estimate D2E/DX2                !
 ! A71   A(24,19,25)           108.5559         estimate D2E/DX2                !
 ! A72   A(3,37,38)            114.578          estimate D2E/DX2                !
 ! A73   A(3,37,40)            110.6112         estimate D2E/DX2                !
 ! A74   A(3,37,41)            109.7066         estimate D2E/DX2                !
 ! A75   A(38,37,40)           109.8951         estimate D2E/DX2                !
 ! A76   A(38,37,41)           106.6051         estimate D2E/DX2                !
 ! A77   A(40,37,41)           104.9281         estimate D2E/DX2                !
 ! A78   A(37,38,39)           124.3186         estimate D2E/DX2                !
 ! A79   A(37,38,42)           116.7102         estimate D2E/DX2                !
 ! A80   A(39,38,42)           118.969          estimate D2E/DX2                !
 ! A81   A(38,39,43)           120.6006         estimate D2E/DX2                !
 ! A82   A(38,39,44)           122.056          estimate D2E/DX2                !
 ! A83   A(43,39,44)           117.3414         estimate D2E/DX2                !
 ! D1    D(6,1,2,3)            -64.0441         estimate D2E/DX2                !
 ! D2    D(6,1,2,7)             54.9005         estimate D2E/DX2                !
 ! D3    D(6,1,2,14)           170.8102         estimate D2E/DX2                !
 ! D4    D(10,1,2,3)            54.1313         estimate D2E/DX2                !
 ! D5    D(10,1,2,7)           173.0759         estimate D2E/DX2                !
 ! D6    D(10,1,2,14)          -71.0144         estimate D2E/DX2                !
 ! D7    D(12,1,2,3)           176.7198         estimate D2E/DX2                !
 ! D8    D(12,1,2,7)           -64.3356         estimate D2E/DX2                !
 ! D9    D(12,1,2,14)           51.574          estimate D2E/DX2                !
 ! D10   D(2,1,10,5)           -41.6703         estimate D2E/DX2                !
 ! D11   D(6,1,10,5)            78.3189         estimate D2E/DX2                !
 ! D12   D(12,1,10,5)         -167.4515         estimate D2E/DX2                !
 ! D13   D(2,1,12,13)          170.2591         estimate D2E/DX2                !
 ! D14   D(2,1,12,32)           49.1024         estimate D2E/DX2                !
 ! D15   D(2,1,12,33)          -70.0882         estimate D2E/DX2                !
 ! D16   D(6,1,12,13)           49.2968         estimate D2E/DX2                !
 ! D17   D(6,1,12,32)          -71.8599         estimate D2E/DX2                !
 ! D18   D(6,1,12,33)          168.9495         estimate D2E/DX2                !
 ! D19   D(10,1,12,13)         -64.9143         estimate D2E/DX2                !
 ! D20   D(10,1,12,32)         173.929          estimate D2E/DX2                !
 ! D21   D(10,1,12,33)          54.7384         estimate D2E/DX2                !
 ! D22   D(1,2,3,4)            -58.2            estimate D2E/DX2                !
 ! D23   D(1,2,3,15)          -179.5652         estimate D2E/DX2                !
 ! D24   D(1,2,3,37)            62.0866         estimate D2E/DX2                !
 ! D25   D(7,2,3,4)           -177.0573         estimate D2E/DX2                !
 ! D26   D(7,2,3,15)            61.5775         estimate D2E/DX2                !
 ! D27   D(7,2,3,37)           -56.7708         estimate D2E/DX2                !
 ! D28   D(14,2,3,4)            66.771          estimate D2E/DX2                !
 ! D29   D(14,2,3,15)          -54.5942         estimate D2E/DX2                !
 ! D30   D(14,2,3,37)         -172.9424         estimate D2E/DX2                !
 ! D31   D(1,2,14,29)          -66.4947         estimate D2E/DX2                !
 ! D32   D(1,2,14,30)           53.6492         estimate D2E/DX2                !
 ! D33   D(1,2,14,31)          175.3177         estimate D2E/DX2                !
 ! D34   D(3,2,14,29)          170.1347         estimate D2E/DX2                !
 ! D35   D(3,2,14,30)          -69.7214         estimate D2E/DX2                !
 ! D36   D(3,2,14,31)           51.9471         estimate D2E/DX2                !
 ! D37   D(7,2,14,29)           51.6565         estimate D2E/DX2                !
 ! D38   D(7,2,14,30)          171.8004         estimate D2E/DX2                !
 ! D39   D(7,2,14,31)          -66.5311         estimate D2E/DX2                !
 ! D40   D(2,3,4,5)             49.4449         estimate D2E/DX2                !
 ! D41   D(2,3,4,8)            170.3392         estimate D2E/DX2                !
 ! D42   D(2,3,4,9)            -71.9103         estimate D2E/DX2                !
 ! D43   D(15,3,4,5)           165.1364         estimate D2E/DX2                !
 ! D44   D(15,3,4,8)           -73.9693         estimate D2E/DX2                !
 ! D45   D(15,3,4,9)            43.7811         estimate D2E/DX2                !
 ! D46   D(37,3,4,5)           -72.3264         estimate D2E/DX2                !
 ! D47   D(37,3,4,8)            48.5679         estimate D2E/DX2                !
 ! D48   D(37,3,4,9)           166.3183         estimate D2E/DX2                !
 ! D49   D(2,3,15,16)          159.7676         estimate D2E/DX2                !
 ! D50   D(4,3,15,16)           42.7168         estimate D2E/DX2                !
 ! D51   D(37,3,15,16)         -80.0399         estimate D2E/DX2                !
 ! D52   D(2,3,37,38)           56.0578         estimate D2E/DX2                !
 ! D53   D(2,3,37,40)          -68.8187         estimate D2E/DX2                !
 ! D54   D(2,3,37,41)          175.9004         estimate D2E/DX2                !
 ! D55   D(4,3,37,38)          175.015          estimate D2E/DX2                !
 ! D56   D(4,3,37,40)           50.1385         estimate D2E/DX2                !
 ! D57   D(4,3,37,41)          -65.1424         estimate D2E/DX2                !
 ! D58   D(15,3,37,38)         -59.7701         estimate D2E/DX2                !
 ! D59   D(15,3,37,40)         175.3534         estimate D2E/DX2                !
 ! D60   D(15,3,37,41)          60.0725         estimate D2E/DX2                !
 ! D61   D(3,4,5,10)           -36.4535         estimate D2E/DX2                !
 ! D62   D(3,4,5,11)           149.9695         estimate D2E/DX2                !
 ! D63   D(8,4,5,10)          -158.8014         estimate D2E/DX2                !
 ! D64   D(8,4,5,11)            27.6216         estimate D2E/DX2                !
 ! D65   D(9,4,5,10)            87.3133         estimate D2E/DX2                !
 ! D66   D(9,4,5,11)           -86.2637         estimate D2E/DX2                !
 ! D67   D(4,5,10,1)            32.1119         estimate D2E/DX2                !
 ! D68   D(11,5,10,1)         -154.2979         estimate D2E/DX2                !
 ! D69   D(1,12,13,34)        -179.0503         estimate D2E/DX2                !
 ! D70   D(1,12,13,35)         -59.526          estimate D2E/DX2                !
 ! D71   D(1,12,13,36)          61.2895         estimate D2E/DX2                !
 ! D72   D(32,12,13,34)        -57.2305         estimate D2E/DX2                !
 ! D73   D(32,12,13,35)         62.2937         estimate D2E/DX2                !
 ! D74   D(32,12,13,36)       -176.8907         estimate D2E/DX2                !
 ! D75   D(33,12,13,34)         59.5816         estimate D2E/DX2                !
 ! D76   D(33,12,13,35)        179.1059         estimate D2E/DX2                !
 ! D77   D(33,12,13,36)        -60.0786         estimate D2E/DX2                !
 ! D78   D(3,15,16,17)         -76.7608         estimate D2E/DX2                !
 ! D79   D(3,15,16,18)          46.5734         estimate D2E/DX2                !
 ! D80   D(3,15,16,19)         165.782          estimate D2E/DX2                !
 ! D81   D(15,16,17,26)       -168.6666         estimate D2E/DX2                !
 ! D82   D(15,16,17,27)        -48.899          estimate D2E/DX2                !
 ! D83   D(15,16,17,28)         71.6202         estimate D2E/DX2                !
 ! D84   D(18,16,17,26)         64.8437         estimate D2E/DX2                !
 ! D85   D(18,16,17,27)       -175.3887         estimate D2E/DX2                !
 ! D86   D(18,16,17,28)        -54.8695         estimate D2E/DX2                !
 ! D87   D(19,16,17,26)        -50.3698         estimate D2E/DX2                !
 ! D88   D(19,16,17,27)         69.3979         estimate D2E/DX2                !
 ! D89   D(19,16,17,28)       -170.083          estimate D2E/DX2                !
 ! D90   D(15,16,18,20)        176.2047         estimate D2E/DX2                !
 ! D91   D(15,16,18,21)        -64.2184         estimate D2E/DX2                !
 ! D92   D(15,16,18,22)         56.7621         estimate D2E/DX2                !
 ! D93   D(17,16,18,20)        -58.899          estimate D2E/DX2                !
 ! D94   D(17,16,18,21)         60.6778         estimate D2E/DX2                !
 ! D95   D(17,16,18,22)       -178.3416         estimate D2E/DX2                !
 ! D96   D(19,16,18,20)         56.2592         estimate D2E/DX2                !
 ! D97   D(19,16,18,21)        175.8361         estimate D2E/DX2                !
 ! D98   D(19,16,18,22)        -63.1834         estimate D2E/DX2                !
 ! D99   D(15,16,19,23)        179.0109         estimate D2E/DX2                !
 ! D100  D(15,16,19,24)        -60.9406         estimate D2E/DX2                !
 ! D101  D(15,16,19,25)         58.9435         estimate D2E/DX2                !
 ! D102  D(17,16,19,23)         58.7518         estimate D2E/DX2                !
 ! D103  D(17,16,19,24)        178.8002         estimate D2E/DX2                !
 ! D104  D(17,16,19,25)        -61.3156         estimate D2E/DX2                !
 ! D105  D(18,16,19,23)        -57.4182         estimate D2E/DX2                !
 ! D106  D(18,16,19,24)         62.6302         estimate D2E/DX2                !
 ! D107  D(18,16,19,25)       -177.4857         estimate D2E/DX2                !
 ! D108  D(3,37,38,39)        -124.8198         estimate D2E/DX2                !
 ! D109  D(3,37,38,42)          55.7373         estimate D2E/DX2                !
 ! D110  D(40,37,38,39)          0.4332         estimate D2E/DX2                !
 ! D111  D(40,37,38,42)       -179.0097         estimate D2E/DX2                !
 ! D112  D(41,37,38,39)        113.6244         estimate D2E/DX2                !
 ! D113  D(41,37,38,42)        -65.8185         estimate D2E/DX2                !
 ! D114  D(37,38,39,43)       -179.6101         estimate D2E/DX2                !
 ! D115  D(37,38,39,44)         -0.1344         estimate D2E/DX2                !
 ! D116  D(42,38,39,43)         -0.179          estimate D2E/DX2                !
 ! D117  D(42,38,39,44)        179.2967         estimate D2E/DX2                !
 --------------------------------------------------------------------------------
 Trust Radius=3.00D-01 FncErr=1.00D-07 GrdErr=1.00D-06
 Number of steps in this run=     25 maximum allowed number of steps=    264.
 GradGradGradGradGradGradGradGradGradGradGradGradGradGradGradGradGradGrad

                          Input orientation:                          
 ---------------------------------------------------------------------
 Center     Atomic      Atomic             Coordinates (Angstroms)
 Number     Number       Type             X           Y           Z
 ---------------------------------------------------------------------
      1          6           0        0.109734    1.830658   -0.387337
      2          6           0       -0.170697    1.171629    0.970145
      3          6           0       -1.271943    1.989903    1.720743
      4          6           0       -0.752212    3.424606    1.870525
      5          6           0       -0.222985    4.035108    0.601162
      6          1           0       -0.787442    1.781219   -1.013977
      7          1           0       -0.536539    0.150337    0.800731
      8          1           0       -1.554819    4.076762    2.235510
      9          1           0        0.054524    3.480298    2.609753
     10          8           0        0.441340    3.226993   -0.251806
     11          8           0       -0.286601    5.245054    0.404117
     12          6           0        1.238452    1.151724   -1.180177
     13          6           0        1.331199    1.674487   -2.609508
     14          6           0        1.113446    1.006185    1.810751
     15          8           0       -1.456059    1.302732    2.979339
     16         14           0       -2.119360    1.873197    4.405735
     17          6           0       -0.913125    2.983759    5.328574
     18          6           0       -3.732035    2.801473    4.183794
     19          6           0       -2.479961    0.393637    5.530016
     20          1           0       -4.143761    3.087054    5.156755
     21          1           0       -3.587141    3.715705    3.601769
     22          1           0       -4.473423    2.178151    3.675422
     23          1           0       -2.899748    0.730305    6.482286
     24          1           0       -3.196630   -0.280037    5.051486
     25          1           0       -1.560120   -0.162869    5.731507
     26          1           0       -1.277183    3.183718    6.340839
     27          1           0        0.067377    2.504754    5.404698
     28          1           0       -0.791722    3.943389    4.819074
     29          1           0        1.794197    0.289502    1.339311
     30          1           0        1.655871    1.949243    1.927126
     31          1           0        0.897221    0.612211    2.808397
     32          1           0        1.074755    0.068513   -1.210463
     33          1           0        2.206188    1.337275   -0.700188
     34          1           0        2.132395    1.158134   -3.147770
     35          1           0        0.395173    1.503528   -3.150694
     36          1           0        1.549619    2.746726   -2.628588
     37          6           0       -2.629691    2.001802    0.936594
     38          6           0       -3.183752    0.636040    0.621776
     39          6           0       -3.502365    0.215944   -0.609081
     40          1           0       -2.538057    2.588784    0.015054
     41          1           0       -3.391803    2.520089    1.526297
     42          1           0       -3.336371   -0.036519    1.464667
     43          1           0       -3.904166   -0.780966   -0.766398
     44          1           0       -3.381372    0.848406   -1.483076
 ---------------------------------------------------------------------
                    Distance matrix (angstroms):
                    1          2          3          4          5
     1  C    0.000000
     2  C    1.534835   0.000000
     3  C    2.525548   1.563877   0.000000
     4  C    2.895093   2.494945   1.533274   0.000000
     5  C    2.438736   2.887628   2.556685   1.504685   0.000000
     6  H    1.095466   2.165344   2.785136   3.319987   2.829718
     7  H    2.157001   1.097989   2.184318   3.451349   3.902511
     8  H    3.833412   3.457852   2.167945   1.096677   2.108699
     9  H    3.421536   2.840597   2.184292   1.095620   2.102204
    10  O    1.441556   2.468253   2.890792   2.442930   1.349790
    11  O    3.527263   4.114196   3.646973   2.383522   1.227535
    12  C    1.537384   2.570988   3.926826   4.293660   3.690917
    13  C    2.540553   3.914393   5.062303   5.241585   4.277432
    14  C    2.553191   1.543701   2.581837   3.054998   3.524703
    15  O    3.750323   2.388766   1.445741   2.495440   3.826497
    16  Si   5.286228   4.011579   2.817963   3.271583   4.769159
    17  C    5.920095   4.778171   3.759381   3.489748   4.891835
    18  C    6.049538   5.066267   3.574538   3.823461   5.164353
    19  C    6.617146   5.170145   4.303247   5.056062   6.530532
    20  H    7.099839   6.081266   4.610559   4.734538   6.084794
    21  H    5.756149   5.006981   3.446272   3.334481   4.519204
    22  H    6.134500   5.181222   3.755753   4.319573   5.564673
    23  H    7.580203   6.166537   5.187353   5.756692   7.257713
    24  H    6.705809   5.284028   4.466643   5.460593   6.875204
    25  H    6.648520   5.136336   4.561107   5.331967   6.762498
    26  H    7.001619   5.840990   4.771845   4.507475   5.897465
    27  H    5.831284   4.636719   3.953527   3.742757   5.049777
    28  H    5.690604   4.783574   3.694100   2.994101   4.257071
    29  H    2.862497   2.185232   3.526765   4.073729   4.317806
    30  H    2.785918   2.203825   2.935361   2.824670   3.104692
    31  H    3.509625   2.198310   2.790394   3.392609   4.224094
    32  H    2.171165   2.742821   4.217902   4.908529   4.549724
    33  H    2.176332   2.909817   4.287683   4.440456   3.856513
    34  H    3.487612   4.718224   5.998648   6.216200   5.280084
    35  H    2.797254   4.172731   5.171725   5.497242   4.568089
    36  H    2.817030   4.288508   5.239339   5.099016   3.902991
    37  C    3.047381   2.595566   1.567964   2.534073   3.168451
    38  C    3.645884   3.080051   2.587603   3.904851   4.507797
    39  C    3.962793   3.808845   3.681004   4.899724   5.177358
    40  H    2.783428   2.919747   2.207052   2.707511   2.791941
    41  H    4.049453   3.535983   2.193790   2.811420   3.632157
    42  H    4.334963   3.424276   2.904105   4.338431   5.197784
    43  H    4.803713   4.557082   4.559845   5.880052   6.214168
    44  H    3.788573   4.053542   4.002145   4.979551   4.947174
                    6          7          8          9         10
     6  H    0.000000
     7  H    2.452732   0.000000
     8  H    4.051858   4.302592   0.000000
     9  H    4.089889   3.835434   1.756648   0.000000
    10  O    2.044767   3.395570   3.300530   2.898674   0.000000
    11  O    3.776240   5.116240   2.515409   2.845270   2.243369
    12  C    2.127941   2.842071   5.293876   4.602989   2.409150
    13  C    2.654383   4.176267   6.129782   5.668469   2.959879
    14  C    3.491868   2.115435   4.090049   2.807304   3.104490
    15  O    4.077079   2.630563   2.873722   2.675864   4.212268
    16  Si   5.581733   4.297630   3.143928   3.245627   5.484764
    17  C    6.456768   5.354574   3.342674   2.928290   5.747554
    18  C    6.060394   5.355822   3.187859   4.156493   6.105135
    19  C    6.900279   5.118810   5.027431   4.947628   7.070458
    20  H    7.144789   6.372700   4.026887   4.926201   7.091916
    21  H    5.734602   5.464781   2.475350   3.781698   5.596208
    22  H    5.977832   5.279672   3.767800   4.830480   6.377937
    23  H    7.858767   6.180711   5.571599   5.593451   7.921131
    24  H    6.844180   5.032914   5.441228   5.538247   7.325230
    25  H    7.062440   5.045629   5.495134   5.062123   7.162195
    26  H    7.503344   6.359461   4.210503   3.972708   6.813088
    27  H    6.515643   5.206199   3.891848   2.960333   5.714675
    28  H    6.220891   5.531676   2.697204   2.410744   5.267589
    29  H    3.798427   2.396198   5.134435   3.849891   3.604265
    30  H    3.827283   3.051473   3.863932   2.318280   2.802762
    31  H    4.337651   2.509924   4.282968   2.995917   4.050896
    32  H    2.537666   2.578345   5.903850   5.222566   3.360987
    33  H    3.042593   3.344268   5.501662   4.491983   2.624265
    34  H    3.669708   4.871296   7.147982   6.546683   3.940362
    35  H    2.457895   4.279366   6.279745   6.099706   3.372835
    36  H    3.000171   4.780536   5.921654   5.496695   2.666089
    37  C    2.692075   2.797797   2.673573   3.491478   3.513491
    38  C    3.119203   2.697345   4.134746   4.746397   4.540647
    39  C    3.159879   3.284509   5.175959   5.802444   4.974623
    40  H    2.185342   3.251059   2.848027   3.774750   3.058649
    41  H    3.712360   3.780834   2.510124   3.738054   4.284198
    42  H    3.993105   2.883537   4.548319   5.017708   5.279005
    43  H    4.042283   3.829377   6.174820   6.725176   5.933967
    44  H    2.796188   3.714317   5.252281   5.956802   4.667636
                   11         12         13         14         15
    11  O    0.000000
    12  C    4.646625   0.000000
    13  C    4.944508   1.524753   0.000000
    14  C    4.680466   2.997075   4.475794   0.000000
    15  O    4.851938   4.958303   6.256374   2.838291   0.000000
    16  Si   5.544490   6.557274   7.820453   4.235173   1.673321
    17  C    5.454930   7.095736   8.352504   4.515846   2.939308
    18  C    5.668162   7.496639   8.547244   5.686218   2.979430
    19  C    7.390664   7.708955   9.078401   5.207756   2.894958
    20  H    6.490163   8.536418   9.606528   6.569930   3.892131
    21  H    4.843289   7.261360   8.181479   5.713560   3.278928
    22  H    6.134885   7.566764   8.570161   6.005298   3.217977
    23  H    8.009721   8.718694  10.072393   6.164826   3.831781
    24  H    7.784147   7.781614   9.111105   5.543779   3.135050
    25  H    7.697309   7.571759   9.017102   4.887430   3.119815
    26  H    6.361999   8.186764   9.444053   5.565829   3.856136
    27  H    5.713174   6.823686   8.155617   4.031926   3.106136
    28  H    4.630478   6.921417   8.052238   4.615933   3.286189
    29  H    5.455438   2.720312   4.210193   1.095131   3.778954
    30  H    4.117660   3.235059   4.556528   1.094133   3.348020
    31  H    5.352124   4.039336   5.538092   1.094197   2.458448
    32  H    5.590772   1.095929   2.145284   3.163615   5.048045
    33  H    4.764895   1.096053   2.127163   2.758355   5.191547
    34  H    5.930460   2.161156   1.094651   5.064413   7.102068
    35  H    5.205815   2.172055   1.094648   5.037778   6.406612
    36  H    4.337124   2.176867   1.094426   4.788263   6.524421
    37  C    4.036370   4.490644   5.326408   3.970702   2.457421
    38  C    5.448291   4.803005   5.648394   4.473989   2.997917
    39  C    6.054722   4.865920   5.430690   5.271222   4.271444
    40  H    3.503740   4.213756   4.763970   4.366076   3.407585
    41  H    4.281005   5.535042   6.334562   4.761312   2.709316
    42  H    6.190386   5.416283   6.427492   4.583435   2.761050
    43  H    7.125293   5.509358   6.069213   5.917097   4.936149
    44  H    5.698212   4.639668   4.915240   5.574727   4.881228
                   16         17         18         19         20
    16  Si   0.000000
    17  C    1.881484   0.000000
    18  C    1.873946   3.047951   0.000000
    19  C    1.892918   3.033857   3.029468   0.000000
    20  H    2.477030   3.236850   1.094408   3.187797   0.000000
    21  H    2.489092   3.266185   1.093420   3.997514   1.767204
    22  H    2.483539   4.007198   1.093905   3.255442   1.768934
    23  H    2.495450   3.218039   3.203983   1.093794   2.976385
    24  H    2.492774   3.992936   3.245805   1.093820   3.499349
    25  H    2.493188   3.237626   3.987475   1.093803   4.191365
    26  H    2.484221   1.094167   3.290175   3.144624   3.103010
    27  H    2.485681   1.093903   4.001772   3.310808   4.258431
    28  H    2.493826   1.093261   3.217607   3.994537   3.476133
    29  H    5.217947   5.522937   6.703754   5.986759   7.593321
    30  H    4.516819   4.386321   5.903251   5.701389   6.735046
    31  H    3.638865   3.905494   5.302320   4.342850   6.086964
    32  H    6.708274   7.430298   7.724785   7.627304   8.768464
    33  H    6.713272   6.984769   7.826854   7.852763   8.814043
    34  H    8.697366   9.190022   9.531208   9.857092  10.586595
    35  H    7.972399   8.706361   8.515470   9.211568   9.598082
    36  H    7.981614   8.332930   8.620175   9.398796   9.651008
    37  C    3.508834   4.816672   3.521213   4.869100   4.613018
    38  C    4.120902   5.729003   4.204484   4.964363   5.243579
    39  C    5.459631   7.044197   5.450629   6.226186   6.472984
    40  H    4.468272   5.570449   4.341568   5.936064   5.409588
    41  H    3.213836   4.562471   2.693924   4.624178   3.750615
    42  H    3.711874   5.470281   3.950241   4.176785   4.903071
    43  H    6.081207   7.763257   6.112929   6.561469   7.078328
    44  H    6.109089   7.553182   6.004236   7.085395   7.048414
                   21         22         23         24         25
    21  H    0.000000
    22  H    1.776230   0.000000
    23  H    4.205057   3.528625   0.000000
    24  H    4.268505   3.092966   1.776547   0.000000
    25  H    4.867025   4.265583   1.776522   1.776041   0.000000
    26  H    3.622350   4.281537   2.944819   4.164650   3.413354
    27  H    4.251171   4.869900   3.621284   4.305062   3.141936
    28  H    3.057456   4.240157   4.187357   4.865689   4.276017
    29  H    6.768780   6.950358   6.976935   6.246037   5.545040
    30  H    5.780484   6.377867   6.556596   6.186928   5.410816
    31  H    5.510954   5.661070   5.284731   4.752596   3.896645
    32  H    7.628425   7.687960   8.684068   7.588032   7.428799
    33  H    7.597791   8.029336   8.833285   8.055302   7.602776
    34  H    9.209264   9.551608  10.873982   9.884060   9.706764
    35  H    8.145447   8.411552  10.210224   9.130055   9.246272
    36  H    8.132808   8.737325  10.337836   9.522169   9.382292
    37  C    3.310186   3.306301   5.695993   4.739256   5.368517
    38  C    4.304349   3.655969   5.868145   4.523460   5.420681
    39  C    5.476018   4.811463   7.135489   5.690474   6.642204
    40  H    3.903211   4.160836   6.738683   5.833481   6.419174
    41  H    2.403173   2.430136   5.292190   4.506191   5.313861
    42  H    4.325422   3.329428   5.094621   3.597791   4.623522
    43  H    6.277056   5.367513   7.472363   5.882118   6.935371
    44  H    5.841181   5.437913   7.980783   6.633854   7.509317
                   26         27         28         29         30
    26  H    0.000000
    27  H    1.773469   0.000000
    28  H    1.768768   1.775015   0.000000
    29  H    6.544092   4.941318   5.669799   0.000000
    30  H    5.441286   3.863342   4.281436   1.766183   0.000000
    31  H    4.880454   3.318304   4.241709   1.751263   1.771960
    32  H    8.500487   7.121126   7.406330   2.658530   3.703958
    33  H    8.069652   6.573215   6.800114   2.329618   2.753204
    34  H   10.284061   8.900696   8.931893   4.582881   5.158246
    35  H    9.783098   8.620014   8.418957   4.857085   5.250931
    36  H    9.414478   8.172471   7.898199   4.673542   4.626208
    37  C    5.694916   5.243195   4.713973   4.760771   4.398859
    38  C    6.544719   6.077687   5.854714   5.041321   5.181736
    39  C    7.877849   7.358481   7.120836   5.644042   6.003671
    40  H    6.477600   5.986953   5.288029   5.080234   4.653393
    41  H    5.300173   5.196937   4.430416   5.648458   5.095639
    42  H    6.195743   5.793739   5.793699   5.142444   5.392550
    43  H    8.551759   8.040618   7.950115   6.168570   6.754489
    44  H    8.431782   7.879009   7.483469   5.921550   6.181839
                   31         32         33         34         35
    31  H    0.000000
    32  H    4.059355   0.000000
    33  H    3.814352   1.774902   0.000000
    34  H    6.107341   2.461511   2.455238   0.000000
    35  H    6.046260   2.507109   3.051622   1.771227   0.000000
    36  H    5.877294   3.067474   2.477168   1.769972   1.775072
    37  C    4.227732   4.697912   5.148434   6.330187   5.109208
    38  C    4.629927   4.670553   5.593816   6.537850   5.271885
    39  C    5.585028   4.618812   5.818356   6.251655   4.827885
    40  H    4.848788   4.572315   4.958398   5.819221   4.450121
    41  H    4.866159   5.783617   6.139527   7.363327   6.103182
    42  H    4.488849   5.159979   6.106871   7.253218   6.131698
    43  H    6.146008   5.070351   6.467438   6.772821   5.421079
    44  H    6.064560   4.532066   5.663279   5.767908   4.180003
                   36         37         38         39         40
    36  H    0.000000
    37  C    5.543651   0.000000
    38  C    6.117570   1.507116   0.000000
    39  C    6.000484   2.517928   1.339031   0.000000
    40  H    4.870614   1.096440   2.144351   2.636248   0.000000
    41  H    6.460038   1.094160   2.100258   3.143429   1.737083
    42  H    6.955148   2.221038   1.089079   2.095644   3.103369
    43  H    6.756932   3.502608   2.110433   1.086288   3.719158
    44  H    5.406523   2.783909   2.124748   1.085594   2.446322
                   41         42         43         44
    41  H    0.000000
    42  H    2.557951   0.000000
    43  H    4.051658   2.419554   0.000000
    44  H    3.442522   3.078036   1.855207   0.000000
 Stoichiometry    C14H26O3Si
 Framework group  C1[X(C14H26O3Si)]
 Deg. of freedom   126
 Full point group                 C1      NOp   1
 Largest Abelian subgroup         C1      NOp   1
 Largest concise Abelian subgroup C1      NOp   1
                         Standard orientation:                         
 ---------------------------------------------------------------------
 Center     Atomic      Atomic             Coordinates (Angstroms)
 Number     Number       Type             X           Y           Z
 ---------------------------------------------------------------------
      1          6           0       -2.360051    0.081900    0.298529
      2          6           0       -0.999175    0.256614    0.986432
      3          6           0        0.136508    0.124809   -0.080603
      4          6           0       -0.008636   -1.254718   -0.733875
      5          6           0       -1.400104   -1.582440   -1.203439
      6          1           0       -2.518589    0.895308   -0.417907
      7          1           0       -0.953854    1.257390    1.435845
      8          1           0        0.654404   -1.327751   -1.604360
      9          1           0        0.290739   -2.053766   -0.046649
     10          8           0       -2.432746   -1.147390   -0.450900
     11          8           0       -1.587778   -2.319344   -2.167074
     12          6           0       -3.550357    0.113550    1.271011
     13          6           0       -4.887271    0.176686    0.540570
     14          6           0       -0.814847   -0.723693    2.164581
     15          8           0        1.366901    0.292067    0.659887
     16         14           0        2.919756   -0.172940    0.244659
     17          6           0        3.170386   -2.022240    0.483939
     18          6           0        3.410197    0.271887   -1.508416
     19          6           0        4.134845    0.704069    1.401186
     20          1           0        4.454659    0.001254   -1.691680
     21          1           0        2.794923   -0.259224   -2.239802
     22          1           0        3.306819    1.347164   -1.680811
     23          1           0        5.162716    0.409921    1.170227
     24          1           0        4.048784    1.788732    1.289197
     25          1           0        3.922983    0.443724    2.442214
     26          1           0        4.231551   -2.276573    0.403647
     27          1           0        2.816787   -2.332247    1.471607
     28          1           0        2.628962   -2.594884   -0.273793
     29          1           0       -1.516605   -0.492590    2.972936
     30          1           0       -0.983810   -1.763193    1.867903
     31          1           0        0.186838   -0.651941    2.599028
     32          1           0       -3.468755    0.982722    1.933538
     33          1           0       -3.558937   -0.789406    1.892241
     34          1           0       -5.709123    0.214826    1.262627
     35          1           0       -4.948050    1.070289   -0.088741
     36          1           0       -5.037078   -0.702542   -0.093688
     37          6           0        0.040566    1.239433   -1.179202
     38          6           0        0.051156    2.648664   -0.645015
     39          6           0       -0.893689    3.561396   -0.904226
     40          1           0       -0.843821    1.085707   -1.808813
     41          1           0        0.890923    1.157797   -1.862879
     42          1           0        0.895228    2.927301   -0.015732
     43          1           0       -0.822309    4.563722   -0.491587
     44          1           0       -1.750150    3.341255   -1.533931
 ---------------------------------------------------------------------
 Rotational constants (GHZ):      0.5550146      0.2483867      0.2253534
 Standard basis: 6-31G(d,p) (6D, 7F)
 There are   404 symmetry adapted cartesian basis functions of A   symmetry.
 There are   404 symmetry adapted basis functions of A   symmetry.
   404 basis functions,   710 primitive gaussians,   404 cartesian basis functions
    74 alpha electrons       74 beta electrons
       nuclear repulsion energy      1625.9078180488 Hartrees.
 NAtoms=   44 NActive=   44 NUniq=   44 SFac= 1.00D+00 NAtFMM=   60 NAOKFM=F Big=F
 Integral buffers will be    131072 words long.
 Raffenetti 2 integral format.
 Two-electron integral symmetry is turned on.
 ------------------------------------------------------------------------------
 Polarizable Continuum Model (PCM)
 =================================
 Model                : PCM (using non-symmetric T matrix).
 Atomic radii         : UFF (Universal Force Field).
 Polarization charges : Total charges.
 Charge compensation  : None.
 Solution method      : On-the-fly selection.
 Cavity type          : Scaled VdW (van der Waals Surface) (Alpha=1.100).
 Cavity algorithm     : GePol (No added spheres)
                        Default sphere list used, NSphG=   44.
                        Lebedev-Laikov grids with approx.  5.0 points / Ang**2.
                        Smoothing algorithm: Karplus/York (Gamma=1.0000).
                        Polarization charges: spherical gaussians, with
                                              point-specific exponents (IZeta= 3).
                        Self-potential: point-specific (ISelfS= 7).
                        Self-field    : sphere-specific E.n sum rule (ISelfD= 2).
 1st derivatives      : Analytical E(r).r(x)/FMM algorithm (CHGder, D1EAlg=3).
                        Cavity 1st derivative terms included.
 Solvent              : Chloroform, Eps=   4.711300 Eps(inf)=   2.090627
 ------------------------------------------------------------------------------
 One-electron integrals computed using PRISM.
 NBasis=   404 RedAO= T EigKep=  1.89D-03  NBF=   404
 NBsUse=   404 1.00D-06 EigRej= -1.00D+00 NBFU=   404
 ExpMin= 7.78D-02 ExpMax= 1.61D+04 ExpMxC= 2.43D+03 IAcc=2 IRadAn=         4 AccDes= 0.00D+00
 Harris functional with IExCor=  402 and IRadAn=       4 diagonalized for initial guess.
 HarFok:  IExCor=  402 AccDes= 0.00D+00 IRadAn=         4 IDoV= 1 UseB2=F ITyADJ=14
 ICtDFT=  3500011 ScaDFX=  1.000000  1.000000  1.000000  1.000000
 FoFCou: FMM=F IPFlag=           0 FMFlag=      100000 FMFlg1=           0
         NFxFlg=           0 DoJE=T BraDBF=F KetDBF=T FulRan=T
         wScrn=  0.000000 ICntrl=     500 IOpCl=  0 I1Cent=   200000004 NGrid=           0
         NMat0=    1 NMatS0=      1 NMatT0=    0 NMatD0=    1 NMtDS0=    0 NMtDT0=    0
 Petite list used in FoFCou.
 Requested convergence on RMS density matrix=1.00D-08 within 128 cycles.
 Requested convergence on MAX density matrix=1.00D-06.
 Requested convergence on             energy=1.00D-06.
 No special actions if energy rises.
 Inv3:  Mode=1 IEnd=    25038963.
 Iteration    1 A*A^-1 deviation from unit magnitude is 6.33D-15 for   2886.
 Iteration    1 A*A^-1 deviation from orthogonality  is 4.63D-15 for   2169    248.
 Iteration    1 A^-1*A deviation from unit magnitude is 6.33D-15 for   2886.
 Iteration    1 A^-1*A deviation from orthogonality  is 3.05D-13 for   2194   2130.
 Error on total polarization charges =  0.00930
 SCF Done:  E(RB3LYP) =  -1064.41713079     A.U. after   13 cycles
            NFock= 13  Conv=0.48D-08     -V/T= 2.0081

 **********************************************************************

            Population analysis using the SCF density.

 **********************************************************************

 Orbital symmetries:
       Occupied  (A) (A) (A) (A) (A) (A) (A) (A) (A) (A) (A) (A)
                 (A) (A) (A) (A) (A) (A) (A) (A) (A) (A) (A) (A)
                 (A) (A) (A) (A) (A) (A) (A) (A) (A) (A) (A) (A)
                 (A) (A) (A) (A) (A) (A) (A) (A) (A) (A) (A) (A)
                 (A) (A) (A) (A) (A) (A) (A) (A) (A) (A) (A) (A)
                 (A) (A) (A) (A) (A) (A) (A) (A) (A) (A) (A) (A)
                 (A) (A)
       Virtual   (A) (A) (A) (A) (A) (A) (A) (A) (A) (A) (A) (A)
                 (A) (A) (A) (A) (A) (A) (A) (A) (A) (A) (A) (A)
                 (A) (A) (A) (A) (A) (A) (A) (A) (A) (A) (A) (A)
                 (A) (A) (A) (A) (A) (A) (A) (A) (A) (A) (A) (A)
                 (A) (A) (A) (A) (A) (A) (A) (A) (A) (A) (A) (A)
                 (A) (A) (A) (A) (A) (A) (A) (A) (A) (A) (A) (A)
                 (A) (A) (A) (A) (A) (A) (A) (A) (A) (A) (A) (A)
                 (A) (A) (A) (A) (A) (A) (A) (A) (A) (A) (A) (A)
                 (A) (A) (A) (A) (A) (A) (A) (A) (A) (A) (A) (A)
                 (A) (A) (A) (A) (A) (A) (A) (A) (A) (A) (A) (A)
                 (A) (A) (A) (A) (A) (A) (A) (A) (A) (A) (A) (A)
                 (A) (A) (A) (A) (A) (A) (A) (A) (A) (A) (A) (A)
                 (A) (A) (A) (A) (A) (A) (A) (A) (A) (A) (A) (A)
                 (A) (A) (A) (A) (A) (A) (A) (A) (A) (A) (A) (A)
                 (A) (A) (A) (A) (A) (A) (A) (A) (A) (A) (A) (A)
                 (A) (A) (A) (A) (A) (A) (A) (A) (A) (A) (A) (A)
                 (A) (A) (A) (A) (A) (A) (A) (A) (A) (A) (A) (A)
                 (A) (A) (A) (A) (A) (A) (A) (A) (A) (A) (A) (A)
                 (A) (A) (A) (A) (A) (A) (A) (A) (A) (A) (A) (A)
                 (A) (A) (A) (A) (A) (A) (A) (A) (A) (A) (A) (A)
                 (A) (A) (A) (A) (A) (A) (A) (A) (A) (A) (A) (A)
                 (A) (A) (A) (A) (A) (A) (A) (A) (A) (A) (A) (A)
                 (A) (A) (A) (A) (A) (A) (A) (A) (A) (A) (A) (A)
                 (A) (A) (A) (A) (A) (A) (A) (A) (A) (A) (A) (A)
                 (A) (A) (A) (A) (A) (A) (A) (A) (A) (A) (A) (A)
                 (A) (A) (A) (A) (A) (A) (A) (A) (A) (A) (A) (A)
                 (A) (A) (A) (A) (A) (A) (A) (A) (A) (A) (A) (A)
                 (A) (A) (A) (A) (A) (A)
 The electronic state is 1-A.
 Alpha  occ. eigenvalues --  -66.13964 -19.19317 -19.14433 -19.13750 -10.32518
 Alpha  occ. eigenvalues --  -10.26622 -10.25246 -10.20346 -10.19771 -10.19529
 Alpha  occ. eigenvalues --  -10.19364 -10.18857 -10.18222 -10.17536 -10.17350
 Alpha  occ. eigenvalues --  -10.15979 -10.15773 -10.15671  -5.28120  -3.64175
 Alpha  occ. eigenvalues --   -3.63945  -3.63911  -1.10054  -1.01619  -1.00677
 Alpha  occ. eigenvalues --   -0.82881  -0.80286  -0.78097  -0.74879  -0.71333
 Alpha  occ. eigenvalues --   -0.70541  -0.68814  -0.67686  -0.67382  -0.64079
 Alpha  occ. eigenvalues --   -0.61556  -0.59774  -0.56424  -0.52738  -0.51125
 Alpha  occ. eigenvalues --   -0.50925  -0.49079  -0.48043  -0.45738  -0.45256
 Alpha  occ. eigenvalues --   -0.44648  -0.43234  -0.43201  -0.42625  -0.41926
 Alpha  occ. eigenvalues --   -0.40901  -0.40765  -0.40595  -0.39749  -0.39096
 Alpha  occ. eigenvalues --   -0.38798  -0.38500  -0.37863  -0.37490  -0.36961
 Alpha  occ. eigenvalues --   -0.36524  -0.36143  -0.35252  -0.34971  -0.34711
 Alpha  occ. eigenvalues --   -0.33998  -0.32664  -0.31453  -0.30044  -0.29287
 Alpha  occ. eigenvalues --   -0.28474  -0.27735  -0.26604  -0.25536
 Alpha virt. eigenvalues --   -0.00629   0.01257   0.06301   0.07141   0.08650
 Alpha virt. eigenvalues --    0.09363   0.09760   0.10608   0.11417   0.11757
 Alpha virt. eigenvalues --    0.12519   0.12898   0.13345   0.13772   0.14128
 Alpha virt. eigenvalues --    0.14928   0.15441   0.16407   0.16641   0.17034
 Alpha virt. eigenvalues --    0.17418   0.17688   0.18057   0.18292   0.19004
 Alpha virt. eigenvalues --    0.19215   0.19774   0.20207   0.20406   0.20483
 Alpha virt. eigenvalues --    0.21878   0.22029   0.22223   0.23643   0.23896
 Alpha virt. eigenvalues --    0.23928   0.24421   0.26015   0.26514   0.28225
 Alpha virt. eigenvalues --    0.28673   0.31074   0.32014   0.35725   0.36543
 Alpha virt. eigenvalues --    0.37889   0.38490   0.39309   0.40549   0.43944
 Alpha virt. eigenvalues --    0.46177   0.46874   0.48924   0.50302   0.50365
 Alpha virt. eigenvalues --    0.51533   0.51997   0.54590   0.54930   0.55819
 Alpha virt. eigenvalues --    0.57232   0.58010   0.58614   0.60651   0.61527
 Alpha virt. eigenvalues --    0.62022   0.62309   0.63097   0.64124   0.64572
 Alpha virt. eigenvalues --    0.65743   0.66200   0.66621   0.67900   0.68903
 Alpha virt. eigenvalues --    0.69322   0.70323   0.71849   0.72728   0.73859
 Alpha virt. eigenvalues --    0.74666   0.75313   0.75766   0.76495   0.77395
 Alpha virt. eigenvalues --    0.78370   0.79814   0.80869   0.82472   0.83310
 Alpha virt. eigenvalues --    0.83949   0.85537   0.85622   0.86058   0.86418
 Alpha virt. eigenvalues --    0.87032   0.87444   0.87685   0.88639   0.88889
 Alpha virt. eigenvalues --    0.89446   0.89893   0.90349   0.90530   0.91476
 Alpha virt. eigenvalues --    0.91773   0.92100   0.92358   0.92788   0.94080
 Alpha virt. eigenvalues --    0.94596   0.95536   0.96278   0.96530   0.97260
 Alpha virt. eigenvalues --    0.97762   0.99082   0.99967   1.00432   1.00874
 Alpha virt. eigenvalues --    1.02484   1.03125   1.04576   1.05056   1.07825
 Alpha virt. eigenvalues --    1.10542   1.11892   1.12427   1.12856   1.17232
 Alpha virt. eigenvalues --    1.18582   1.19777   1.23736   1.26977   1.27525
 Alpha virt. eigenvalues --    1.28735   1.29554   1.30653   1.31906   1.32643
 Alpha virt. eigenvalues --    1.34848   1.36701   1.38809   1.39586   1.42526
 Alpha virt. eigenvalues --    1.44576   1.45302   1.45744   1.47032   1.48554
 Alpha virt. eigenvalues --    1.49434   1.50672   1.54513   1.55168   1.55776
 Alpha virt. eigenvalues --    1.57739   1.59970   1.61276   1.63076   1.63973
 Alpha virt. eigenvalues --    1.66374   1.67183   1.68943   1.69646   1.72221
 Alpha virt. eigenvalues --    1.73887   1.75436   1.76584   1.78143   1.79622
 Alpha virt. eigenvalues --    1.81409   1.82247   1.83790   1.84925   1.85202
 Alpha virt. eigenvalues --    1.87036   1.87446   1.88519   1.88856   1.90636
 Alpha virt. eigenvalues --    1.92012   1.94061   1.94445   1.94811   1.96244
 Alpha virt. eigenvalues --    1.97596   1.98721   2.00288   2.01660   2.02262
 Alpha virt. eigenvalues --    2.03501   2.04684   2.04843   2.05157   2.05219
 Alpha virt. eigenvalues --    2.06368   2.06771   2.07814   2.08063   2.08908
 Alpha virt. eigenvalues --    2.09268   2.10819   2.11446   2.11587   2.12139
 Alpha virt. eigenvalues --    2.12662   2.12765   2.13176   2.14293   2.14780
 Alpha virt. eigenvalues --    2.15237   2.16115   2.16542   2.17043   2.17320
 Alpha virt. eigenvalues --    2.18863   2.22207   2.23126   2.24891   2.26938
 Alpha virt. eigenvalues --    2.28540   2.29398   2.29535   2.32005   2.33174
 Alpha virt. eigenvalues --    2.33330   2.33988   2.35410   2.35650   2.36160
 Alpha virt. eigenvalues --    2.38194   2.39049   2.39307   2.41290   2.41501
 Alpha virt. eigenvalues --    2.42790   2.44813   2.48435   2.49232   2.51113
 Alpha virt. eigenvalues --    2.51398   2.53553   2.54362   2.57105   2.58250
 Alpha virt. eigenvalues --    2.59708   2.62415   2.62731   2.63879   2.64008
 Alpha virt. eigenvalues --    2.67079   2.68222   2.68387   2.68638   2.69672
 Alpha virt. eigenvalues --    2.70610   2.71500   2.72931   2.74640   2.75378
 Alpha virt. eigenvalues --    2.77328   2.78036   2.79640   2.80804   2.81542
 Alpha virt. eigenvalues --    2.82510   2.82631   2.84527   2.84977   2.85336
 Alpha virt. eigenvalues --    2.85469   2.86171   2.86682   2.87879   2.88640
 Alpha virt. eigenvalues --    2.90852   2.91845   2.92538   2.93129   2.94422
 Alpha virt. eigenvalues --    2.96812   2.97491   3.01784   3.08790   3.10673
 Alpha virt. eigenvalues --    3.15761   3.17672   3.20235   3.20656   3.20909
 Alpha virt. eigenvalues --    3.21727   3.22324   3.26713   3.30049   3.33744
 Alpha virt. eigenvalues --    3.35129   3.35312   3.39777   3.43480   3.43561
 Alpha virt. eigenvalues --    3.44188   3.44645   3.44776   3.45335   3.45750
 Alpha virt. eigenvalues --    3.46072   3.47881   3.48517   3.48992   3.51340
 Alpha virt. eigenvalues --    3.52793   3.56598   3.66574   4.00229   4.14300
 Alpha virt. eigenvalues --    4.20813   4.24090   4.34498   4.38259   4.45671
 Alpha virt. eigenvalues --    4.45990   4.48800   4.51141   4.52460   4.59265
 Alpha virt. eigenvalues --    4.64157   4.66323   4.71466   4.79806   4.81806
          Condensed to atoms (all electrons):
               1          2          3          4          5          6
     1  C    4.824259   0.313107  -0.026984  -0.011409  -0.009176   0.382236
     2  C    0.313107   5.109212   0.347766  -0.054202  -0.015835  -0.046368
     3  C   -0.026984   0.347766   4.842353   0.281015  -0.014155  -0.014152
     4  C   -0.011409  -0.054202   0.281015   5.348783   0.287948   0.001405
     5  C   -0.009176  -0.015835  -0.014155   0.287948   4.360921  -0.002475
     6  H    0.382236  -0.046368  -0.014152   0.001405  -0.002475   0.640071
     7  H   -0.028305   0.364882  -0.030425   0.006209   0.000518  -0.001301
     8  H   -0.000004   0.005956  -0.033541   0.357300  -0.021441   0.000083
     9  H    0.000582  -0.006937  -0.021806   0.366336  -0.023335  -0.000051
    10  O    0.165511  -0.032670  -0.000715  -0.095476   0.260662  -0.042308
    11  O    0.001714  -0.000109   0.002161  -0.087801   0.576570   0.000247
    12  C    0.380680  -0.033586   0.004583  -0.000552   0.001364  -0.052330
    13  C   -0.037801   0.004389  -0.000088  -0.000002   0.000027  -0.007440
    14  C   -0.042826   0.352697  -0.042541  -0.007573  -0.000240   0.005924
    15  O    0.002771  -0.047831   0.180243  -0.024536   0.001412  -0.000011
    16  Si   0.000355  -0.001607  -0.014453   0.002982  -0.000496  -0.000032
    17  C    0.000000  -0.000004  -0.001733  -0.000282   0.000087   0.000000
    18  C    0.000002  -0.000043  -0.000635  -0.002102   0.000008   0.000000
    19  C    0.000000  -0.000013   0.000992  -0.000060   0.000000   0.000000
    20  H    0.000000   0.000001   0.000008   0.000026   0.000000   0.000000
    21  H    0.000000  -0.000005   0.000416  -0.000753  -0.000017   0.000000
    22  H    0.000000  -0.000006  -0.000361   0.000138   0.000002   0.000000
    23  H    0.000000   0.000000  -0.000012   0.000001   0.000000   0.000000
    24  H    0.000000  -0.000002  -0.000046   0.000003   0.000000   0.000000
    25  H    0.000000   0.000005  -0.000041  -0.000004   0.000000   0.000000
    26  H    0.000000   0.000001   0.000035   0.000055   0.000000   0.000000
    27  H    0.000000   0.000008   0.000013  -0.000248  -0.000004   0.000000
    28  H   -0.000001   0.000020  -0.000140  -0.000156  -0.000011   0.000000
    29  H   -0.005388  -0.027808   0.004054  -0.000053   0.000007  -0.000026
    30  H   -0.007403  -0.034784  -0.006926   0.003222  -0.000001   0.000207
    31  H    0.004521  -0.027260  -0.006961  -0.000379  -0.000047  -0.000127
    32  H   -0.033906  -0.001239   0.000074   0.000036  -0.000034   0.000165
    33  H   -0.028883  -0.008469  -0.000135   0.000000   0.000087   0.005957
    34  H    0.004112  -0.000124   0.000002   0.000000   0.000000  -0.000017
    35  H   -0.005920  -0.000044  -0.000006   0.000001  -0.000015   0.006491
    36  H   -0.007833   0.000276   0.000000   0.000032   0.000191   0.000016
    37  C    0.001328  -0.059961   0.345701  -0.065684  -0.000133   0.004192
    38  C   -0.002395  -0.008180  -0.035260   0.004855   0.000006   0.001068
    39  C   -0.000855   0.000186  -0.001826  -0.000055  -0.000015   0.003017
    40  H    0.001324  -0.004661  -0.025448  -0.003733   0.004626  -0.000276
    41  H   -0.000134   0.005280  -0.028480  -0.005944  -0.000199   0.000134
    42  H    0.000053  -0.000854  -0.003611   0.000110   0.000000   0.000010
    43  H    0.000020  -0.000053  -0.000064   0.000003   0.000000  -0.000023
    44  H   -0.000254  -0.000079   0.000179  -0.000007  -0.000006   0.001275
               7          8          9         10         11         12
     1  C   -0.028305  -0.000004   0.000582   0.165511   0.001714   0.380680
     2  C    0.364882   0.005956  -0.006937  -0.032670  -0.000109  -0.033586
     3  C   -0.030425  -0.033541  -0.021806  -0.000715   0.002161   0.004583
     4  C    0.006209   0.357300   0.366336  -0.095476  -0.087801  -0.000552
     5  C    0.000518  -0.021441  -0.023335   0.260662   0.576570   0.001364
     6  H   -0.001301   0.000083  -0.000051  -0.042308   0.000247  -0.052330
     7  H    0.614654  -0.000123  -0.000052   0.002853   0.000004  -0.003560
     8  H   -0.000123   0.569721  -0.027121   0.003334   0.003618   0.000009
     9  H   -0.000052  -0.027121   0.538391  -0.000440  -0.000586  -0.000004
    10  O    0.002853   0.003334  -0.000440   8.326704  -0.075633  -0.042694
    11  O    0.000004   0.003618  -0.000586  -0.075633   8.078788  -0.000079
    12  C   -0.003560   0.000009  -0.000004  -0.042694  -0.000079   4.927848
    13  C   -0.000066   0.000000   0.000001  -0.002198  -0.000006   0.361265
    14  C   -0.041827   0.000066   0.002151  -0.003600  -0.000004  -0.010259
    15  O    0.000042  -0.000783  -0.001873  -0.000013  -0.000011  -0.000040
    16  Si   0.000290   0.003541  -0.000423  -0.000074  -0.000242  -0.000005
    17  C    0.000003  -0.001448   0.000303   0.000000   0.000002   0.000000
    18  C   -0.000001  -0.000155   0.000090   0.000000   0.000002   0.000000
    19  C   -0.000005   0.000006  -0.000012   0.000000   0.000000   0.000000
    20  H    0.000000   0.000003   0.000000   0.000000   0.000000   0.000000
    21  H    0.000000   0.002445  -0.000053   0.000000  -0.000006   0.000000
    22  H    0.000000  -0.000080   0.000002   0.000000   0.000000   0.000000
    23  H    0.000000   0.000000   0.000000   0.000000   0.000000   0.000000
    24  H    0.000000   0.000000   0.000000   0.000000   0.000000   0.000000
    25  H   -0.000001   0.000000  -0.000002   0.000000   0.000000   0.000000
    26  H    0.000000   0.000037   0.000033   0.000000   0.000000   0.000000
    27  H    0.000001   0.000034   0.000678   0.000000   0.000000   0.000000
    28  H    0.000000   0.000748   0.001297   0.000000   0.000000   0.000000
    29  H   -0.005114   0.000000  -0.000070   0.000079   0.000000   0.003032
    30  H    0.005413   0.000038   0.001720   0.006040  -0.000049  -0.001699
    31  H   -0.002427  -0.000044   0.000736   0.000021   0.000000   0.000178
    32  H    0.002898   0.000000  -0.000002   0.002871   0.000001   0.379845
    33  H    0.000072   0.000000  -0.000010  -0.000843  -0.000007   0.378768
    34  H   -0.000005   0.000000   0.000000   0.000055   0.000000  -0.028303
    35  H   -0.000005   0.000000   0.000000  -0.000229   0.000000  -0.036637
    36  H   -0.000004   0.000000   0.000000   0.007395   0.000013  -0.033442
    37  C   -0.011024  -0.007104   0.004583  -0.002003   0.000014  -0.000084
    38  C    0.010763   0.000089  -0.000118   0.000103   0.000001   0.000006
    39  C    0.002374   0.000001   0.000001   0.000003   0.000000  -0.000041
    40  H    0.000073   0.000034   0.000081   0.000440  -0.000155   0.000110
    41  H    0.000182   0.003808  -0.000074   0.000003   0.000000  -0.000002
    42  H    0.000696   0.000000   0.000004   0.000000   0.000000   0.000002
    43  H    0.000049   0.000000   0.000000   0.000000   0.000000  -0.000001
    44  H    0.000024   0.000000   0.000000  -0.000003   0.000000   0.000007
              13         14         15         16         17         18
     1  C   -0.037801  -0.042826   0.002771   0.000355   0.000000   0.000002
     2  C    0.004389   0.352697  -0.047831  -0.001607  -0.000004  -0.000043
     3  C   -0.000088  -0.042541   0.180243  -0.014453  -0.001733  -0.000635
     4  C   -0.000002  -0.007573  -0.024536   0.002982  -0.000282  -0.002102
     5  C    0.000027  -0.000240   0.001412  -0.000496   0.000087   0.000008
     6  H   -0.007440   0.005924  -0.000011  -0.000032   0.000000   0.000000
     7  H   -0.000066  -0.041827   0.000042   0.000290   0.000003  -0.000001
     8  H    0.000000   0.000066  -0.000783   0.003541  -0.001448  -0.000155
     9  H    0.000001   0.002151  -0.001873  -0.000423   0.000303   0.000090
    10  O   -0.002198  -0.003600  -0.000013  -0.000074   0.000000   0.000000
    11  O   -0.000006  -0.000004  -0.000011  -0.000242   0.000002   0.000002
    12  C    0.361265  -0.010259  -0.000040  -0.000005   0.000000   0.000000
    13  C    4.937597   0.000241   0.000000   0.000000   0.000000   0.000000
    14  C    0.000241   4.980081  -0.007990   0.000532  -0.000104  -0.000001
    15  O    0.000000  -0.007990   8.307380   0.330659  -0.017254  -0.014675
    16  Si   0.000000   0.000532   0.330659  11.852457   0.370068   0.368047
    17  C    0.000000  -0.000104  -0.017254   0.370068   5.144436  -0.035342
    18  C    0.000000  -0.000001  -0.014675   0.368047  -0.035342   5.146130
    19  C    0.000000  -0.000004  -0.019202   0.379262  -0.033533  -0.031475
    20  H    0.000000   0.000000   0.000491  -0.013945  -0.000324   0.371224
    21  H    0.000000   0.000000  -0.000454  -0.028076  -0.001508   0.374731
    22  H    0.000000   0.000000  -0.000344  -0.027270   0.001371   0.377866
    23  H    0.000000   0.000000   0.000490  -0.014725  -0.000522  -0.000731
    24  H    0.000000   0.000000  -0.000358  -0.025324   0.001392  -0.001249
    25  H    0.000000  -0.000004  -0.000408  -0.024761  -0.001251   0.001398
    26  H    0.000000   0.000001   0.000562  -0.013746   0.370080  -0.000070
    27  H    0.000000   0.000072  -0.000571  -0.026284   0.378490   0.001316
    28  H    0.000000  -0.000016  -0.000424  -0.026887   0.375375  -0.001599
    29  H   -0.000013   0.379576   0.000253  -0.000098   0.000001   0.000000
    30  H   -0.000042   0.382666   0.000006  -0.000113  -0.000011   0.000000
    31  H   -0.000004   0.381882   0.007766   0.002696  -0.000108   0.000007
    32  H   -0.037913  -0.001452   0.000000   0.000000   0.000000   0.000000
    33  H   -0.041030   0.003231   0.000000  -0.000001   0.000000   0.000000
    34  H    0.380905   0.000005   0.000000   0.000000   0.000000   0.000000
    35  H    0.385088   0.000008   0.000000   0.000000   0.000000   0.000000
    36  H    0.388564  -0.000023   0.000000   0.000000   0.000000   0.000000
    37  C    0.000000   0.005366  -0.053119  -0.006612  -0.000133  -0.001355
    38  C    0.000000   0.000085   0.000828   0.001257   0.000006  -0.000237
    39  C   -0.000002   0.000021   0.000344  -0.000082   0.000000   0.000002
    40  H   -0.000004  -0.000087   0.003115   0.000529   0.000002   0.000006
    41  H    0.000000  -0.000107  -0.003214  -0.001652  -0.000032   0.002184
    42  H    0.000000  -0.000035   0.004614   0.002391   0.000005  -0.000160
    43  H    0.000000   0.000000   0.000003   0.000008   0.000000   0.000000
    44  H   -0.000002   0.000000  -0.000002   0.000016   0.000000   0.000000
              19         20         21         22         23         24
     1  C    0.000000   0.000000   0.000000   0.000000   0.000000   0.000000
     2  C   -0.000013   0.000001  -0.000005  -0.000006   0.000000  -0.000002
     3  C    0.000992   0.000008   0.000416  -0.000361  -0.000012  -0.000046
     4  C   -0.000060   0.000026  -0.000753   0.000138   0.000001   0.000003
     5  C    0.000000   0.000000  -0.000017   0.000002   0.000000   0.000000
     6  H    0.000000   0.000000   0.000000   0.000000   0.000000   0.000000
     7  H   -0.000005   0.000000   0.000000   0.000000   0.000000   0.000000
     8  H    0.000006   0.000003   0.002445  -0.000080   0.000000   0.000000
     9  H   -0.000012   0.000000  -0.000053   0.000002   0.000000   0.000000
    10  O    0.000000   0.000000   0.000000   0.000000   0.000000   0.000000
    11  O    0.000000   0.000000  -0.000006   0.000000   0.000000   0.000000
    12  C    0.000000   0.000000   0.000000   0.000000   0.000000   0.000000
    13  C    0.000000   0.000000   0.000000   0.000000   0.000000   0.000000
    14  C   -0.000004   0.000000   0.000000   0.000000   0.000000   0.000000
    15  O   -0.019202   0.000491  -0.000454  -0.000344   0.000490  -0.000358
    16  Si   0.379262  -0.013945  -0.028076  -0.027270  -0.014725  -0.025324
    17  C   -0.033533  -0.000324  -0.001508   0.001371  -0.000522   0.001392
    18  C   -0.031475   0.371224   0.374731   0.377866  -0.000731  -0.001249
    19  C    5.117578  -0.001015   0.001491  -0.001132   0.373455   0.375436
    20  H   -0.001015   0.564426  -0.022542  -0.022848   0.000089  -0.000032
    21  H    0.001491  -0.022542   0.578762  -0.023850   0.000000   0.000003
    22  H   -0.001132  -0.022848  -0.023850   0.573922  -0.000064   0.000656
    23  H    0.373455   0.000089   0.000000  -0.000064   0.566971  -0.023517
    24  H    0.375436  -0.000032   0.000003   0.000656  -0.023517   0.578186
    25  H    0.376221   0.000011  -0.000028   0.000004  -0.023599  -0.022047
    26  H   -0.001006   0.000020  -0.000029   0.000001   0.000055   0.000019
    27  H   -0.000957   0.000016   0.000003  -0.000025  -0.000014   0.000000
    28  H    0.001436  -0.000036   0.000738   0.000007   0.000000  -0.000028
    29  H    0.000000   0.000000   0.000000   0.000000   0.000000   0.000000
    30  H    0.000000   0.000000   0.000000   0.000000   0.000000   0.000000
    31  H   -0.000086   0.000000   0.000000   0.000000   0.000001  -0.000001
    32  H    0.000000   0.000000   0.000000   0.000000   0.000000   0.000000
    33  H    0.000000   0.000000   0.000000   0.000000   0.000000   0.000000
    34  H    0.000000   0.000000   0.000000   0.000000   0.000000   0.000000
    35  H    0.000000   0.000000   0.000000   0.000000   0.000000   0.000000
    36  H    0.000000   0.000000   0.000000   0.000000   0.000000   0.000000
    37  C   -0.000088   0.000131  -0.001320  -0.001010   0.000001  -0.000012
    38  C   -0.000029  -0.000004   0.000009   0.000466   0.000000  -0.000024
    39  C    0.000000   0.000000  -0.000001   0.000011   0.000000   0.000000
    40  H    0.000000  -0.000002  -0.000014   0.000011   0.000000   0.000000
    41  H   -0.000012   0.000065   0.002025   0.001354   0.000001  -0.000008
    42  H   -0.000078   0.000000   0.000003   0.000153   0.000000   0.000183
    43  H    0.000000   0.000000   0.000000   0.000000   0.000000   0.000000
    44  H    0.000000   0.000000   0.000000   0.000000   0.000000   0.000000
              25         26         27         28         29         30
     1  C    0.000000   0.000000   0.000000  -0.000001  -0.005388  -0.007403
     2  C    0.000005   0.000001   0.000008   0.000020  -0.027808  -0.034784
     3  C   -0.000041   0.000035   0.000013  -0.000140   0.004054  -0.006926
     4  C   -0.000004   0.000055  -0.000248  -0.000156  -0.000053   0.003222
     5  C    0.000000   0.000000  -0.000004  -0.000011   0.000007  -0.000001
     6  H    0.000000   0.000000   0.000000   0.000000  -0.000026   0.000207
     7  H   -0.000001   0.000000   0.000001   0.000000  -0.005114   0.005413
     8  H    0.000000   0.000037   0.000034   0.000748   0.000000   0.000038
     9  H   -0.000002   0.000033   0.000678   0.001297  -0.000070   0.001720
    10  O    0.000000   0.000000   0.000000   0.000000   0.000079   0.006040
    11  O    0.000000   0.000000   0.000000   0.000000   0.000000  -0.000049
    12  C    0.000000   0.000000   0.000000   0.000000   0.003032  -0.001699
    13  C    0.000000   0.000000   0.000000   0.000000  -0.000013  -0.000042
    14  C   -0.000004   0.000001   0.000072  -0.000016   0.379576   0.382666
    15  O   -0.000408   0.000562  -0.000571  -0.000424   0.000253   0.000006
    16  Si  -0.024761  -0.013746  -0.026284  -0.026887  -0.000098  -0.000113
    17  C   -0.001251   0.370080   0.378490   0.375375   0.000001  -0.000011
    18  C    0.001398  -0.000070   0.001316  -0.001599   0.000000   0.000000
    19  C    0.376221  -0.001006  -0.000957   0.001436   0.000000   0.000000
    20  H    0.000011   0.000020   0.000016  -0.000036   0.000000   0.000000
    21  H   -0.000028  -0.000029   0.000003   0.000738   0.000000   0.000000
    22  H    0.000004   0.000001  -0.000025   0.000007   0.000000   0.000000
    23  H   -0.023599   0.000055  -0.000014   0.000000   0.000000   0.000000
    24  H   -0.022047   0.000019   0.000000  -0.000028   0.000000   0.000000
    25  H    0.575488  -0.000051   0.000522   0.000008   0.000000   0.000000
    26  H   -0.000051   0.569825  -0.023074  -0.023220   0.000000   0.000000
    27  H    0.000522  -0.023074   0.574595  -0.023223  -0.000001   0.000038
    28  H    0.000008  -0.023220  -0.023223   0.581586   0.000000  -0.000016
    29  H    0.000000   0.000000  -0.000001   0.000000   0.599121  -0.031019
    30  H    0.000000   0.000000   0.000038  -0.000016  -0.031019   0.604600
    31  H    0.000031   0.000000   0.000286  -0.000014  -0.029642  -0.030174
    32  H    0.000000   0.000000   0.000000   0.000000   0.001194   0.000188
    33  H    0.000000   0.000000   0.000000   0.000000   0.000471   0.001586
    34  H    0.000000   0.000000   0.000000   0.000000   0.000004  -0.000001
    35  H    0.000000   0.000000   0.000000   0.000000  -0.000002   0.000000
    36  H    0.000000   0.000000   0.000000   0.000000   0.000006   0.000003
    37  C    0.000004   0.000001   0.000000  -0.000031  -0.000094  -0.000058
    38  C   -0.000001   0.000000   0.000000   0.000000  -0.000003  -0.000002
    39  C    0.000000   0.000000   0.000000   0.000000   0.000001  -0.000001
    40  H    0.000000   0.000000   0.000000   0.000000  -0.000002  -0.000007
    41  H    0.000000   0.000001   0.000000  -0.000010   0.000002   0.000001
    42  H   -0.000002   0.000000   0.000000   0.000000   0.000000   0.000000
    43  H    0.000000   0.000000   0.000000   0.000000   0.000000   0.000000
    44  H    0.000000   0.000000   0.000000   0.000000   0.000000   0.000000
              31         32         33         34         35         36
     1  C    0.004521  -0.033906  -0.028883   0.004112  -0.005920  -0.007833
     2  C   -0.027260  -0.001239  -0.008469  -0.000124  -0.000044   0.000276
     3  C   -0.006961   0.000074  -0.000135   0.000002  -0.000006   0.000000
     4  C   -0.000379   0.000036   0.000000   0.000000   0.000001   0.000032
     5  C   -0.000047  -0.000034   0.000087   0.000000  -0.000015   0.000191
     6  H   -0.000127   0.000165   0.005957  -0.000017   0.006491   0.000016
     7  H   -0.002427   0.002898   0.000072  -0.000005  -0.000005  -0.000004
     8  H   -0.000044   0.000000   0.000000   0.000000   0.000000   0.000000
     9  H    0.000736  -0.000002  -0.000010   0.000000   0.000000   0.000000
    10  O    0.000021   0.002871  -0.000843   0.000055  -0.000229   0.007395
    11  O    0.000000   0.000001  -0.000007   0.000000   0.000000   0.000013
    12  C    0.000178   0.379845   0.378768  -0.028303  -0.036637  -0.033442
    13  C   -0.000004  -0.037913  -0.041030   0.380905   0.385088   0.388564
    14  C    0.381882  -0.001452   0.003231   0.000005   0.000008  -0.000023
[...]
    14  C   -0.000016   0.000000   0.000000   0.000000   0.000000   0.000001
    15  O   -0.025054   0.000514  -0.000519  -0.000461   0.000686  -0.000498
    16  Si   0.382435  -0.014379  -0.024995  -0.025324  -0.015138  -0.023285
    17  C   -0.029381  -0.000186  -0.001202   0.001227  -0.000236   0.001192
    18  C   -0.027741   0.368497   0.376451   0.378148  -0.000398  -0.001265
    19  C    5.112243  -0.000695   0.001202  -0.001078   0.368557   0.376985
    20  H   -0.000695   0.570908  -0.023528  -0.023380   0.000047  -0.000020
    21  H    0.001202  -0.023528   0.574085  -0.024167  -0.000001   0.000007
    22  H   -0.001078  -0.023380  -0.024167   0.571642  -0.000058   0.000497
    23  H    0.368557   0.000047  -0.000001  -0.000058   0.575943  -0.024050
    24  H    0.376985  -0.000020   0.000007   0.000497  -0.024050   0.571783
    25  H    0.377469   0.000005  -0.000021  -0.000002  -0.024016  -0.022508
    26  H   -0.000701   0.000045  -0.000038   0.000002   0.000035   0.000010
    27  H   -0.000997   0.000008   0.000001  -0.000021  -0.000032   0.000000
    28  H    0.001201  -0.000038   0.000554   0.000004   0.000001  -0.000021
    29  H    0.000000   0.000000   0.000000   0.000000   0.000000   0.000000
    30  H    0.000000   0.000000   0.000000   0.000000   0.000000   0.000000
    31  H   -0.000131   0.000000   0.000000   0.000000   0.000001  -0.000004
    32  H    0.000000   0.000000   0.000000   0.000000   0.000000   0.000000
    33  H    0.000000   0.000000   0.000000   0.000000   0.000000   0.000000
    34  H    0.000000   0.000000   0.000000   0.000000   0.000000   0.000000
    35  H    0.000000   0.000000   0.000000   0.000000   0.000000   0.000000
    36  H    0.000000   0.000000   0.000000   0.000000   0.000000   0.000000
    37  C   -0.000087   0.000086  -0.000811  -0.000427   0.000001  -0.000014
    38  C   -0.000053  -0.000003   0.000002   0.000438   0.000001  -0.000041
    39  C    0.000000   0.000000   0.000000   0.000013   0.000000   0.000000
    40  H    0.000000  -0.000001  -0.000015   0.000004   0.000000   0.000000
    41  H   -0.000019   0.000032   0.001833   0.000791   0.000001  -0.000008
    42  H   -0.000071   0.000001   0.000004   0.000122   0.000000   0.000324
    43  H    0.000000   0.000000   0.000000   0.000000   0.000000   0.000000
    44  H    0.000000   0.000000   0.000000   0.000000   0.000000   0.000000
              25         26         27         28         29         30
     1  C    0.000000   0.000000   0.000000   0.000000  -0.004921  -0.007087
     2  C    0.000009   0.000001   0.000005   0.000016  -0.026693  -0.034165
     3  C   -0.000052   0.000017   0.000000  -0.000041   0.004009  -0.006590
     4  C   -0.000006   0.000056  -0.000215   0.000009  -0.000005   0.003185
     5  C    0.000000   0.000000  -0.000004  -0.000024  -0.000021   0.000396
     6  H    0.000000   0.000000   0.000000   0.000000  -0.000049   0.000187
     7  H   -0.000002   0.000000   0.000001   0.000000  -0.005388   0.005195
     8  H    0.000000   0.000021   0.000017   0.000658   0.000000   0.000039
     9  H   -0.000003   0.000028   0.000662   0.000934  -0.000059   0.001133
    10  O    0.000000   0.000000   0.000000   0.000000   0.000070   0.005006
    11  O    0.000000   0.000000   0.000000   0.000002   0.000000  -0.000106
    12  C    0.000000   0.000000   0.000000   0.000000   0.002771  -0.001886
    13  C    0.000000   0.000000   0.000000   0.000000  -0.000008  -0.000044
    14  C   -0.000010   0.000001   0.000054  -0.000012   0.379889   0.383538
    15  O   -0.000570   0.000539  -0.000621  -0.000500   0.000226   0.000031
    16  Si  -0.023401  -0.013935  -0.024511  -0.024458  -0.000096  -0.000081
    17  C   -0.001221   0.368116   0.378479   0.376851   0.000001  -0.000011
    18  C    0.001187  -0.000138   0.001193  -0.001311   0.000000   0.000000
    19  C    0.377469  -0.000701  -0.000997   0.001201   0.000000   0.000000
    20  H    0.000005   0.000045   0.000008  -0.000038   0.000000   0.000000
    21  H   -0.000021  -0.000038   0.000001   0.000554   0.000000   0.000000
    22  H   -0.000002   0.000002  -0.000021   0.000004   0.000000   0.000000
    23  H   -0.024016   0.000035  -0.000032   0.000001   0.000000   0.000000
    24  H   -0.022508   0.000010   0.000000  -0.000021   0.000000   0.000000
    25  H    0.570691  -0.000025   0.000433   0.000007   0.000000   0.000000
    26  H   -0.000025   0.572469  -0.023886  -0.023537   0.000000   0.000000
    27  H    0.000433  -0.023886   0.572139  -0.023633  -0.000001   0.000028
    28  H    0.000007  -0.023537  -0.023633   0.573690   0.000000  -0.000009
    29  H    0.000000   0.000000  -0.000001   0.000000   0.595424  -0.031878
    30  H    0.000000   0.000000   0.000028  -0.000009  -0.031878   0.602999
    31  H    0.000148   0.000000   0.000262  -0.000009  -0.027499  -0.030009
    32  H    0.000000   0.000000   0.000000   0.000000   0.001206   0.000217
    33  H    0.000000   0.000000   0.000000   0.000000   0.000358   0.001702
    34  H    0.000000   0.000000   0.000000   0.000000   0.000003  -0.000001
    35  H    0.000000   0.000000   0.000000   0.000000  -0.000002   0.000000
    36  H    0.000000   0.000000   0.000000   0.000000   0.000005   0.000003
    37  C    0.000004   0.000001  -0.000001  -0.000026  -0.000104  -0.000072
    38  C   -0.000001   0.000000   0.000000   0.000000  -0.000002  -0.000002
    39  C    0.000000   0.000000   0.000000   0.000000   0.000001   0.000000
    40  H    0.000000   0.000000   0.000000   0.000000  -0.000002  -0.000008
    41  H    0.000000   0.000002   0.000001  -0.000013   0.000002   0.000001
    42  H   -0.000004   0.000000   0.000000   0.000000   0.000000   0.000000
    43  H    0.000000   0.000000   0.000000   0.000000   0.000000   0.000000
    44  H    0.000000   0.000000   0.000000   0.000000   0.000000   0.000000
              31         32         33         34         35         36
     1  C    0.004740  -0.036920  -0.030276   0.003840  -0.005127  -0.008243
     2  C   -0.029896  -0.001208  -0.009283  -0.000110  -0.000043   0.000253
     3  C   -0.007609   0.000047  -0.000139   0.000001  -0.000006  -0.000001
     4  C   -0.000587   0.000044   0.000003   0.000000   0.000001   0.000035
     5  C   -0.000077  -0.000046   0.000138   0.000000  -0.000014   0.000222
     6  H   -0.000141  -0.000111   0.006153  -0.000027   0.005927   0.000077
     7  H   -0.002135   0.003007   0.000049  -0.000004  -0.000007  -0.000004
     8  H   -0.000046   0.000000   0.000000   0.000000   0.000000   0.000000
     9  H    0.000841  -0.000002  -0.000013   0.000000   0.000000  -0.000001
    10  O    0.000005   0.003307  -0.000812   0.000076  -0.000207   0.008457
    11  O    0.000000   0.000001  -0.000019   0.000000   0.000000   0.000016
    12  C    0.000190   0.375861   0.377987  -0.027436  -0.035330  -0.033728
    13  C   -0.000003  -0.035939  -0.037870   0.381211   0.384861   0.388101
    14  C    0.381955  -0.001495   0.004372   0.000004   0.000009  -0.000021
    15  O    0.009095   0.000000   0.000000   0.000000   0.000000   0.000000
    16  Si   0.002917   0.000000  -0.000001   0.000000   0.000000   0.000000
    17  C   -0.000125   0.000000   0.000000   0.000000   0.000000   0.000000
    18  C    0.000009   0.000000   0.000000   0.000000   0.000000   0.000000
    19  C   -0.000131   0.000000   0.000000   0.000000   0.000000   0.000000
    20  H    0.000000   0.000000   0.000000   0.000000   0.000000   0.000000
    21  H    0.000000   0.000000   0.000000   0.000000   0.000000   0.000000
    22  H    0.000000   0.000000   0.000000   0.000000   0.000000   0.000000
    23  H    0.000001   0.000000   0.000000   0.000000   0.000000   0.000000
    24  H   -0.000004   0.000000   0.000000   0.000000   0.000000   0.000000
    25  H    0.000148   0.000000   0.000000   0.000000   0.000000   0.000000
    26  H    0.000000   0.000000   0.000000   0.000000   0.000000   0.000000
    27  H    0.000262   0.000000   0.000000   0.000000   0.000000   0.000000
    28  H   -0.000009   0.000000   0.000000   0.000000   0.000000   0.000000
    29  H   -0.027499   0.001206   0.000358   0.000003  -0.000002   0.000005
    30  H   -0.030009   0.000217   0.001702  -0.000001   0.000000   0.000003
    31  H    0.566773  -0.000043  -0.000031   0.000000   0.000000   0.000000
    32  H   -0.000043   0.617177  -0.032327  -0.003371  -0.004456   0.005081
    33  H   -0.000031  -0.032327   0.605991  -0.003158   0.005052  -0.003757
    34  H    0.000000  -0.003371  -0.003158   0.602905  -0.031172  -0.030067
    35  H    0.000000  -0.004456   0.005052  -0.031172   0.604941  -0.030822
    36  H    0.000000   0.005081  -0.003757  -0.030067  -0.030822   0.579668
    37  C    0.000267  -0.000007   0.000003   0.000000  -0.000004   0.000000
    38  C   -0.000002   0.000006  -0.000003   0.000000  -0.000001   0.000000
    39  C    0.000000   0.000023   0.000000   0.000000  -0.000004   0.000000
    40  H   -0.000008   0.000000  -0.000003   0.000000  -0.000005   0.000000
    41  H   -0.000006   0.000000   0.000000   0.000000   0.000000   0.000000
    42  H    0.000000   0.000000   0.000000   0.000000   0.000000   0.000000
    43  H    0.000000   0.000000   0.000000   0.000000   0.000000   0.000000
    44  H    0.000000   0.000000   0.000000   0.000000   0.000016   0.000000
              37         38         39         40         41         42
     1  C    0.001486  -0.002825  -0.000839   0.001383  -0.000136   0.000088
     2  C   -0.061666  -0.009437   0.000054  -0.005002   0.005951  -0.001364
     3  C    0.347707  -0.033326  -0.001210  -0.025972  -0.030746  -0.003946
     4  C   -0.062893   0.004978  -0.000087  -0.003094  -0.007535   0.000186
     5  C   -0.000116  -0.000043  -0.000009   0.003014  -0.000180  -0.000003
     6  H    0.005317   0.001135   0.003427  -0.001911   0.000183   0.000003
     7  H   -0.013042   0.012345   0.002185   0.000106   0.000225   0.001054
     8  H   -0.006850   0.000095   0.000001  -0.000034   0.004475   0.000001
     9  H    0.004698  -0.000130   0.000001   0.000076  -0.000103   0.000004
    10  O   -0.002391   0.000136   0.000000   0.001398   0.000001   0.000000
    11  O    0.000016   0.000000   0.000000  -0.000235  -0.000006   0.000000
    12  C   -0.000086   0.000016  -0.000034   0.000161  -0.000003   0.000003
    13  C   -0.000001   0.000001   0.000000   0.000000   0.000000   0.000000
    14  C    0.005693   0.000045   0.000016  -0.000121  -0.000125  -0.000052
    15  O   -0.057653   0.000230   0.000416   0.003533  -0.003740   0.005864
    16  Si  -0.005786   0.001062  -0.000048   0.000480  -0.000682   0.002396
    17  C   -0.000105   0.000006   0.000000   0.000002  -0.000055   0.000006
    18  C   -0.001093  -0.000202  -0.000001  -0.000004   0.002159  -0.000188
    19  C   -0.000087  -0.000053   0.000000   0.000000  -0.000019  -0.000071
    20  H    0.000086  -0.000003   0.000000  -0.000001   0.000032   0.000001
    21  H   -0.000811   0.000002   0.000000  -0.000015   0.001833   0.000004
    22  H   -0.000427   0.000438   0.000013   0.000004   0.000791   0.000122
    23  H    0.000001   0.000001   0.000000   0.000000   0.000001   0.000000
    24  H   -0.000014  -0.000041   0.000000   0.000000  -0.000008   0.000324
    25  H    0.000004  -0.000001   0.000000   0.000000   0.000000  -0.000004
    26  H    0.000001   0.000000   0.000000   0.000000   0.000002   0.000000
    27  H   -0.000001   0.000000   0.000000   0.000000   0.000001   0.000000
    28  H   -0.000026   0.000000   0.000000   0.000000  -0.000013   0.000000
    29  H   -0.000104  -0.000002   0.000001  -0.000002   0.000002   0.000000
    30  H   -0.000072  -0.000002   0.000000  -0.000008   0.000001   0.000000
    31  H    0.000267  -0.000002   0.000000  -0.000008  -0.000006   0.000000
    32  H   -0.000007   0.000006   0.000023   0.000000   0.000000   0.000000
    33  H    0.000003  -0.000003   0.000000  -0.000003   0.000000   0.000000
    34  H    0.000000   0.000000   0.000000   0.000000   0.000000   0.000000
    35  H   -0.000004  -0.000001  -0.000004  -0.000005   0.000000   0.000000
    36  H    0.000000   0.000000   0.000000   0.000000   0.000000   0.000000
    37  C    5.061709   0.382897  -0.040227   0.362990   0.369591  -0.053501
    38  C    0.382897   4.764725   0.652834  -0.038094  -0.034567   0.385179
    39  C   -0.040227   0.652834   4.941887  -0.006498  -0.000165  -0.044343
    40  H    0.362990  -0.038094  -0.006498   0.622739  -0.031352   0.005204
    41  H    0.369591  -0.034567  -0.000165  -0.031352   0.604841  -0.001521
    42  H   -0.053501   0.385179  -0.044343   0.005204  -0.001521   0.600066
    43  H    0.004673  -0.024918   0.376212   0.000094  -0.000203  -0.007960
    44  H   -0.012033  -0.034713   0.381714   0.005698   0.000182   0.005586
              43         44
     1  C    0.000017  -0.000208
     2  C   -0.000045  -0.000077
     3  C   -0.000076   0.000206
     4  C    0.000003  -0.000005
     5  C    0.000000  -0.000004
     6  H   -0.000021   0.000990
     7  H    0.000053   0.000025
     8  H    0.000000   0.000000
     9  H    0.000000   0.000000
    10  O    0.000000  -0.000003
    11  O    0.000000   0.000000
    12  C   -0.000001   0.000006
    13  C    0.000000  -0.000001
    14  C    0.000000   0.000000
    15  O    0.000003  -0.000003
    16  Si   0.000008   0.000014
    17  C    0.000000   0.000000
    18  C    0.000000   0.000000
    19  C    0.000000   0.000000
    20  H    0.000000   0.000000
    21  H    0.000000   0.000000
    22  H    0.000000   0.000000
    23  H    0.000000   0.000000
    24  H    0.000000   0.000000
    25  H    0.000000   0.000000
    26  H    0.000000   0.000000
    27  H    0.000000   0.000000
    28  H    0.000000   0.000000
    29  H    0.000000   0.000000
    30  H    0.000000   0.000000
    31  H    0.000000   0.000000
    32  H    0.000000   0.000000
    33  H    0.000000   0.000000
    34  H    0.000000   0.000000
    35  H    0.000000   0.000016
    36  H    0.000000   0.000000
    37  C    0.004673  -0.012033
    38  C   -0.024918  -0.034713
    39  C    0.376212   0.381714
    40  H    0.000094   0.005698
    41  H   -0.000203   0.000182
    42  H   -0.007960   0.005586
    43  H    0.588924  -0.043437
    44  H   -0.043437   0.593522
 Mulliken charges:
               1
     1  C    0.168034
     2  C   -0.095535
     3  C    0.312826
     4  C   -0.310926
     5  C    0.593118
     6  H    0.114549
     7  H    0.111536
     8  H    0.142033
     9  H    0.162873
    10  O   -0.484628
    11  O   -0.498796
    12  C   -0.192098
    13  C   -0.330859
    14  C   -0.338178
    15  O   -0.653821
    16  Si   0.916930
    17  C   -0.552375
    18  C   -0.554456
    19  C   -0.535027
    20  H    0.122066
    21  H    0.119961
    22  H    0.122314
    23  H    0.118669
    24  H    0.120963
    25  H    0.121889
    26  H    0.120915
    27  H    0.120641
    28  H    0.119705
    29  H    0.112764
    30  H    0.108290
    31  H    0.131159
    32  H    0.109947
    33  H    0.115885
    34  H    0.107305
    35  H    0.106393
    36  H    0.124726
    37  C   -0.228144
    38  C   -0.027768
    39  C   -0.265314
    40  H    0.105478
    41  H    0.120893
    42  H    0.106865
    43  H    0.106674
    44  H    0.102526
 Sum of Mulliken charges =   0.00000
 Mulliken charges with hydrogens summed into heavy atoms:
               1
     1  C    0.282584
     2  C    0.016001
     3  C    0.312826
     4  C   -0.006020
     5  C    0.593118
    10  O   -0.484628
    11  O   -0.498796
    12  C    0.033734
    13  C    0.007565
    14  C    0.014034
    15  O   -0.653821
    16  Si   0.916930
    17  C   -0.191113
    18  C   -0.190116
    19  C   -0.173507
    37  C   -0.001773
    38  C    0.079097
    39  C   -0.056114
 Electronic spatial extent (au):  <R**2>=           5656.8697
 Charge=              0.0000 electrons
 Dipole moment (field-independent basis, Debye):
    X=              2.4161    Y=              3.1471    Z=              2.4246  Tot=              4.6498
 Quadrupole moment (field-independent basis, Debye-Ang):
   XX=           -114.6658   YY=           -125.4794   ZZ=           -122.2296
   XY=            -10.8446   XZ=             -8.2929   YZ=             -8.2067
 Traceless Quadrupole moment (field-independent basis, Debye-Ang):
   XX=              6.1258   YY=             -4.6878   ZZ=             -1.4380
   XY=            -10.8446   XZ=             -8.2929   YZ=             -8.2067
 Octapole moment (field-independent basis, Debye-Ang**2):
  XXX=             18.5659  YYY=             23.2308  ZZZ=             11.0236  XYY=             14.1842
  XXY=             13.9382  XXZ=             15.4060  XZZ=              2.1533  YZZ=             10.1102
  YYZ=             24.5733  XYZ=             18.7046
 Hexadecapole moment (field-independent basis, Debye-Ang**3):
 XXXX=          -4677.0898 YYYY=          -1720.7861 ZZZZ=          -1107.1953 XXXY=            -42.3479
 XXXZ=            -42.6678 YYYX=            -28.7691 YYYZ=            -29.1057 ZZZX=             -9.5137
 ZZZY=            -11.9843 XXYY=          -1123.0657 XXZZ=           -996.9591 YYZZ=           -524.7324
 XXYZ=            -31.0893 YYXZ=            -27.9597 ZZXY=            -36.8436
 N-N= 1.621053638557D+03 E-N=-5.732423809941D+03  KE= 1.055909263303D+03
 1\1\GINC-CPU-E-1146\FOpt\RB3LYP\6-31G(d,p)\C14H26O3Si1\KE291\06-Feb-20
 19\0\\# b3lyp/6-31g(d,p) Opt=(maxcycles=25) scrf=(solvent=chloroform)\
 \P_ng_4ginp001\\0,1\C,0.1011199684,1.7822673739,-0.3954674253\C,-0.174
 3396747,1.1803721318,0.9898953072\C,-1.2729485127,2.0204517944,1.69765
 49255\C,-0.7473664927,3.4586253029,1.835880235\C,-0.096621253,4.047367
 9416,0.5935727378\H,-0.8088251267,1.7042121437,-1.0007866068\H,-0.6012
 759128,0.1871248382,0.8079216395\H,-1.5314065676,4.154157161,2.1474776
 408\H,0.0246376492,3.4841267182,2.6126111264\O,0.4162251913,3.21209999
 26,-0.3339979961\O,0.046697642,5.2435307112,0.4480703306\C,1.242701155
 3,1.1313839138,-1.1741945896\C,1.3473407792,1.6248976906,-2.6205601933
 \C,1.0936794764,1.0089145402,1.8418393284\O,-1.506444563,1.4217792967,
 2.9701412697\Si,-2.1526977464,1.920553637,4.4427187192\C,-0.9724604146
 ,3.0730821033,5.3606366966\C,-3.8276635277,2.7714427312,4.2514612427\C
 ,-2.3503656849,0.3137574826,5.3998432824\H,-4.2415822202,2.9898399229,
 5.2430651648\H,-3.7577956151,3.7228608708,3.7135476831\H,-4.5480349176
 ,2.1365419695,3.7252335311\H,-2.7457932955,0.5053023843,6.4036168565\H
 ,-3.0402586209,-0.3682317789,4.8920176072\H,-1.3906694495,-0.201501314
 5,5.5110246464\H,-1.3417677166,3.2437623101,6.378797153\H,0.030387435,
 2.6404389634,5.4417739272\H,-0.8810443229,4.0512555641,4.8781216751\H,
 1.744685782,0.2427447157,1.4135594552\H,1.6774981676,1.9325832285,1.91
 01816045\H,0.8261441866,0.6965040579,2.8522606391\H,1.0742410387,0.047
 3689753,-1.1612037977\H,2.1859594705,1.312727029,-0.6483075251\H,2.176
 6882097,1.1335893792,-3.1380894998\H,0.4298335706,1.4098324241,-3.1797
 407778\H,1.5173527488,2.7042158791,-2.654878278\C,-2.6123292495,2.0281
 616729,0.9065469391\C,-3.1773285746,0.663475031,0.6252060421\C,-3.5775
 59236,0.2345821658,-0.5732384053\H,-2.5019883692,2.5874607445,-0.02910
 8191\H,-3.3250038677,2.5980980529,1.5155933565\H,-3.2639525122,0.00161
 56865,1.4855341208\H,-3.9951338935,-0.7583022878,-0.7127560332\H,-3.51
 21271331,0.863569849,-1.4585855644\\Version=ES64L-G09RevD.01\State=1-A
 \HF=-1064.4243909\RMSD=8.638e-09\RMSF=2.697e-06\Dipole=-0.6120164,-1.5
 739336,0.7033902\Quadrupole=2.8867667,-8.9148276,6.028061,-5.6715637,0
 .3036609,7.9330848\PG=C01 [X(C14H26O3Si1)]\\@


 CHINESE FORTUNE COOKIE OF JAN 1 1967 SAY....
 ALL THINGS ARE DIFFICULT BEFORE THEY ARE EASY.
 WE LEARN SO LITTLE AND FORGET SO MUCH.
 YOU WILL OVERCOME OBSTACLES TO ACHIEVE SUCCESS.
 AH SO.
 Job cpu time:       0 days  2 hours 37 minutes  2.6 seconds.
 File lengths (MBytes):  RWF=    374 Int=      0 D2E=      0 Chk=     17 Scr=      1
 Normal termination of Gaussian 09 at Wed Feb  6 11:29:32 2019.
