 Entering Gaussian System, Link 0=/usr/local/Cluster-Apps/gaussian/g09/g09
 Initial command:
 /usr/local/Cluster-Apps/gaussian/g09/l1.exe "/home/ke291/rds/hpc-work/06Feb0927IP1/Gau-314168.inp" -scrdir="/home/ke291/rds/hpc-work/06Feb0927IP1/"
 Entering Link 1 = /usr/local/Cluster-Apps/gaussian/g09/l1.exe PID=    314174.
  
 Copyright (c) 1988,1990,1992,1993,1995,1998,2003,2009,2013,
            Gaussian, Inc.  All Rights Reserved.
  
 This is part of the Gaussian(R) 09 program.  It is based on
 the Gaussian(R) 03 system (copyright 2003, Gaussian, Inc.),
 the Gaussian(R) 98 system (copyright 1998, Gaussian, Inc.),
 the Gaussian(R) 94 system (copyright 1995, Gaussian, Inc.),
 the Gaussian 92(TM) system (copyright 1992, Gaussian, Inc.),
 the Gaussian 90(TM) system (copyright 1990, Gaussian, Inc.),
 the Gaussian 88(TM) system (copyright 1988, Gaussian, Inc.),
 the Gaussian 86(TM) system (copyright 1986, Carnegie Mellon
 University), and the Gaussian 82(TM) system (copyright 1983,
 Carnegie Mellon University). Gaussian is a federally registered
 trademark of Gaussian, Inc.
  
 This software contains proprietary and confidential information,
 including trade secrets, belonging to Gaussian, Inc.
  
 This software is provided under written license and may be
 used, copied, transmitted, or stored only in accord with that
 written license.
  
 The following legend is applicable only to US Government
 contracts under FAR:
  
                    RESTRICTED RIGHTS LEGEND
  
 Use, reproduction and disclosure by the US Government is
 subject to restrictions as set forth in subparagraphs (a)
 and (c) of the Commercial Computer Software - Restricted
 Rights clause in FAR 52.227-19.
  
 Gaussian, Inc.
 340 Quinnipiac St., Bldg. 40, Wallingford CT 06492
  
  
 ---------------------------------------------------------------
 Warning -- This program may not be used in any manner that
 competes with the business of Gaussian, Inc. or will provide
 assistance to any competitor of Gaussian, Inc.  The licensee
 of this program is prohibited from giving any competitor of
 Gaussian, Inc. access to this program.  By using this program,
 the user acknowledges that Gaussian, Inc. is engaged in the
 business of creating and licensing software in the field of
 computational chemistry and represents and warrants to the
 licensee that it is not a competitor of Gaussian, Inc. and that
 it will not use this program in any manner prohibited above.
 ---------------------------------------------------------------
  

 Cite this work as:
 Gaussian 09, Revision D.01,
 M. J. Frisch, G. W. Trucks, H. B. Schlegel, G. E. Scuseria, 
 M. A. Robb, J. R. Cheeseman, G. Scalmani, V. Barone, B. Mennucci, 
 G. A. Petersson, H. Nakatsuji, M. Caricato, X. Li, H. P. Hratchian, 
 A. F. Izmaylov, J. Bloino, G. Zheng, J. L. Sonnenberg, M. Hada, 
 M. Ehara, K. Toyota, R. Fukuda, J. Hasegawa, M. Ishida, T. Nakajima, 
 Y. Honda, O. Kitao, H. Nakai, T. Vreven, J. A. Montgomery, Jr., 
 J. E. Peralta, F. Ogliaro, M. Bearpark, J. J. Heyd, E. Brothers, 
 K. N. Kudin, V. N. Staroverov, T. Keith, R. Kobayashi, J. Normand, 
 K. Raghavachari, A. Rendell, J. C. Burant, S. S. Iyengar, J. Tomasi, 
 M. Cossi, N. Rega, J. M. Millam, M. Klene, J. E. Knox, J. B. Cross, 
 V. Bakken, C. Adamo, J. Jaramillo, R. Gomperts, R. E. Stratmann, 
 O. Yazyev, A. J. Austin, R. Cammi, C. Pomelli, J. W. Ochterski, 
 R. L. Martin, K. Morokuma, V. G. Zakrzewski, G. A. Voth, 
 P. Salvador, J. J. Dannenberg, S. Dapprich, A. D. Daniels, 
 O. Farkas, J. B. Foresman, J. V. Ortiz, J. Cioslowski, 
 and D. J. Fox, Gaussian, Inc., Wallingford CT, 2013.
 
 ******************************************
 Gaussian 09:  ES64L-G09RevD.01 24-Apr-2013
                 6-Feb-2019 
 ******************************************
 %nprocshared=2
 Will use up to    2 processors via shared memory.
 %mem=6000MB
 %chk=/home/ke291/rds/hpc-work/06Feb0927IP1/P_ng_3ginp004.chk
 ---------------------------------------------------------------
 # b3lyp/6-31g(d,p) Opt=(maxcycles=25) scrf=(solvent=chloroform)
 ---------------------------------------------------------------
 1/6=25,14=-1,18=20,19=15,26=3,38=1/1,3;
 2/9=110,12=2,17=6,18=5,40=1/2;
 3/5=1,6=6,7=101,11=2,16=1,25=1,30=1,70=2201,71=1,72=7,74=-5/1,2,3;
 4//1;
 5/5=2,38=5,53=7/2;
 6/7=2,8=2,9=2,10=2,28=1/1;
 7//1,2,3,16;
 1/6=25,14=-1,18=20,19=15,26=3/3(2);
 2/9=110/2;
 99//99;
 2/9=110/2;
 3/5=1,6=6,7=101,11=2,16=1,25=1,30=1,70=2205,71=1,72=7,74=-5/1,2,3;
 4/5=5,16=3,69=1/1;
 5/5=2,38=5,53=7/2;
 7//1,2,3,16;
 1/6=25,14=-1,18=20,19=15,26=3/3(-5);
 2/9=110/2;
 6/7=2,8=2,9=2,10=2,19=2,28=1/1;
 99/9=1/99;
 -------------
 P_ng_3ginp004
 -------------
 Symbolic Z-matrix:
 Charge =  0 Multiplicity = 1
 C                    -0.11203   0.56619  -0.15836 
 C                    -1.52205   0.201     0.31955 
 C                    -1.82437   0.9694    1.64971 
 C                    -1.6837    2.46924   1.35953 
 C                    -0.4695    2.87119   0.56506 
 H                     0.63184   0.26655   0.58752 
 H                    -1.57528  -0.87629   0.51934 
 H                    -2.56343   2.8471    0.82481 
 H                    -1.62857   3.02318   2.30269 
 O                     0.03396   1.99169  -0.32418 
 O                    -0.01227   4.00826   0.64796 
 C                     0.3306   -0.07707  -1.48237 
 C                     0.3346   -1.59672  -1.45302 
 C                    -2.58504   0.46729  -0.76887 
 O                    -3.18954   0.61752   1.96945 
 Si                   -4.13998   1.09341   3.26085 
 C                    -3.95515  -0.09648   4.70903 
 C                    -3.81439   2.82835   3.88763 
 C                    -5.9537    1.03039   2.7219 
 H                    -4.52996   3.08774   4.67417 
 H                    -2.81039   2.91428   4.31232 
 H                    -3.92061   3.56294   3.08427 
 H                    -6.21726   0.0207    2.3941 
 H                    -6.60915   1.31011   3.55167 
 H                    -6.12641   1.72189   1.89218 
 H                    -4.68023   0.1417    5.49299 
 H                    -4.12777  -1.12624   4.38293 
 H                    -2.95358  -0.0333    5.1427 
 H                    -3.59609   0.25761  -0.40629 
 H                    -2.56113   1.50076  -1.12721 
 H                    -2.42948  -0.1854   -1.63372 
 H                     1.34555   0.27222  -1.71433 
 H                    -0.28554   0.28366  -2.31422 
 H                     0.75314  -1.9889   -2.38547 
 H                     0.94465  -1.9713   -0.62498 
 H                    -0.67613  -2.00115  -1.34858 
 C                    -0.84211   0.56321   2.80296 
 C                    -0.73041  -0.92043   3.04608 
 C                     0.42529  -1.59675   3.06085 
 H                    -1.16746   1.0189    3.74516 
 H                     0.15438   0.98139   2.61432 
 H                    -1.65681  -1.46363   3.22419 
 H                     0.43779  -2.66706   3.24644 
 H                     1.38124  -1.10826   2.89875 
 

 GradGradGradGradGradGradGradGradGradGradGradGradGradGradGradGradGradGrad
 Berny optimization.
 Initialization pass.
                           ----------------------------
                           !    Initial Parameters    !
                           ! (Angstroms and Degrees)  !
 --------------------------                            --------------------------
 ! Name  Definition              Value          Derivative Info.                !
 --------------------------------------------------------------------------------
 ! R1    R(1,2)                  1.5329         estimate D2E/DX2                !
 ! R2    R(1,6)                  1.0952         estimate D2E/DX2                !
 ! R3    R(1,10)                 1.4425         estimate D2E/DX2                !
 ! R4    R(1,12)                 1.5371         estimate D2E/DX2                !
 ! R5    R(2,3)                  1.5656         estimate D2E/DX2                !
 ! R6    R(2,7)                  1.0969         estimate D2E/DX2                !
 ! R7    R(2,14)                 1.5445         estimate D2E/DX2                !
 ! R8    R(3,4)                  1.5341         estimate D2E/DX2                !
 ! R9    R(3,15)                 1.4456         estimate D2E/DX2                !
 ! R10   R(3,37)                 1.5684         estimate D2E/DX2                !
 ! R11   R(4,5)                  1.5057         estimate D2E/DX2                !
 ! R12   R(4,8)                  1.0966         estimate D2E/DX2                !
 ! R13   R(4,9)                  1.0952         estimate D2E/DX2                !
 ! R14   R(5,10)                 1.3482         estimate D2E/DX2                !
 ! R15   R(5,11)                 1.2284         estimate D2E/DX2                !
 ! R16   R(12,13)                1.5199         estimate D2E/DX2                !
 ! R17   R(12,32)                1.0981         estimate D2E/DX2                !
 ! R18   R(12,33)                1.0962         estimate D2E/DX2                !
 ! R19   R(13,34)                1.0947         estimate D2E/DX2                !
 ! R20   R(13,35)                1.0946         estimate D2E/DX2                !
 ! R21   R(13,36)                1.0936         estimate D2E/DX2                !
 ! R22   R(14,29)                1.0944         estimate D2E/DX2                !
 ! R23   R(14,30)                1.0941         estimate D2E/DX2                !
 ! R24   R(14,31)                1.0946         estimate D2E/DX2                !
 ! R25   R(15,16)                1.6726         estimate D2E/DX2                !
 ! R26   R(16,17)                1.8834         estimate D2E/DX2                !
 ! R27   R(16,18)                1.8732         estimate D2E/DX2                !
 ! R28   R(16,19)                1.8931         estimate D2E/DX2                !
 ! R29   R(17,26)                1.0941         estimate D2E/DX2                !
 ! R30   R(17,27)                1.0939         estimate D2E/DX2                !
 ! R31   R(17,28)                1.0933         estimate D2E/DX2                !
 ! R32   R(18,20)                1.0945         estimate D2E/DX2                !
 ! R33   R(18,21)                1.0935         estimate D2E/DX2                !
 ! R34   R(18,22)                1.0938         estimate D2E/DX2                !
 ! R35   R(19,23)                1.0938         estimate D2E/DX2                !
 ! R36   R(19,24)                1.0938         estimate D2E/DX2                !
 ! R37   R(19,25)                1.0938         estimate D2E/DX2                !
 ! R38   R(37,38)                1.5076         estimate D2E/DX2                !
 ! R39   R(37,40)                1.096          estimate D2E/DX2                !
 ! R40   R(37,41)                1.097          estimate D2E/DX2                !
 ! R41   R(38,39)                1.3391         estimate D2E/DX2                !
 ! R42   R(38,42)                1.0886         estimate D2E/DX2                !
 ! R43   R(39,43)                1.0864         estimate D2E/DX2                !
 ! R44   R(39,44)                1.0857         estimate D2E/DX2                !
 ! A1    A(2,1,6)              110.3189         estimate D2E/DX2                !
 ! A2    A(2,1,10)             111.3673         estimate D2E/DX2                !
 ! A3    A(2,1,12)             115.703          estimate D2E/DX2                !
 ! A4    A(6,1,10)             106.2554         estimate D2E/DX2                !
 ! A5    A(6,1,12)             106.0543         estimate D2E/DX2                !
 ! A6    A(10,1,12)            106.5822         estimate D2E/DX2                !
 ! A7    A(1,2,3)              108.9997         estimate D2E/DX2                !
 ! A8    A(1,2,7)              109.5951         estimate D2E/DX2                !
 ! A9    A(1,2,14)             111.8563         estimate D2E/DX2                !
 ! A10   A(3,2,7)              108.5351         estimate D2E/DX2                !
 ! A11   A(3,2,14)             112.4081         estimate D2E/DX2                !
 ! A12   A(7,2,14)             105.3243         estimate D2E/DX2                !
 ! A13   A(2,3,4)              107.5426         estimate D2E/DX2                !
 ! A14   A(2,3,15)             104.5252         estimate D2E/DX2                !
 ! A15   A(2,3,37)             112.128          estimate D2E/DX2                !
 ! A16   A(4,3,15)             111.4946         estimate D2E/DX2                !
 ! A17   A(4,3,37)             109.564          estimate D2E/DX2                !
 ! A18   A(15,3,37)            111.455          estimate D2E/DX2                !
 ! A19   A(3,4,5)              115.7694         estimate D2E/DX2                !
 ! A20   A(3,4,8)              110.8259         estimate D2E/DX2                !
 ! A21   A(3,4,9)              109.6461         estimate D2E/DX2                !
 ! A22   A(5,4,8)              107.3166         estimate D2E/DX2                !
 ! A23   A(5,4,9)              106.1878         estimate D2E/DX2                !
 ! A24   A(8,4,9)              106.6196         estimate D2E/DX2                !
 ! A25   A(4,5,10)             118.3596         estimate D2E/DX2                !
 ! A26   A(4,5,11)             120.7759         estimate D2E/DX2                !
 ! A27   A(10,5,11)            120.622          estimate D2E/DX2                !
 ! A28   A(1,10,5)             122.0749         estimate D2E/DX2                !
 ! A29   A(1,12,13)            113.7369         estimate D2E/DX2                !
 ! A30   A(1,12,32)            108.36           estimate D2E/DX2                !
 ! A31   A(1,12,33)            110.7369         estimate D2E/DX2                !
 ! A32   A(13,12,32)           108.6416         estimate D2E/DX2                !
 ! A33   A(13,12,33)           110.1894         estimate D2E/DX2                !
 ! A34   A(32,12,33)           104.7447         estimate D2E/DX2                !
 ! A35   A(12,13,34)           110.0437         estimate D2E/DX2                !
 ! A36   A(12,13,35)           110.9906         estimate D2E/DX2                !
 ! A37   A(12,13,36)           111.6628         estimate D2E/DX2                !
 ! A38   A(34,13,35)           107.9792         estimate D2E/DX2                !
 ! A39   A(34,13,36)           107.5896         estimate D2E/DX2                !
 ! A40   A(35,13,36)           108.4387         estimate D2E/DX2                !
 ! A41   A(2,14,29)            111.6743         estimate D2E/DX2                !
 ! A42   A(2,14,30)            112.2488         estimate D2E/DX2                !
 ! A43   A(2,14,31)            110.8656         estimate D2E/DX2                !
 ! A44   A(29,14,30)           108.0398         estimate D2E/DX2                !
 ! A45   A(29,14,31)           106.1894         estimate D2E/DX2                !
 ! A46   A(30,14,31)           107.5388         estimate D2E/DX2                !
 ! A47   A(3,15,16)            129.654          estimate D2E/DX2                !
 ! A48   A(15,16,17)           110.9872         estimate D2E/DX2                !
 ! A49   A(15,16,18)           115.0304         estimate D2E/DX2                !
 ! A50   A(15,16,19)           108.3687         estimate D2E/DX2                !
 ! A51   A(17,16,18)           108.1076         estimate D2E/DX2                !
 ! A52   A(17,16,19)           106.9709         estimate D2E/DX2                !
 ! A53   A(18,16,19)           107.0144         estimate D2E/DX2                !
 ! A54   A(16,17,26)           110.3885         estimate D2E/DX2                !
 ! A55   A(16,17,27)           110.4894         estimate D2E/DX2                !
 ! A56   A(16,17,28)           111.0028         estimate D2E/DX2                !
 ! A57   A(26,17,27)           108.2982         estimate D2E/DX2                !
 ! A58   A(26,17,28)           108.0787         estimate D2E/DX2                !
 ! A59   A(27,17,28)           108.4955         estimate D2E/DX2                !
 ! A60   A(16,18,20)           110.262          estimate D2E/DX2                !
 ! A61   A(16,18,21)           111.2434         estimate D2E/DX2                !
 ! A62   A(16,18,22)           111.0642         estimate D2E/DX2                !
 ! A63   A(20,18,21)           107.6101         estimate D2E/DX2                !
 ! A64   A(20,18,22)           107.7677         estimate D2E/DX2                !
 ! A65   A(21,18,22)           108.7625         estimate D2E/DX2                !
 ! A66   A(16,19,23)           110.2973         estimate D2E/DX2                !
 ! A67   A(16,19,24)           110.4646         estimate D2E/DX2                !
 ! A68   A(16,19,25)           110.2532         estimate D2E/DX2                !
 ! A69   A(23,19,24)           108.6044         estimate D2E/DX2                !
 ! A70   A(23,19,25)           108.5544         estimate D2E/DX2                !
 ! A71   A(24,19,25)           108.6121         estimate D2E/DX2                !
 ! A72   A(3,37,38)            114.826          estimate D2E/DX2                !
 ! A73   A(3,37,40)            109.7869         estimate D2E/DX2                !
 ! A74   A(3,37,41)            110.1046         estimate D2E/DX2                !
 ! A75   A(38,37,40)           107.0094         estimate D2E/DX2                !
 ! A76   A(38,37,41)           109.6076         estimate D2E/DX2                !
 ! A77   A(40,37,41)           105.0092         estimate D2E/DX2                !
 ! A78   A(37,38,39)           124.246          estimate D2E/DX2                !
 ! A79   A(37,38,42)           117.0266         estimate D2E/DX2                !
 ! A80   A(39,38,42)           118.7268         estimate D2E/DX2                !
 ! A81   A(38,39,43)           120.6235         estimate D2E/DX2                !
 ! A82   A(38,39,44)           122.0734         estimate D2E/DX2                !
 ! A83   A(43,39,44)           117.3011         estimate D2E/DX2                !
 ! D1    D(6,1,2,3)             61.2683         estimate D2E/DX2                !
 ! D2    D(6,1,2,7)            -57.3808         estimate D2E/DX2                !
 ! D3    D(6,1,2,14)          -173.807          estimate D2E/DX2                !
 ! D4    D(10,1,2,3)           -56.4675         estimate D2E/DX2                !
 ! D5    D(10,1,2,7)          -175.1165         estimate D2E/DX2                !
 ! D6    D(10,1,2,14)           68.4573         estimate D2E/DX2                !
 ! D7    D(12,1,2,3)          -178.3664         estimate D2E/DX2                !
 ! D8    D(12,1,2,7)            62.9846         estimate D2E/DX2                !
 ! D9    D(12,1,2,14)          -53.4416         estimate D2E/DX2                !
 ! D10   D(2,1,10,5)            41.9194         estimate D2E/DX2                !
 ! D11   D(6,1,10,5)           -78.2447         estimate D2E/DX2                !
 ! D12   D(12,1,10,5)          168.9633         estimate D2E/DX2                !
 ! D13   D(2,1,12,13)          -59.6826         estimate D2E/DX2                !
 ! D14   D(2,1,12,32)          179.3964         estimate D2E/DX2                !
 ! D15   D(2,1,12,33)           65.0413         estimate D2E/DX2                !
 ! D16   D(6,1,12,13)           62.969          estimate D2E/DX2                !
 ! D17   D(6,1,12,32)          -57.952          estimate D2E/DX2                !
 ! D18   D(6,1,12,33)         -172.3071         estimate D2E/DX2                !
 ! D19   D(10,1,12,13)         175.8992         estimate D2E/DX2                !
 ! D20   D(10,1,12,32)          54.9782         estimate D2E/DX2                !
 ! D21   D(10,1,12,33)         -59.3769         estimate D2E/DX2                !
 ! D22   D(1,2,3,4)             58.2539         estimate D2E/DX2                !
 ! D23   D(1,2,3,15)           176.8659         estimate D2E/DX2                !
 ! D24   D(1,2,3,37)           -62.254          estimate D2E/DX2                !
 ! D25   D(7,2,3,4)            177.5644         estimate D2E/DX2                !
 ! D26   D(7,2,3,15)           -63.8236         estimate D2E/DX2                !
 ! D27   D(7,2,3,37)            57.0565         estimate D2E/DX2                !
 ! D28   D(14,2,3,4)           -66.3475         estimate D2E/DX2                !
 ! D29   D(14,2,3,15)           52.2645         estimate D2E/DX2                !
 ! D30   D(14,2,3,37)          173.1446         estimate D2E/DX2                !
 ! D31   D(1,2,14,29)         -176.876          estimate D2E/DX2                !
 ! D32   D(1,2,14,30)          -55.3675         estimate D2E/DX2                !
 ! D33   D(1,2,14,31)           64.9226         estimate D2E/DX2                !
 ! D34   D(3,2,14,29)          -53.8638         estimate D2E/DX2                !
 ! D35   D(3,2,14,30)           67.6448         estimate D2E/DX2                !
 ! D36   D(3,2,14,31)         -172.0652         estimate D2E/DX2                !
 ! D37   D(7,2,14,29)           64.139          estimate D2E/DX2                !
 ! D38   D(7,2,14,30)         -174.3524         estimate D2E/DX2                !
 ! D39   D(7,2,14,31)          -54.0624         estimate D2E/DX2                !
 ! D40   D(2,3,4,5)            -45.2951         estimate D2E/DX2                !
 ! D41   D(2,3,4,8)             77.2021         estimate D2E/DX2                !
 ! D42   D(2,3,4,9)           -165.3646         estimate D2E/DX2                !
 ! D43   D(15,3,4,5)          -159.3234         estimate D2E/DX2                !
 ! D44   D(15,3,4,8)           -36.8261         estimate D2E/DX2                !
 ! D45   D(15,3,4,9)            80.6072         estimate D2E/DX2                !
 ! D46   D(37,3,4,5)            76.8181         estimate D2E/DX2                !
 ! D47   D(37,3,4,8)          -160.6846         estimate D2E/DX2                !
 ! D48   D(37,3,4,9)           -43.2513         estimate D2E/DX2                !
 ! D49   D(2,3,15,16)         -179.9089         estimate D2E/DX2                !
 ! D50   D(4,3,15,16)          -64.0174         estimate D2E/DX2                !
 ! D51   D(37,3,15,16)          58.765          estimate D2E/DX2                !
 ! D52   D(2,3,37,38)          -51.9272         estimate D2E/DX2                !
 ! D53   D(2,3,37,40)         -172.5225         estimate D2E/DX2                !
 ! D54   D(2,3,37,41)           72.3414         estimate D2E/DX2                !
 ! D55   D(4,3,37,38)         -171.2561         estimate D2E/DX2                !
 ! D56   D(4,3,37,40)           68.1485         estimate D2E/DX2                !
 ! D57   D(4,3,37,41)          -46.9875         estimate D2E/DX2                !
 ! D58   D(15,3,37,38)          64.8622         estimate D2E/DX2                !
 ! D59   D(15,3,37,40)         -55.7332         estimate D2E/DX2                !
 ! D60   D(15,3,37,41)        -170.8692         estimate D2E/DX2                !
 ! D61   D(3,4,5,10)            30.1492         estimate D2E/DX2                !
 ! D62   D(3,4,5,11)          -155.4732         estimate D2E/DX2                !
 ! D63   D(8,4,5,10)           -94.1873         estimate D2E/DX2                !
 ! D64   D(8,4,5,11)            80.1904         estimate D2E/DX2                !
 ! D65   D(9,4,5,10)           152.0799         estimate D2E/DX2                !
 ! D66   D(9,4,5,11)           -33.5425         estimate D2E/DX2                !
 ! D67   D(4,5,10,1)           -28.0098         estimate D2E/DX2                !
 ! D68   D(11,5,10,1)          157.6036         estimate D2E/DX2                !
 ! D69   D(1,12,13,34)        -174.3106         estimate D2E/DX2                !
 ! D70   D(1,12,13,35)         -54.8448         estimate D2E/DX2                !
 ! D71   D(1,12,13,36)          66.2805         estimate D2E/DX2                !
 ! D72   D(32,12,13,34)        -53.5474         estimate D2E/DX2                !
 ! D73   D(32,12,13,35)         65.9185         estimate D2E/DX2                !
 ! D74   D(32,12,13,36)       -172.9562         estimate D2E/DX2                !
 ! D75   D(33,12,13,34)         60.6723         estimate D2E/DX2                !
 ! D76   D(33,12,13,35)       -179.8618         estimate D2E/DX2                !
 ! D77   D(33,12,13,36)        -58.7365         estimate D2E/DX2                !
 ! D78   D(3,15,16,17)         -90.2085         estimate D2E/DX2                !
 ! D79   D(3,15,16,18)          32.9199         estimate D2E/DX2                !
 ! D80   D(3,15,16,19)         152.6115         estimate D2E/DX2                !
 ! D81   D(15,16,17,26)       -172.1581         estimate D2E/DX2                !
 ! D82   D(15,16,17,27)        -52.3927         estimate D2E/DX2                !
 ! D83   D(15,16,17,28)         68.0194         estimate D2E/DX2                !
 ! D84   D(18,16,17,26)         60.8133         estimate D2E/DX2                !
 ! D85   D(18,16,17,27)       -179.4213         estimate D2E/DX2                !
 ! D86   D(18,16,17,28)        -59.0092         estimate D2E/DX2                !
 ! D87   D(19,16,17,26)        -54.1267         estimate D2E/DX2                !
 ! D88   D(19,16,17,27)         65.6388         estimate D2E/DX2                !
 ! D89   D(19,16,17,28)       -173.9491         estimate D2E/DX2                !
 ! D90   D(15,16,18,20)        175.3848         estimate D2E/DX2                !
 ! D91   D(15,16,18,21)        -65.3067         estimate D2E/DX2                !
 ! D92   D(15,16,18,22)         55.9942         estimate D2E/DX2                !
 ! D93   D(17,16,18,20)        -59.9644         estimate D2E/DX2                !
 ! D94   D(17,16,18,21)         59.3441         estimate D2E/DX2                !
 ! D95   D(17,16,18,22)       -179.355          estimate D2E/DX2                !
 ! D96   D(19,16,18,20)         54.9469         estimate D2E/DX2                !
 ! D97   D(19,16,18,21)        174.2554         estimate D2E/DX2                !
 ! D98   D(19,16,18,22)        -64.4437         estimate D2E/DX2                !
 ! D99   D(15,16,19,23)         58.3983         estimate D2E/DX2                !
 ! D100  D(15,16,19,24)        178.4704         estimate D2E/DX2                !
 ! D101  D(15,16,19,25)        -61.4762         estimate D2E/DX2                !
 ! D102  D(17,16,19,23)        -61.3311         estimate D2E/DX2                !
 ! D103  D(17,16,19,24)         58.7411         estimate D2E/DX2                !
 ! D104  D(17,16,19,25)        178.7945         estimate D2E/DX2                !
 ! D105  D(18,16,19,23)       -177.0028         estimate D2E/DX2                !
 ! D106  D(18,16,19,24)        -56.9306         estimate D2E/DX2                !
 ! D107  D(18,16,19,25)         63.1228         estimate D2E/DX2                !
 ! D108  D(3,37,38,39)         126.2042         estimate D2E/DX2                !
 ! D109  D(3,37,38,42)         -54.0859         estimate D2E/DX2                !
 ! D110  D(40,37,38,39)       -111.684          estimate D2E/DX2                !
 ! D111  D(40,37,38,42)         68.0259         estimate D2E/DX2                !
 ! D112  D(41,37,38,39)          1.6735         estimate D2E/DX2                !
 ! D113  D(41,37,38,42)       -178.6167         estimate D2E/DX2                !
 ! D114  D(37,38,39,43)        179.7422         estimate D2E/DX2                !
 ! D115  D(37,38,39,44)          0.2606         estimate D2E/DX2                !
 ! D116  D(42,38,39,43)          0.037          estimate D2E/DX2                !
 ! D117  D(42,38,39,44)       -179.4447         estimate D2E/DX2                !
 --------------------------------------------------------------------------------
 Trust Radius=3.00D-01 FncErr=1.00D-07 GrdErr=1.00D-06
 Number of steps in this run=     25 maximum allowed number of steps=    264.
 GradGradGradGradGradGradGradGradGradGradGradGradGradGradGradGradGradGrad

                          Input orientation:                          
 ---------------------------------------------------------------------
 Center     Atomic      Atomic             Coordinates (Angstroms)
 Number     Number       Type             X           Y           Z
 ---------------------------------------------------------------------
      1          6           0       -0.112027    0.566194   -0.158359
      2          6           0       -1.522052    0.200998    0.319546
      3          6           0       -1.824374    0.969399    1.649711
      4          6           0       -1.683696    2.469236    1.359527
      5          6           0       -0.469496    2.871187    0.565060
      6          1           0        0.631841    0.266554    0.587521
      7          1           0       -1.575275   -0.876287    0.519339
      8          1           0       -2.563427    2.847095    0.824811
      9          1           0       -1.628565    3.023176    2.302693
     10          8           0        0.033958    1.991689   -0.324183
     11          8           0       -0.012270    4.008255    0.647960
     12          6           0        0.330596   -0.077066   -1.482365
     13          6           0        0.334599   -1.596721   -1.453020
     14          6           0       -2.585036    0.467291   -0.768866
     15          8           0       -3.189541    0.617518    1.969447
     16         14           0       -4.139982    1.093408    3.260848
     17          6           0       -3.955150   -0.096476    4.709027
     18          6           0       -3.814387    2.828346    3.887625
     19          6           0       -5.953701    1.030387    2.721900
     20          1           0       -4.529964    3.087740    4.674175
     21          1           0       -2.810389    2.914284    4.312322
     22          1           0       -3.920608    3.562943    3.084272
     23          1           0       -6.217256    0.020695    2.394099
     24          1           0       -6.609153    1.310110    3.551666
     25          1           0       -6.126405    1.721887    1.892183
     26          1           0       -4.680225    0.141703    5.492988
     27          1           0       -4.127774   -1.126235    4.382927
     28          1           0       -2.953577   -0.033303    5.142699
     29          1           0       -3.596094    0.257611   -0.406288
     30          1           0       -2.561132    1.500757   -1.127206
     31          1           0       -2.429483   -0.185397   -1.633724
     32          1           0        1.345546    0.272215   -1.714333
     33          1           0       -0.285538    0.283656   -2.314220
     34          1           0        0.753138   -1.988902   -2.385471
     35          1           0        0.944649   -1.971295   -0.624982
     36          1           0       -0.676125   -2.001151   -1.348580
     37          6           0       -0.842110    0.563205    2.802957
     38          6           0       -0.730408   -0.920434    3.046079
     39          6           0        0.425293   -1.596748    3.060849
     40          1           0       -1.167463    1.018895    3.745159
     41          1           0        0.154379    0.981392    2.614324
     42          1           0       -1.656814   -1.463631    3.224195
     43          1           0        0.437791   -2.667062    3.246442
     44          1           0        1.381235   -1.108260    2.898748
 ---------------------------------------------------------------------
                    Distance matrix (angstroms):
                    1          2          3          4          5
     1  C    0.000000
     2  C    1.532949   0.000000
     3  C    2.522662   1.565624   0.000000
     4  C    2.897532   2.500519   1.534115   0.000000
     5  C    2.442153   2.880635   2.574677   1.505664   0.000000
     6  H    1.095199   2.171489   2.766809   3.287782   2.827996
     7  H    2.163590   1.096947   2.178611   3.451115   3.907480
     8  H    3.489770   2.888180   2.180000   1.096643   2.110118
     9  H    3.793867   3.450928   2.163961   1.095195   2.094256
    10  O    1.442514   2.458074   2.897366   2.452196   1.348234
    11  O    3.536649   4.108832   3.677210   2.380876   1.228353
    12  C    1.537105   2.599328   3.943207   4.314786   3.677539
    13  C    2.560044   3.133837   4.568706   5.340032   4.968040
    14  C    2.549171   1.544502   2.584615   3.057819   3.468946
    15  O    3.741829   2.382474   1.445591   2.463419   3.801312
    16  Si   5.309741   4.037476   2.823682   3.397244   4.888787
    17  C    6.237000   5.027524   3.877591   4.791819   6.174890
    18  C    5.932520   4.988882   3.524783   3.325670   4.714824
    19  C    6.529665   5.108689   4.266691   4.707365   6.173897
    20  H    7.016391   6.028566   4.577660   4.412559   5.780927
    21  H    5.725528   4.996398   3.441555   3.191630   4.418553
    22  H    5.830990   4.969855   3.630239   3.028979   4.328410
    23  H    6.639761   5.136265   4.555389   5.255365   6.671389
    24  H    7.518666   6.128240   5.160196   5.514451   7.003725
    25  H    6.458567   5.097682   4.374072   4.536509   5.923071
    26  H    7.279172   6.061524   4.859192   5.610891   7.033121
    27  H    6.293951   5.006236   4.143405   5.295458   6.628611
    28  H    6.044420   5.036563   3.805453   4.710381   5.963346
    29  H    3.506482   2.198111   2.805845   3.415648   4.189261
    30  H    2.794671   2.205029   2.921716   2.809215   3.019401
    31  H    2.848191   2.188149   3.532797   4.069745   4.244868
    32  H    2.152208   3.516369   4.674532   4.842708   3.904442
    33  H    2.181208   2.910760   4.307088   4.497557   3.875488
    34  H    3.498150   4.158037   5.628304   6.311748   5.815577
    35  H    2.788037   3.419884   4.635666   5.528543   5.183207
    36  H    2.885497   2.889238   4.374059   5.322913   5.238739
    37  C    3.049987   2.600163   1.568379   2.534701   3.236326
    38  C    3.586207   3.052588   2.591925   3.904239   4.538713
    39  C    3.915397   3.812976   3.692888   4.886160   5.195388
    40  H    4.068948   3.539705   2.196562   2.839230   3.745821
    41  H    2.816227   2.947107   2.201383   2.677072   2.856576
    42  H    4.236535   3.350543   2.902880   4.352603   5.222200
    43  H    4.727464   4.542408   4.570644   5.868791   6.219741
    44  H    3.792035   4.098233   4.019041   4.955954   4.970644
                    6          7          8          9         10
     6  H    0.000000
     7  H    2.486382   0.000000
     8  H    4.114029   3.864367   0.000000
     9  H    3.956035   4.288240   1.757585   0.000000
    10  O    2.040774   3.395062   2.966195   3.275428   0.000000
    11  O    3.797217   5.130134   2.808553   2.514146   2.239138
    12  C    2.119729   2.877137   4.716900   5.270339   2.389378
    13  C    2.779200   2.838458   5.773610   6.269198   3.773771
    14  C    3.496910   2.117615   2.864217   4.108754   3.062787
    15  O    4.078708   2.634411   2.583258   2.887021   4.188082
    16  Si   5.531786   4.239492   3.390460   3.308970   5.575045
    17  C    6.177304   4.881126   5.068396   4.575551   6.753267
    18  C    6.101017   5.484823   3.308486   2.706988   5.766202
    19  C    6.964796   5.259020   4.288745   4.780559   6.786367
    20  H    7.162685   6.458046   4.329293   3.747828   6.856697
    21  H    5.721325   5.502786   3.496890   2.333918   5.517125
    22  H    6.150182   5.637928   2.731216   2.481063   5.452064
    23  H    7.087616   5.085990   4.878695   5.484463   7.095883
    24  H    7.893488   6.270189   5.115267   5.413020   7.721249
    25  H    7.035199   5.417379   3.885896   4.700259   6.552491
    26  H    7.231683   5.950983   5.795848   5.271954   7.712681
    27  H    6.244910   4.637352   5.558302   5.271720   7.014153
    28  H    5.804721   4.897530   5.205100   4.377597   6.550783
    29  H    4.343175   2.495239   3.047529   4.342591   4.023810
    30  H    3.828658   3.055055   2.371287   3.866736   2.760499
    31  H    3.809185   2.417164   3.906193   5.141186   3.538805
    32  H    2.409967   3.852213   5.325160   5.705227   2.570870
    33  H    3.043350   3.322340   4.649034   5.533948   2.641913
    34  H    3.733695   3.885530   6.685236   7.264456   4.539960
    35  H    2.564367   2.976328   6.133953   6.335413   4.077386
    36  H    3.256033   2.358582   5.638353   6.283534   4.182867
    37  C    2.677441   2.797245   3.477377   2.630634   3.547826
    38  C    3.051093   2.664613   4.742179   4.112343   4.519224
    39  C    3.103532   3.313700   5.803452   5.112419   4.948582
    40  H    3.711360   3.763501   3.717454   2.512064   4.353078
    41  H    2.201566   3.291145   3.750956   2.728532   3.109666
    42  H    3.896605   2.769091   5.016109   4.580546   5.233444
    43  H    3.964041   3.833588   6.728858   6.126932   5.883571
    44  H    2.791680   3.802151   5.958725   5.146158   4.670345
                   11         12         13         14         15
    11  O    0.000000
    12  C    4.620140   0.000000
    13  C    5.995848   1.519944   0.000000
    14  C    4.600538   3.050625   3.640396   0.000000
    15  O    4.830991   4.978837   5.388478   2.808265   0.000000
    16  Si   5.688719   6.622246   7.034147   4.364456   1.672581
    17  C    6.991951   7.530029   7.656599   5.674712   2.932788
    18  C    5.132612   7.379641   8.081942   5.363655   2.992925
    19  C    6.962006   7.641642   7.992144   4.883690   2.894344
    20  H    6.121055   8.458370   9.118699   6.346353   3.900549
    21  H    4.738543   7.238257   7.967389   5.644203   3.302719
    22  H    4.626989   7.223335   8.081828   5.119911   3.233082
    23  H    7.579676   7.609921   7.768086   4.837026   3.115058
    24  H    7.696126   8.684805   9.039482   5.964131   3.831037
    25  H    6.645165   7.504443   7.996757   4.603964   3.138594
    26  H    7.759789   8.591376   8.741716   6.611100   3.855370
    27  H    7.566395   7.441738   7.361549   5.608951   3.121833
    28  H    6.722214   7.394537   7.533916   5.944158   3.247888
    29  H    5.293634   4.085198   4.470407   1.094380   2.436993
    30  H    3.991924   3.313269   4.252738   1.094089   3.280895
    31  H    5.351235   2.766348   3.108800   1.094613   3.768979
    32  H    4.624077   1.098148   2.140846   4.047399   5.852904
    33  H    4.766741   1.096232   2.159179   2.776604   5.185991
    34  H    6.764129   2.156214   1.094735   4.448562   6.426776
    35  H    6.187980   2.168011   1.094584   4.292561   5.524902
    36  H    6.367090   2.175658   1.093634   3.173833   4.917722
    37  C    4.147411   4.488783   4.915614   3.975539   2.491610
    38  C    5.527990   4.726923   4.672633   4.463097   3.093827
    39  C    6.117970   4.791575   4.514780   5.290468   4.377346
    40  H    4.456836   5.547280   6.009884   4.763423   2.720856
    41  H    3.613345   4.234884   4.818966   4.383454   3.424919
    42  H    6.267619   5.293776   5.085251   4.531511   2.873121
    43  H    7.177362   5.392697   4.820915   5.923204   5.057343
    44  H    5.760784   4.621835   4.502436   5.627171   4.973319
                   16         17         18         19         20
    16  Si   0.000000
    17  C    1.883404   0.000000
    18  C    1.873198   3.041233   0.000000
    19  C    1.893149   3.035243   3.027909   0.000000
    20  H    2.475265   3.235870   1.094530   3.173501   0.000000
    21  H    2.487771   3.245386   1.093510   3.994862   1.765775
    22  H    2.485540   4.004044   1.093751   3.267816   1.767746
    23  H    2.493398   3.238787   3.985888   1.093797   4.177615
    24  H    2.495664   3.218960   3.198222   1.093789   2.956860
    25  H    2.492811   3.994421   3.248302   1.093814   3.486210
    26  H    2.485971   1.094101   3.247294   3.176544   3.061400
    27  H    2.487172   1.093866   3.997780   3.277810   4.243132
    28  H    2.493672   1.093257   3.241179   3.999056   3.527807
    29  H    3.800297   5.140112   5.009393   3.992625   5.890063
    30  H    4.681209   6.209352   5.336822   5.152319   6.328573
    31  H    5.340223   6.524267   6.440955   5.733211   7.410468
    32  H    7.451027   8.336238   8.033719   8.575196   9.124792
    33  H    6.825967   7.933256   7.575692   7.618936   8.643825
    34  H    8.082337   8.722451   9.133449   8.954498  10.174579
    35  H    7.095460   7.481619   8.127029   8.234012   9.145834
    36  H    6.543808   7.146635   7.783995   7.322011   8.776244
    37  C    3.371459   3.709353   3.891246   5.133536   4.845101
    38  C    3.965713   3.720654   4.926711   5.585122   5.757845
    39  C    5.302704   4.914833   6.183842   6.907119   7.007269
    40  H    3.012636   3.153457   3.209457   4.894412   4.055811
    41  H    4.344200   4.736856   4.558908   6.109224   5.533783
    42  H    3.564536   3.058789   4.849364   4.993562   5.574263
    43  H    5.924301   5.295753   6.977940   7.402530   7.735293
    44  H    5.955023   5.725192   6.593120   7.642406   7.463299
                   21         22         23         24         25
    21  H    0.000000
    22  H    1.778047   0.000000
    23  H    4.864070   4.277669   0.000000
    24  H    4.193159   3.538642   1.776552   0.000000
    25  H    4.274909   3.110644   1.776015   1.776651   0.000000
    26  H    3.546472   4.252507   3.461245   2.975680   4.189775
    27  H    4.250445   4.870094   3.104323   3.575474   4.279034
    28  H    3.065664   4.255027   4.267238   4.207063   4.869639
    29  H    5.471794   4.818147   3.843018   5.084455   3.718810
    30  H    5.625714   4.882349   5.287477   6.189884   4.677262
    31  H    6.716292   6.207495   5.532907   6.826013   5.453163
    32  H    7.782859   7.847795   8.610369   9.596104   8.422503
    33  H    7.563474   7.287741   7.577776   8.686215   7.340168
    34  H    9.033293   9.087627   8.687299  10.016806   8.910465
    35  H    7.895959   8.249672   8.023450   9.234280   8.365137
    36  H    7.795024   7.818951   6.985674   8.377212   7.353170
    37  C    3.417584   4.307519   5.417903   5.863209   5.485966
    38  C    4.542549   5.502682   5.605025   6.307978   6.118016
    39  C    5.690802   6.746096   6.869071   7.627198   7.436657
    40  H    2.571649   3.806410   5.321858   5.452911   5.340302
    41  H    3.925445   4.846728   6.447416   6.836083   6.365380
    42  H    4.656275   5.514598   4.867229   5.685643   5.647922
    43  H    6.545090   7.604926   7.227737   8.097560   8.011589
    44  H    5.979027   7.068529   7.698459   8.373835   8.086258
                   26         27         28         29         30
    26  H    0.000000
    27  H    1.773444   0.000000
    28  H    1.770492   1.774963   0.000000
    29  H    5.999186   5.013411   5.593632   0.000000
    30  H    7.082694   6.302144   6.466766   1.770955   0.000000
    31  H    7.480833   6.322140   6.798361   1.750382   1.765505
    32  H    9.395341   8.312008   8.099055   5.111849   4.137169
    33  H    8.960241   7.848716   7.926193   3.821082   2.840540
    34  H    9.804643   8.389202   8.616116   5.280133   4.974468
    35  H    8.575169   7.177935   7.226211   5.063022   4.959624
    36  H    8.211680   6.747557   7.155132   3.810005   3.983167
    37  C    4.705854   4.018221   3.207570   4.239937   4.390925
    38  C    4.766189   3.656722   3.182027   4.638834   5.160429
    39  C    5.916403   4.764419   4.265586   5.624166   6.004421
    40  H    4.020431   3.711034   2.500088   4.869529   5.090623
    41  H    5.689040   5.089880   4.132998   4.869703   4.652181
    42  H    4.106767   2.749934   2.721781   4.461377   5.342291
    43  H    6.255415   4.950771   4.694023   6.178056   6.744854
    44  H    6.710722   5.705461   4.998144   6.128839   6.209471
                   31         32         33         34         35
    31  H    0.000000
    32  H    3.803518   0.000000
    33  H    2.297735   1.737939   0.000000
    34  H    3.734546   2.431877   2.499689   0.000000
    35  H    3.948640   2.526013   3.074360   1.770962   0.000000
    36  H    2.540184   3.064167   2.511048   1.765810   1.775217
    37  C    4.771194   5.027566   5.154941   5.998154   4.622441
    38  C    5.032662   5.328557   5.511855   5.730992   4.169750
    39  C    5.672801   5.209823   5.738690   5.470253   3.741038
    40  H    5.654679   6.056302   6.167207   7.093671   5.700911
    41  H    5.107216   4.545226   4.997090   5.846290   4.453761
    42  H    5.082350   6.034599   5.967198   6.127979   4.673489
    43  H    6.180287   5.837179   6.336474   5.681354   3.965970
    44  H    5.993042   4.815340   5.647176   5.393793   3.654054
                   36         37         38         39         40
    36  H    0.000000
    37  C    4.882492   0.000000
    38  C    4.525917   1.507571   0.000000
    39  C    4.562864   2.517581   1.339128   0.000000
    40  H    5.942076   1.096017   2.107303   3.137952   0.000000
    41  H    5.028907   1.097020   2.141542   2.630510   1.739960
    42  H    4.707542   2.224691   1.088585   2.092743   2.583371
    43  H    4.774775   3.502778   2.110816   1.086358   4.051153
    44  H    4.803101   2.783206   2.125093   1.085690   3.425940
                   41         42         43         44
    41  H    0.000000
    42  H    3.103305   0.000000
    43  H    3.713639   2.415804   0.000000
    44  H    2.439819   3.076028   1.854951   0.000000
 Stoichiometry    C14H26O3Si
 Framework group  C1[X(C14H26O3Si)]
 Deg. of freedom   126
 Full point group                 C1      NOp   1
 Largest Abelian subgroup         C1      NOp   1
 Largest concise Abelian subgroup C1      NOp   1
                         Standard orientation:                         
 ---------------------------------------------------------------------
 Center     Atomic      Atomic             Coordinates (Angstroms)
 Number     Number       Type             X           Y           Z
 ---------------------------------------------------------------------
      1          6           0        2.440516   -0.073345    0.045828
      2          6           0        1.145557    0.260139    0.795362
      3          6           0       -0.076758   -0.090172   -0.118096
      4          6           0        0.019903   -1.580627   -0.468393
      5          6           0        1.382424   -2.068363   -0.883934
      6          1           0        2.514411    0.523155   -0.869699
      7          1           0        1.116588    1.333408    1.020190
      8          1           0       -0.305754   -2.201283    0.375028
      9          1           0       -0.652948   -1.807281   -1.302269
     10          8           0        2.466845   -1.454672   -0.369005
     11          8           0        1.504463   -3.065581   -1.590697
     12          6           0        3.743398    0.176431    0.822230
     13          6           0        3.930653    1.621565    1.254380
     14          6           0        1.076981   -0.446260    2.167143
     15          8           0       -1.233992    0.187072    0.702683
     16         14           0       -2.859883    0.028218    0.343837
     17          6           0       -3.546295    1.619108   -0.394483
     18          6           0       -3.281550   -1.381142   -0.815807
     19          6           0       -3.799464   -0.282356    1.957759
     20          1           0       -4.366676   -1.464508   -0.932205
     21          1           0       -2.853815   -1.218538   -1.808968
     22          1           0       -2.913460   -2.334485   -0.426016
     23          1           0       -3.632694    0.540906    2.658345
     24          1           0       -4.873050   -0.364852    1.765454
     25          1           0       -3.455861   -1.210586    2.423327
     26          1           0       -4.633692    1.553917   -0.496339
     27          1           0       -3.312162    2.472085    0.249066
     28          1           0       -3.123330    1.805709   -1.385186
     29          1           0        0.127953   -0.250308    2.675685
     30          1           0        1.197919   -1.530259    2.081397
     31          1           0        1.862603   -0.078489    2.834767
     32          1           0        4.588089   -0.110745    0.181951
     33          1           0        3.811938   -0.489875    1.690022
     34          1           0        4.917365    1.752014    1.710261
     35          1           0        3.862155    2.299096    0.397424
     36          1           0        3.182741    1.922042    1.993551
     37          6           0       -0.091687    0.759276   -1.436439
     38          6           0        0.024003    2.248341   -1.231325
     39          6           0        0.941408    3.021891   -1.825675
     40          1           0       -1.026083    0.582319   -1.981271
     41          1           0        0.701054    0.418271   -2.113736
     42          1           0       -0.694093    2.712094   -0.557317
     43          1           0        0.968682    4.091598   -1.638177
     44          1           0        1.677396    2.618079   -2.514137
 ---------------------------------------------------------------------
 Rotational constants (GHZ):      0.5148540      0.2617626      0.2324252
 Standard basis: 6-31G(d,p) (6D, 7F)
 There are   404 symmetry adapted cartesian basis functions of A   symmetry.
 There are   404 symmetry adapted basis functions of A   symmetry.
   404 basis functions,   710 primitive gaussians,   404 cartesian basis functions
    74 alpha electrons       74 beta electrons
       nuclear repulsion energy      1630.2948106101 Hartrees.
 NAtoms=   44 NActive=   44 NUniq=   44 SFac= 1.00D+00 NAtFMM=   60 NAOKFM=F Big=F
 Integral buffers will be    131072 words long.
 Raffenetti 2 integral format.
 Two-electron integral symmetry is turned on.
 ------------------------------------------------------------------------------
 Polarizable Continuum Model (PCM)
 =================================
 Model                : PCM (using non-symmetric T matrix).
 Atomic radii         : UFF (Universal Force Field).
 Polarization charges : Total charges.
 Charge compensation  : None.
 Solution method      : On-the-fly selection.
 Cavity type          : Scaled VdW (van der Waals Surface) (Alpha=1.100).
 Cavity algorithm     : GePol (No added spheres)
                        Default sphere list used, NSphG=   44.
                        Lebedev-Laikov grids with approx.  5.0 points / Ang**2.
                        Smoothing algorithm: Karplus/York (Gamma=1.0000).
                        Polarization charges: spherical gaussians, with
                                              point-specific exponents (IZeta= 3).
                        Self-potential: point-specific (ISelfS= 7).
                        Self-field    : sphere-specific E.n sum rule (ISelfD= 2).
 1st derivatives      : Analytical E(r).r(x)/FMM algorithm (CHGder, D1EAlg=3).
                        Cavity 1st derivative terms included.
 Solvent              : Chloroform, Eps=   4.711300 Eps(inf)=   2.090627
 ------------------------------------------------------------------------------
 One-electron integrals computed using PRISM.
 NBasis=   404 RedAO= T EigKep=  1.83D-03  NBF=   404
 NBsUse=   404 1.00D-06 EigRej= -1.00D+00 NBFU=   404
 ExpMin= 7.78D-02 ExpMax= 1.61D+04 ExpMxC= 2.43D+03 IAcc=2 IRadAn=         4 AccDes= 0.00D+00
 Harris functional with IExCor=  402 and IRadAn=       4 diagonalized for initial guess.
 HarFok:  IExCor=  402 AccDes= 0.00D+00 IRadAn=         4 IDoV= 1 UseB2=F ITyADJ=14
 ICtDFT=  3500011 ScaDFX=  1.000000  1.000000  1.000000  1.000000
 FoFCou: FMM=F IPFlag=           0 FMFlag=      100000 FMFlg1=           0
         NFxFlg=           0 DoJE=T BraDBF=F KetDBF=T FulRan=T
         wScrn=  0.000000 ICntrl=     500 IOpCl=  0 I1Cent=   200000004 NGrid=           0
         NMat0=    1 NMatS0=      1 NMatT0=    0 NMatD0=    1 NMtDS0=    0 NMtDT0=    0
 Petite list used in FoFCou.
 Requested convergence on RMS density matrix=1.00D-08 within 128 cycles.
 Requested convergence on MAX density matrix=1.00D-06.
 Requested convergence on             energy=1.00D-06.
 No special actions if energy rises.
 Inv3:  Mode=1 IEnd=    23772675.
 Iteration    1 A*A^-1 deviation from unit magnitude is 5.11D-15 for   2799.
 Iteration    1 A*A^-1 deviation from orthogonality  is 4.27D-15 for   2799   1671.
 Iteration    1 A^-1*A deviation from unit magnitude is 5.11D-15 for   2799.
 Iteration    1 A^-1*A deviation from orthogonality  is 8.82D-13 for   2808   2483.
 Error on total polarization charges =  0.00906
 SCF Done:  E(RB3LYP) =  -1064.41655232     A.U. after   13 cycles
            NFock= 13  Conv=0.50D-08     -V/T= 2.0081

 **********************************************************************

            Population analysis using the SCF density.

 **********************************************************************

 Orbital symmetries:
       Occupied  (A) (A) (A) (A) (A) (A) (A) (A) (A) (A) (A) (A)
                 (A) (A) (A) (A) (A) (A) (A) (A) (A) (A) (A) (A)
                 (A) (A) (A) (A) (A) (A) (A) (A) (A) (A) (A) (A)
                 (A) (A) (A) (A) (A) (A) (A) (A) (A) (A) (A) (A)
                 (A) (A) (A) (A) (A) (A) (A) (A) (A) (A) (A) (A)
                 (A) (A) (A) (A) (A) (A) (A) (A) (A) (A) (A) (A)
                 (A) (A)
       Virtual   (A) (A) (A) (A) (A) (A) (A) (A) (A) (A) (A) (A)
                 (A) (A) (A) (A) (A) (A) (A) (A) (A) (A) (A) (A)
                 (A) (A) (A) (A) (A) (A) (A) (A) (A) (A) (A) (A)
                 (A) (A) (A) (A) (A) (A) (A) (A) (A) (A) (A) (A)
                 (A) (A) (A) (A) (A) (A) (A) (A) (A) (A) (A) (A)
                 (A) (A) (A) (A) (A) (A) (A) (A) (A) (A) (A) (A)
                 (A) (A) (A) (A) (A) (A) (A) (A) (A) (A) (A) (A)
                 (A) (A) (A) (A) (A) (A) (A) (A) (A) (A) (A) (A)
                 (A) (A) (A) (A) (A) (A) (A) (A) (A) (A) (A) (A)
                 (A) (A) (A) (A) (A) (A) (A) (A) (A) (A) (A) (A)
                 (A) (A) (A) (A) (A) (A) (A) (A) (A) (A) (A) (A)
                 (A) (A) (A) (A) (A) (A) (A) (A) (A) (A) (A) (A)
                 (A) (A) (A) (A) (A) (A) (A) (A) (A) (A) (A) (A)
                 (A) (A) (A) (A) (A) (A) (A) (A) (A) (A) (A) (A)
                 (A) (A) (A) (A) (A) (A) (A) (A) (A) (A) (A) (A)
                 (A) (A) (A) (A) (A) (A) (A) (A) (A) (A) (A) (A)
                 (A) (A) (A) (A) (A) (A) (A) (A) (A) (A) (A) (A)
                 (A) (A) (A) (A) (A) (A) (A) (A) (A) (A) (A) (A)
                 (A) (A) (A) (A) (A) (A) (A) (A) (A) (A) (A) (A)
                 (A) (A) (A) (A) (A) (A) (A) (A) (A) (A) (A) (A)
                 (A) (A) (A) (A) (A) (A) (A) (A) (A) (A) (A) (A)
                 (A) (A) (A) (A) (A) (A) (A) (A) (A) (A) (A) (A)
                 (A) (A) (A) (A) (A) (A) (A) (A) (A) (A) (A) (A)
                 (A) (A) (A) (A) (A) (A) (A) (A) (A) (A) (A) (A)
                 (A) (A) (A) (A) (A) (A) (A) (A) (A) (A) (A) (A)
                 (A) (A) (A) (A) (A) (A) (A) (A) (A) (A) (A) (A)
                 (A) (A) (A) (A) (A) (A) (A) (A) (A) (A) (A) (A)
                 (A) (A) (A) (A) (A) (A)
 The electronic state is 1-A.
 Alpha  occ. eigenvalues --  -66.13978 -19.19176 -19.14462 -19.13445 -10.32270
 Alpha  occ. eigenvalues --  -10.26682 -10.25228 -10.20040 -10.19983 -10.19837
 Alpha  occ. eigenvalues --  -10.19567 -10.18801 -10.18433 -10.17955 -10.17536
 Alpha  occ. eigenvalues --  -10.16025 -10.15707 -10.15665  -5.28131  -3.64186
 Alpha  occ. eigenvalues --   -3.63955  -3.63922  -1.09911  -1.01370  -1.00711
 Alpha  occ. eigenvalues --   -0.82965  -0.80329  -0.78131  -0.74727  -0.71296
 Alpha  occ. eigenvalues --   -0.70827  -0.69249  -0.67734  -0.67331  -0.64516
 Alpha  occ. eigenvalues --   -0.60821  -0.59772  -0.56605  -0.52717  -0.50995
 Alpha  occ. eigenvalues --   -0.50754  -0.49252  -0.48914  -0.46022  -0.45262
 Alpha  occ. eigenvalues --   -0.44388  -0.43357  -0.43080  -0.42675  -0.41792
 Alpha  occ. eigenvalues --   -0.40974  -0.40813  -0.40062  -0.39668  -0.39043
 Alpha  occ. eigenvalues --   -0.38688  -0.38444  -0.37894  -0.37607  -0.37430
 Alpha  occ. eigenvalues --   -0.36710  -0.36206  -0.35644  -0.35168  -0.34788
 Alpha  occ. eigenvalues --   -0.33602  -0.32603  -0.31517  -0.30109  -0.29286
 Alpha  occ. eigenvalues --   -0.28572  -0.27686  -0.26476  -0.25633
 Alpha virt. eigenvalues --   -0.00445   0.00914   0.06351   0.07072   0.08455
 Alpha virt. eigenvalues --    0.09143   0.09321   0.10198   0.10704   0.12193
 Alpha virt. eigenvalues --    0.12766   0.13038   0.13770   0.14418   0.14539
 Alpha virt. eigenvalues --    0.14806   0.15621   0.15856   0.16398   0.16820
 Alpha virt. eigenvalues --    0.16992   0.17701   0.18243   0.18416   0.18754
 Alpha virt. eigenvalues --    0.19387   0.19677   0.20410   0.20526   0.20931
 Alpha virt. eigenvalues --    0.21067   0.21959   0.22519   0.23047   0.23942
 Alpha virt. eigenvalues --    0.24481   0.25448   0.26292   0.26877   0.28587
 Alpha virt. eigenvalues --    0.28626   0.30901   0.32079   0.35530   0.35800
 Alpha virt. eigenvalues --    0.37056   0.38180   0.39409   0.40767   0.42322
 Alpha virt. eigenvalues --    0.46020   0.47714   0.48509   0.50474   0.51262
 Alpha virt. eigenvalues --    0.51626   0.52565   0.53549   0.55042   0.55716
 Alpha virt. eigenvalues --    0.56913   0.57823   0.59228   0.59762   0.60740
 Alpha virt. eigenvalues --    0.62050   0.62474   0.63466   0.63986   0.65299
 Alpha virt. eigenvalues --    0.65630   0.66028   0.67311   0.67925   0.68545
 Alpha virt. eigenvalues --    0.69493   0.70452   0.70791   0.71402   0.71992
 Alpha virt. eigenvalues --    0.74729   0.75210   0.75700   0.75995   0.77933
 Alpha virt. eigenvalues --    0.79639   0.80558   0.81394   0.82572   0.82873
 Alpha virt. eigenvalues --    0.83845   0.84652   0.84776   0.85937   0.86957
 Alpha virt. eigenvalues --    0.87284   0.87342   0.87615   0.88479   0.89156
 Alpha virt. eigenvalues --    0.89557   0.90174   0.90576   0.91634   0.91743
 Alpha virt. eigenvalues --    0.91839   0.92800   0.93154   0.94551   0.94930
 Alpha virt. eigenvalues --    0.95275   0.95553   0.95866   0.96380   0.96598
 Alpha virt. eigenvalues --    0.97757   0.99659   0.99819   1.00281   1.00834
 Alpha virt. eigenvalues --    1.02166   1.03459   1.04012   1.05657   1.08100
 Alpha virt. eigenvalues --    1.09269   1.09881   1.12272   1.12667   1.16998
 Alpha virt. eigenvalues --    1.17597   1.20281   1.21361   1.25108   1.27403
 Alpha virt. eigenvalues --    1.28562   1.29811   1.30526   1.31482   1.32615
 Alpha virt. eigenvalues --    1.33992   1.37413   1.38619   1.41357   1.42449
 Alpha virt. eigenvalues --    1.43821   1.45014   1.45846   1.46884   1.48280
 Alpha virt. eigenvalues --    1.49391   1.52125   1.52636   1.54725   1.55372
 Alpha virt. eigenvalues --    1.56526   1.59200   1.60429   1.62409   1.64097
 Alpha virt. eigenvalues --    1.65456   1.68298   1.68576   1.70717   1.71860
 Alpha virt. eigenvalues --    1.73850   1.74751   1.76410   1.77932   1.79938
 Alpha virt. eigenvalues --    1.80882   1.81439   1.83250   1.84429   1.85650
 Alpha virt. eigenvalues --    1.86239   1.88754   1.88872   1.90206   1.90443
 Alpha virt. eigenvalues --    1.91260   1.93135   1.94158   1.95346   1.95724
 Alpha virt. eigenvalues --    1.98100   1.98526   1.99671   2.00605   2.02649
 Alpha virt. eigenvalues --    2.02857   2.04293   2.04878   2.05316   2.05428
 Alpha virt. eigenvalues --    2.05931   2.07020   2.08119   2.08651   2.09275
 Alpha virt. eigenvalues --    2.09608   2.09915   2.10330   2.11988   2.12440
 Alpha virt. eigenvalues --    2.12780   2.13550   2.13783   2.14044   2.15350
 Alpha virt. eigenvalues --    2.16359   2.16494   2.16964   2.17135   2.17871
 Alpha virt. eigenvalues --    2.19218   2.22339   2.23253   2.23574   2.25719
 Alpha virt. eigenvalues --    2.27135   2.28190   2.29037   2.30811   2.32657
 Alpha virt. eigenvalues --    2.33588   2.33929   2.35159   2.36020   2.36412
 Alpha virt. eigenvalues --    2.38913   2.39102   2.40990   2.41381   2.42375
 Alpha virt. eigenvalues --    2.44046   2.44920   2.45852   2.49126   2.50460
 Alpha virt. eigenvalues --    2.51045   2.53516   2.54569   2.57259   2.58209
 Alpha virt. eigenvalues --    2.59537   2.60411   2.62646   2.63801   2.65198
 Alpha virt. eigenvalues --    2.66083   2.67694   2.68339   2.68507   2.69124
 Alpha virt. eigenvalues --    2.70760   2.71570   2.72314   2.74517   2.75043
 Alpha virt. eigenvalues --    2.77155   2.78031   2.79879   2.80144   2.81552
 Alpha virt. eigenvalues --    2.82338   2.83024   2.84539   2.84968   2.85115
 Alpha virt. eigenvalues --    2.85201   2.86003   2.86343   2.87616   2.89355
 Alpha virt. eigenvalues --    2.90011   2.91153   2.91675   2.93066   2.93342
 Alpha virt. eigenvalues --    2.95539   2.97724   3.01657   3.09783   3.10419
 Alpha virt. eigenvalues --    3.17408   3.17958   3.20289   3.20916   3.21128
 Alpha virt. eigenvalues --    3.21913   3.22923   3.26699   3.30665   3.33468
 Alpha virt. eigenvalues --    3.35272   3.36904   3.39475   3.43319   3.43698
 Alpha virt. eigenvalues --    3.44489   3.44698   3.45088   3.45666   3.46012
 Alpha virt. eigenvalues --    3.46562   3.46967   3.48876   3.49475   3.50777
 Alpha virt. eigenvalues --    3.53079   3.56142   3.66263   4.00262   4.12897
 Alpha virt. eigenvalues --    4.20829   4.23739   4.34716   4.38517   4.45307
 Alpha virt. eigenvalues --    4.46021   4.47955   4.51435   4.52133   4.59676
 Alpha virt. eigenvalues --    4.61865   4.67275   4.71059   4.78807   4.80744
          Condensed to atoms (all electrons):
               1          2          3          4          5          6
     1  C    4.824684   0.309942  -0.028627  -0.011271  -0.007386   0.382386
     2  C    0.309942   5.122376   0.354434  -0.052425  -0.014934  -0.049876
     3  C   -0.028627   0.354434   4.841195   0.274030  -0.015377  -0.014251
     4  C   -0.011271  -0.052425   0.274030   5.339797   0.292870   0.001295
     5  C   -0.007386  -0.014934  -0.015377   0.292870   4.362378  -0.002509
     6  H    0.382386  -0.049876  -0.014251   0.001295  -0.002509   0.640671
     7  H   -0.027130   0.365344  -0.031148   0.006215   0.000471  -0.000949
     8  H    0.000697  -0.005883  -0.022149   0.367775  -0.023769  -0.000059
     9  H    0.000011   0.005895  -0.034009   0.360064  -0.022027   0.000095
    10  O    0.159917  -0.035545   0.000657  -0.093648   0.261136  -0.039821
    11  O    0.001860  -0.000158   0.002802  -0.085774   0.569350   0.000193
    12  C    0.383003  -0.037230   0.004767  -0.000407   0.001481  -0.049375
    13  C   -0.040071  -0.000161   0.000031   0.000033  -0.000059  -0.001691
    14  C   -0.044261   0.351901  -0.042612  -0.007569  -0.000314   0.006045
    15  O    0.002687  -0.050091   0.182789  -0.030276   0.001346  -0.000005
    16  Si   0.000202  -0.001517  -0.012108  -0.004166   0.000445  -0.000012
    17  C    0.000000  -0.000049  -0.001246  -0.000144   0.000000   0.000000
    18  C    0.000003  -0.000024  -0.001623  -0.000427   0.000095   0.000000
    19  C    0.000000   0.000003   0.001065  -0.000189  -0.000002   0.000000
    20  H    0.000000   0.000001   0.000005   0.000143  -0.000002   0.000000
    21  H    0.000000  -0.000002   0.000475  -0.002091  -0.000047   0.000000
    22  H    0.000000  -0.000003  -0.000268  -0.000425  -0.000007   0.000000
    23  H    0.000000   0.000006  -0.000037   0.000007   0.000000   0.000000
    24  H    0.000000   0.000000  -0.000013   0.000002   0.000000   0.000000
    25  H    0.000000  -0.000003  -0.000028  -0.000038   0.000000   0.000000
    26  H    0.000000   0.000001   0.000020   0.000001   0.000000   0.000000
    27  H    0.000000   0.000008  -0.000026   0.000003   0.000000   0.000000
    28  H    0.000000  -0.000001  -0.000086  -0.000027   0.000000   0.000000
    29  H    0.004508  -0.026861  -0.007117  -0.000220  -0.000066  -0.000130
    30  H   -0.006968  -0.033922  -0.007221   0.003951   0.000049   0.000189
    31  H   -0.005304  -0.028044   0.004240  -0.000115  -0.000003  -0.000041
    32  H   -0.030288   0.005406  -0.000085   0.000017   0.000014  -0.006921
    33  H   -0.031681  -0.011076  -0.000061  -0.000008   0.000133   0.006054
    34  H    0.004037   0.000074  -0.000002   0.000000   0.000000  -0.000128
    35  H   -0.004940  -0.001727  -0.000060   0.000000   0.000003   0.005484
    36  H   -0.006552   0.002556  -0.000007  -0.000003   0.000003  -0.000267
    37  C    0.001685  -0.062222   0.341406  -0.060907  -0.000370   0.004568
    38  C   -0.002900  -0.008030  -0.035324   0.004868   0.000003   0.001029
    39  C   -0.001043   0.000265  -0.001525  -0.000085  -0.000012   0.003399
    40  H   -0.000100   0.005069  -0.030387  -0.005621  -0.000182   0.000161
    41  H    0.001080  -0.003370  -0.025276  -0.003947   0.003417  -0.000490
    42  H    0.000070  -0.001085  -0.002898   0.000097  -0.000002   0.000013
    43  H    0.000024  -0.000046  -0.000073   0.000003   0.000000  -0.000029
    44  H   -0.000236  -0.000101   0.000208  -0.000005  -0.000006   0.001151
               7          8          9         10         11         12
     1  C   -0.027130   0.000697   0.000011   0.159917   0.001860   0.383003
     2  C    0.365344  -0.005883   0.005895  -0.035545  -0.000158  -0.037230
     3  C   -0.031148  -0.022149  -0.034009   0.000657   0.002802   0.004767
     4  C    0.006215   0.367775   0.360064  -0.093648  -0.085774  -0.000407
     5  C    0.000471  -0.023769  -0.022027   0.261136   0.569350   0.001481
     6  H   -0.000949  -0.000059   0.000095  -0.039821   0.000193  -0.049375
     7  H    0.610683  -0.000092  -0.000124   0.002845   0.000004  -0.005562
     8  H   -0.000092   0.535245  -0.024291  -0.000141  -0.001094  -0.000004
     9  H   -0.000124  -0.024291   0.569258   0.003183   0.002732   0.000009
    10  O    0.002845  -0.000141   0.003183   8.330722  -0.075092  -0.038982
    11  O    0.000004  -0.001094   0.002732  -0.075092   8.089565  -0.000082
    12  C   -0.005562  -0.000004   0.000009  -0.038982  -0.000082   4.939797
    13  C    0.002531  -0.000001   0.000000   0.002613   0.000000   0.349856
    14  C   -0.041342   0.001828   0.000078  -0.003837  -0.000010  -0.008036
    15  O    0.000365  -0.001509   0.000060  -0.000010  -0.000013  -0.000041
    16  Si   0.000625   0.002578  -0.001425   0.000006  -0.000080  -0.000005
    17  C   -0.000022   0.000013  -0.000017   0.000000   0.000000   0.000000
    18  C    0.000003  -0.000573  -0.000228  -0.000001  -0.000003   0.000000
    19  C   -0.000003  -0.000129   0.000015   0.000000   0.000000   0.000000
    20  H    0.000000   0.000000   0.000124   0.000000   0.000000   0.000000
    21  H    0.000000  -0.000077   0.002897   0.000000  -0.000003   0.000000
    22  H    0.000000   0.000865   0.000627   0.000000   0.000004   0.000000
    23  H    0.000000  -0.000002   0.000000   0.000000   0.000000   0.000000
    24  H    0.000000   0.000002   0.000000   0.000000   0.000000   0.000000
    25  H    0.000000   0.000014  -0.000003   0.000000   0.000000   0.000000
    26  H    0.000000   0.000000   0.000001   0.000000   0.000000   0.000000
    27  H   -0.000002   0.000000   0.000000   0.000000   0.000000   0.000000
    28  H   -0.000002   0.000000  -0.000010   0.000000   0.000000   0.000000
    29  H   -0.002419   0.000599  -0.000039   0.000044   0.000000   0.000131
    30  H    0.005372   0.001121   0.000029   0.006187  -0.000091  -0.001534
    31  H   -0.005273  -0.000033   0.000000   0.000030   0.000000   0.001847
    32  H   -0.000026   0.000001  -0.000001   0.001876  -0.000009   0.377812
    33  H    0.000144  -0.000007   0.000000   0.000823  -0.000005   0.379867
    34  H   -0.000033   0.000000   0.000000  -0.000051   0.000000  -0.025545
    35  H    0.000622   0.000000   0.000000   0.000017   0.000000  -0.036656
    36  H    0.001643   0.000000   0.000000  -0.000005   0.000000  -0.034825
    37  C   -0.011263   0.004438  -0.007654  -0.001780  -0.000043  -0.000140
    38  C    0.010712  -0.000120   0.000121   0.000117   0.000000  -0.000004
    39  C    0.001778   0.000001   0.000001   0.000003   0.000000  -0.000074
    40  H    0.000178  -0.000085   0.003780  -0.000005   0.000002  -0.000002
    41  H    0.000098   0.000099   0.000220   0.000481  -0.000146   0.000091
    42  H    0.000887   0.000004   0.000000   0.000000   0.000000   0.000003
    43  H    0.000046   0.000000   0.000000   0.000000   0.000000  -0.000001
    44  H    0.000032   0.000000   0.000001  -0.000002   0.000000   0.000011
              13         14         15         16         17         18
     1  C   -0.040071  -0.044261   0.002687   0.000202   0.000000   0.000003
     2  C   -0.000161   0.351901  -0.050091  -0.001517  -0.000049  -0.000024
     3  C    0.000031  -0.042612   0.182789  -0.012108  -0.001246  -0.001623
     4  C    0.000033  -0.007569  -0.030276  -0.004166  -0.000144  -0.000427
     5  C   -0.000059  -0.000314   0.001346   0.000445   0.000000   0.000095
     6  H   -0.001691   0.006045  -0.000005  -0.000012   0.000000   0.000000
     7  H    0.002531  -0.041342   0.000365   0.000625  -0.000022   0.000003
     8  H   -0.000001   0.001828  -0.001509   0.002578   0.000013  -0.000573
     9  H    0.000000   0.000078   0.000060  -0.001425  -0.000017  -0.000228
    10  O    0.002613  -0.003837  -0.000010   0.000006   0.000000  -0.000001
    11  O    0.000000  -0.000010  -0.000013  -0.000080   0.000000  -0.000003
    12  C    0.349856  -0.008036  -0.000041  -0.000005   0.000000   0.000000
    13  C    4.936022  -0.002253   0.000000   0.000000   0.000000   0.000000
    14  C   -0.002253   4.976793  -0.007945   0.000309   0.000003  -0.000016
    15  O    0.000000  -0.007945   8.292502   0.336974  -0.018529  -0.013919
    16  Si   0.000000   0.000309   0.336974  11.856323   0.370119   0.366680
    17  C    0.000000   0.000003  -0.018529   0.370119   5.141580  -0.035362
    18  C    0.000000  -0.000016  -0.013919   0.366680  -0.035362   5.150435
    19  C    0.000000  -0.000032  -0.020147   0.377758  -0.034732  -0.031289
    20  H    0.000000   0.000000   0.000447  -0.013397  -0.000575   0.372261
    21  H    0.000000  -0.000001  -0.000379  -0.027761  -0.001591   0.375620
    22  H    0.000000  -0.000002  -0.000417  -0.026294   0.001362   0.377676
    23  H    0.000000  -0.000006  -0.000461  -0.024654  -0.001417   0.001416
    24  H    0.000000   0.000000   0.000509  -0.014148  -0.000302  -0.000807
    25  H    0.000000   0.000001  -0.000415  -0.025103   0.001384  -0.001230
    26  H    0.000000   0.000000   0.000566  -0.013431   0.369742  -0.000353
    27  H    0.000000   0.000000  -0.000770  -0.026824   0.379070   0.001347
    28  H    0.000000   0.000000  -0.000565  -0.028598   0.375791  -0.001493
    29  H    0.000014   0.381971   0.008603   0.001654  -0.000004   0.000004
    30  H    0.000173   0.382769  -0.000042  -0.000052   0.000000   0.000001
    31  H   -0.000034   0.379270   0.000301  -0.000032   0.000000   0.000000
    32  H   -0.035655   0.000018   0.000000   0.000000   0.000000   0.000000
    33  H   -0.034934   0.004751  -0.000001   0.000000   0.000000   0.000000
    34  H    0.382005  -0.000004   0.000000   0.000000   0.000000   0.000000
    35  H    0.386077   0.000206   0.000000   0.000000   0.000000   0.000000
    36  H    0.387710   0.000181   0.000001  -0.000001   0.000000   0.000000
    37  C   -0.000003   0.005381  -0.046345   0.000418  -0.000248  -0.001475
    38  C   -0.000105   0.000062   0.000992   0.000057  -0.001034   0.000044
    39  C   -0.000189   0.000022   0.000227  -0.000012   0.000009   0.000000
    40  H    0.000000  -0.000102  -0.004139   0.006446  -0.000701  -0.000651
    41  H    0.000003  -0.000106   0.003054  -0.000463   0.000026   0.000007
    42  H   -0.000002  -0.000039   0.003321   0.000629   0.000712   0.000008
    43  H   -0.000002   0.000000   0.000003   0.000006   0.000001   0.000000
    44  H   -0.000015   0.000000  -0.000002   0.000014  -0.000001   0.000000
              19         20         21         22         23         24
     1  C    0.000000   0.000000   0.000000   0.000000   0.000000   0.000000
     2  C    0.000003   0.000001  -0.000002  -0.000003   0.000006   0.000000
     3  C    0.001065   0.000005   0.000475  -0.000268  -0.000037  -0.000013
     4  C   -0.000189   0.000143  -0.002091  -0.000425   0.000007   0.000002
     5  C   -0.000002  -0.000002  -0.000047  -0.000007   0.000000   0.000000
     6  H    0.000000   0.000000   0.000000   0.000000   0.000000   0.000000
     7  H   -0.000003   0.000000   0.000000   0.000000   0.000000   0.000000
     8  H   -0.000129   0.000000  -0.000077   0.000865  -0.000002   0.000002
     9  H    0.000015   0.000124   0.002897   0.000627   0.000000   0.000000
    10  O    0.000000   0.000000   0.000000   0.000000   0.000000   0.000000
    11  O    0.000000   0.000000  -0.000003   0.000004   0.000000   0.000000
    12  C    0.000000   0.000000   0.000000   0.000000   0.000000   0.000000
    13  C    0.000000   0.000000   0.000000   0.000000   0.000000   0.000000
    14  C   -0.000032   0.000000  -0.000001  -0.000002  -0.000006   0.000000
    15  O   -0.020147   0.000447  -0.000379  -0.000417  -0.000461   0.000509
    16  Si   0.377758  -0.013397  -0.027761  -0.026294  -0.024654  -0.014148
    17  C   -0.034732  -0.000575  -0.001591   0.001362  -0.001417  -0.000302
    18  C   -0.031289   0.372261   0.375620   0.377676   0.001416  -0.000807
    19  C    5.119879  -0.001073   0.001477  -0.001109   0.376462   0.372444
    20  H   -0.001073   0.561142  -0.022774  -0.022572   0.000016   0.000093
    21  H    0.001477  -0.022774   0.578079  -0.023768  -0.000027   0.000000
    22  H   -0.001109  -0.022572  -0.023768   0.571281   0.000004  -0.000052
    23  H    0.376462   0.000016  -0.000027   0.000004   0.575854  -0.023827
    24  H    0.372444   0.000093   0.000000  -0.000052  -0.023827   0.568770
    25  H    0.375428  -0.000043   0.000000   0.000609  -0.021954  -0.023583
    26  H   -0.000590   0.000095  -0.000015   0.000006  -0.000043  -0.000046
    27  H   -0.001162   0.000015   0.000011  -0.000025   0.000585  -0.000034
    28  H    0.001411  -0.000019   0.000606   0.000006   0.000005   0.000003
    29  H    0.000038   0.000000   0.000000  -0.000003   0.000043   0.000000
    30  H   -0.000001   0.000000   0.000000  -0.000002   0.000000   0.000000
    31  H    0.000000   0.000000   0.000000   0.000000   0.000000   0.000000
    32  H    0.000000   0.000000   0.000000   0.000000   0.000000   0.000000
    33  H    0.000000   0.000000   0.000000   0.000000   0.000000   0.000000
    34  H    0.000000   0.000000   0.000000   0.000000   0.000000   0.000000
    35  H    0.000000   0.000000   0.000000   0.000000   0.000000   0.000000
    36  H    0.000000   0.000000   0.000000   0.000000   0.000000   0.000000
    37  C   -0.000060   0.000022  -0.000556   0.000079  -0.000002   0.000001
    38  C   -0.000005   0.000000  -0.000014   0.000000   0.000000   0.000000
    39  C    0.000000   0.000000  -0.000001   0.000000   0.000000   0.000000
    40  H    0.000001   0.000006   0.001862  -0.000042   0.000001   0.000001
    41  H    0.000001   0.000000   0.000003   0.000001   0.000000   0.000000
    42  H   -0.000009   0.000000   0.000000   0.000000  -0.000003   0.000000
    43  H    0.000000   0.000000   0.000000   0.000000   0.000000   0.000000
    44  H    0.000000   0.000000   0.000000   0.000000   0.000000   0.000000
              25         26         27         28         29         30
     1  C    0.000000   0.000000   0.000000   0.000000   0.004508  -0.006968
     2  C   -0.000003   0.000001   0.000008  -0.000001  -0.026861  -0.033922
     3  C   -0.000028   0.000020  -0.000026  -0.000086  -0.007117  -0.007221
     4  C   -0.000038   0.000001   0.000003  -0.000027  -0.000220   0.003951
     5  C    0.000000   0.000000   0.000000   0.000000  -0.000066   0.000049
     6  H    0.000000   0.000000   0.000000   0.000000  -0.000130   0.000189
     7  H    0.000000   0.000000  -0.000002  -0.000002  -0.002419   0.005372
     8  H    0.000014   0.000000   0.000000   0.000000   0.000599   0.001121
     9  H   -0.000003   0.000001   0.000000  -0.000010  -0.000039   0.000029
    10  O    0.000000   0.000000   0.000000   0.000000   0.000044   0.006187
    11  O    0.000000   0.000000   0.000000   0.000000   0.000000  -0.000091
    12  C    0.000000   0.000000   0.000000   0.000000   0.000131  -0.001534
    13  C    0.000000   0.000000   0.000000   0.000000   0.000014   0.000173
    14  C    0.000001   0.000000   0.000000   0.000000   0.381971   0.382769
    15  O   -0.000415   0.000566  -0.000770  -0.000565   0.008603  -0.000042
    16  Si  -0.025103  -0.013431  -0.026824  -0.028598   0.001654  -0.000052
    17  C    0.001384   0.369742   0.379070   0.375791  -0.000004   0.000000
    18  C   -0.001230  -0.000353   0.001347  -0.001493   0.000004   0.000001
    19  C    0.375428  -0.000590  -0.001162   0.001411   0.000038  -0.000001
    20  H   -0.000043   0.000095   0.000015  -0.000019   0.000000   0.000000
    21  H    0.000000  -0.000015   0.000011   0.000606   0.000000   0.000000
    22  H    0.000609   0.000006  -0.000025   0.000006  -0.000003  -0.000002
    23  H   -0.021954  -0.000043   0.000585   0.000005   0.000043   0.000000
    24  H   -0.023583  -0.000046  -0.000034   0.000003   0.000000   0.000000
    25  H    0.578947   0.000017   0.000003  -0.000027   0.000072  -0.000001
    26  H    0.000017   0.570957  -0.023643  -0.023446   0.000000   0.000000
    27  H    0.000003  -0.023643   0.574796  -0.022873  -0.000002   0.000000
    28  H   -0.000027  -0.023446  -0.022873   0.583746   0.000000   0.000000
    29  H    0.000072   0.000000  -0.000002   0.000000   0.569603  -0.029524
    30  H   -0.000001   0.000000   0.000000   0.000000  -0.029524   0.602853
    31  H    0.000000   0.000000   0.000000   0.000000  -0.030194  -0.031213
    32  H    0.000000   0.000000   0.000000   0.000000  -0.000002  -0.000035
    33  H    0.000000   0.000000   0.000000   0.000000  -0.000084   0.001060
    34  H    0.000000   0.000000   0.000000   0.000000   0.000000   0.000001
    35  H    0.000000   0.000000   0.000000   0.000000   0.000001  -0.000004
    36  H    0.000000   0.000000   0.000000   0.000000  -0.000058  -0.000020
    37  C    0.000001   0.000010   0.000007  -0.000376   0.000205  -0.000053
    38  C    0.000000   0.000041  -0.000400   0.000936  -0.000005  -0.000002
    39  C    0.000000   0.000000   0.000001   0.000033   0.000000  -0.000001
    40  H    0.000000   0.000003   0.000051   0.001143  -0.000003   0.000002
    41  H    0.000000   0.000000  -0.000002   0.000005  -0.000007  -0.000005
    42  H    0.000000   0.000011   0.001324   0.000138  -0.000002   0.000000
    43  H    0.000000   0.000000  -0.000002   0.000001   0.000000   0.000000
    44  H    0.000000   0.000000   0.000000  -0.000001   0.000000   0.000000
              31         32         33         34         35         36
     1  C   -0.005304  -0.030288  -0.031681   0.004037  -0.004940  -0.006552
     2  C   -0.028044   0.005406  -0.011076   0.000074  -0.001727   0.002556
     3  C    0.004240  -0.000085  -0.000061  -0.000002  -0.000060  -0.000007
     4  C   -0.000115   0.000017  -0.000008   0.000000   0.000000  -0.000003
     5  C   -0.000003   0.000014   0.000133   0.000000   0.000003   0.000003
     6  H   -0.000041  -0.006921   0.006054  -0.000128   0.005484  -0.000267
     7  H   -0.005273  -0.000026   0.000144  -0.000033   0.000622   0.001643
     8  H   -0.000033   0.000001  -0.000007   0.000000   0.000000   0.000000
     9  H    0.000000  -0.000001   0.000000   0.000000   0.000000   0.000000
    10  O    0.000030   0.001876   0.000823  -0.000051   0.000017  -0.000005
    11  O    0.000000  -0.000009  -0.000005   0.000000   0.000000   0.000000
    12  C    0.001847   0.377812   0.379867  -0.025545  -0.036656  -0.034825
    13  C   -0.000034  -0.035655  -0.034934   0.382005   0.386077   0.387710
    14  C    0.379270   0.000018   0.004751  -0.000004   0.000206   0.000181
[...]
    14  C   -0.000063   0.000000  -0.000001  -0.000002  -0.000011   0.000001
    15  O   -0.025658   0.000490  -0.000503  -0.000511  -0.000681   0.000677
    16  Si   0.381213  -0.014214  -0.024574  -0.024127  -0.023094  -0.014686
    17  C   -0.030779  -0.000415  -0.001219   0.001206  -0.001383  -0.000036
    18  C   -0.027358   0.369282   0.376990   0.378242   0.001195  -0.000482
    19  C    5.113048  -0.000708   0.001182  -0.001123   0.377244   0.367983
    20  H   -0.000708   0.568665  -0.023511  -0.023268   0.000008   0.000047
    21  H    0.001182  -0.023511   0.573105  -0.024156  -0.000020  -0.000002
    22  H   -0.001123  -0.023268  -0.024156   0.568918   0.000000  -0.000051
    23  H    0.377244   0.000008  -0.000020   0.000000   0.570913  -0.024197
    24  H    0.367983   0.000047  -0.000002  -0.000051  -0.024197   0.576311
    25  H    0.376846  -0.000037   0.000004   0.000469  -0.022437  -0.024064
    26  H   -0.000397   0.000130  -0.000032   0.000006  -0.000019  -0.000039
    27  H   -0.001124   0.000008   0.000005  -0.000021   0.000483  -0.000053
    28  H    0.001195  -0.000023   0.000426   0.000003   0.000002   0.000005
    29  H    0.000166   0.000000   0.000000  -0.000004   0.000121   0.000001
    30  H   -0.000001   0.000000   0.000000  -0.000001   0.000000   0.000000
    31  H    0.000000   0.000000   0.000000   0.000000   0.000000   0.000000
    32  H    0.000000   0.000000   0.000000   0.000000   0.000000   0.000000
    33  H    0.000000   0.000000   0.000000   0.000000   0.000000   0.000000
    34  H    0.000000   0.000000   0.000000   0.000000   0.000000   0.000000
    35  H    0.000000   0.000000   0.000000   0.000000   0.000000   0.000000
    36  H    0.000000   0.000000   0.000000   0.000000   0.000000   0.000000
    37  C   -0.000061   0.000014  -0.000355   0.000049  -0.000005   0.000002
    38  C   -0.000009   0.000000  -0.000004   0.000001   0.000000   0.000000
    39  C    0.000000   0.000000   0.000000   0.000000   0.000000   0.000000
    40  H    0.000002   0.000006   0.001104  -0.000021   0.000001   0.000001
    41  H    0.000001   0.000000  -0.000002   0.000001   0.000000   0.000000
    42  H   -0.000029   0.000000  -0.000001   0.000000  -0.000008   0.000000
    43  H    0.000000   0.000000   0.000000   0.000000   0.000000   0.000000
    44  H    0.000000   0.000000   0.000000   0.000000   0.000000   0.000000
              25         26         27         28         29         30
     1  C    0.000000   0.000000   0.000000   0.000000   0.004692  -0.007102
     2  C   -0.000003   0.000001   0.000007   0.000000  -0.030180  -0.033826
     3  C   -0.000022   0.000016  -0.000030  -0.000067  -0.007850  -0.006508
     4  C   -0.000035   0.000001   0.000002  -0.000027  -0.000591   0.003464
     5  C    0.000000   0.000000   0.000000   0.000000  -0.000078   0.000509
     6  H    0.000000   0.000000   0.000000   0.000000  -0.000148   0.000193
     7  H    0.000000   0.000000  -0.000004  -0.000002  -0.001781   0.005199
     8  H    0.000012   0.000000   0.000000   0.000000   0.000867   0.000725
     9  H   -0.000002   0.000001   0.000000  -0.000010  -0.000051   0.000036
    10  O    0.000000   0.000000   0.000000   0.000000   0.000015   0.005372
    11  O    0.000000   0.000000   0.000000   0.000000   0.000000  -0.000142
    12  C    0.000000   0.000000   0.000000   0.000000   0.000183  -0.001895
    13  C    0.000000   0.000000   0.000000   0.000000   0.000005   0.000193
    14  C   -0.000004   0.000000   0.000000   0.000000   0.381823   0.383224
    15  O   -0.000539   0.000533  -0.000879  -0.000629   0.010414   0.000026
    16  Si  -0.023294  -0.013460  -0.025646  -0.025964   0.001531  -0.000048
    17  C    0.001215   0.367593   0.379037   0.377371  -0.000001   0.000000
    18  C   -0.001331  -0.000426   0.001197  -0.001208   0.000002   0.000001
    19  C    0.376846  -0.000397  -0.001124   0.001195   0.000166  -0.000001
    20  H   -0.000037   0.000130   0.000008  -0.000023   0.000000   0.000000
    21  H    0.000004  -0.000032   0.000005   0.000426   0.000000   0.000000
    22  H    0.000469   0.000006  -0.000021   0.000003  -0.000004  -0.000001
    23  H   -0.022437  -0.000019   0.000483   0.000002   0.000121   0.000000
    24  H   -0.024064  -0.000039  -0.000053   0.000005   0.000001   0.000000
    25  H    0.572620   0.000008   0.000002  -0.000021   0.000216  -0.000001
    26  H    0.000008   0.573310  -0.024249  -0.023663   0.000000   0.000000
    27  H    0.000002  -0.024249   0.572641  -0.023408  -0.000002   0.000000
    28  H   -0.000021  -0.023663  -0.023408   0.575145   0.000000   0.000000
    29  H    0.000216   0.000000  -0.000002   0.000000   0.566611  -0.029427
    30  H   -0.000001   0.000000   0.000000   0.000000  -0.029427   0.602284
    31  H    0.000000   0.000000   0.000000   0.000000  -0.027820  -0.032027
    32  H    0.000000   0.000000   0.000000   0.000000  -0.000002  -0.000049
    33  H    0.000000   0.000000   0.000000   0.000000  -0.000100   0.001428
    34  H    0.000000   0.000000   0.000000   0.000000   0.000000   0.000001
    35  H    0.000000   0.000000   0.000000   0.000000   0.000001  -0.000003
    36  H    0.000000   0.000000   0.000000   0.000000  -0.000049  -0.000019
    37  C    0.000001   0.000009   0.000010  -0.000217   0.000293  -0.000077
    38  C    0.000000   0.000049  -0.000418   0.001024  -0.000002  -0.000001
    39  C    0.000000   0.000000   0.000000   0.000042   0.000000   0.000000
    40  H    0.000000   0.000000   0.000050   0.000983  -0.000005   0.000002
    41  H    0.000000   0.000000  -0.000002   0.000001  -0.000011  -0.000007
    42  H    0.000000   0.000015   0.001381  -0.000154  -0.000004   0.000000
    43  H    0.000000   0.000000  -0.000003   0.000001   0.000000   0.000000
    44  H    0.000000   0.000000   0.000000  -0.000001   0.000000   0.000000
              31         32         33         34         35         36
     1  C   -0.004566  -0.032625  -0.032934   0.003943  -0.005002  -0.006180
     2  C   -0.026747   0.005531  -0.012271   0.000043  -0.001485   0.002568
     3  C    0.004113  -0.000087  -0.000048  -0.000002  -0.000047  -0.000009
     4  C   -0.000033   0.000017   0.000000   0.000000   0.000000  -0.000003
     5  C   -0.000032   0.000068   0.000150   0.000000   0.000002   0.000004
     6  H   -0.000072  -0.006185   0.006105  -0.000096   0.005583  -0.000295
     7  H   -0.005969  -0.000057   0.000152  -0.000042   0.000582   0.001459
     8  H   -0.000039   0.000001  -0.000011   0.000000   0.000000   0.000000
     9  H    0.000000  -0.000001   0.000000   0.000000   0.000000   0.000000
    10  O    0.000050   0.001835   0.001025  -0.000051   0.000016  -0.000008
    11  O    0.000000  -0.000013  -0.000012   0.000000   0.000000   0.000000
    12  C    0.001484   0.378690   0.379963  -0.025214  -0.035312  -0.033196
    13  C    0.000197  -0.033804  -0.034075   0.382091   0.385762   0.387064
    14  C    0.379752  -0.000006   0.005840   0.000010   0.000183  -0.000078
    15  O    0.000243   0.000000  -0.000001   0.000000   0.000000   0.000001
    16  Si  -0.000026   0.000000   0.000000   0.000000   0.000000   0.000000
    17  C    0.000000   0.000000   0.000000   0.000000   0.000000   0.000000
    18  C    0.000000   0.000000   0.000000   0.000000   0.000000   0.000000
    19  C    0.000000   0.000000   0.000000   0.000000   0.000000   0.000000
    20  H    0.000000   0.000000   0.000000   0.000000   0.000000   0.000000
    21  H    0.000000   0.000000   0.000000   0.000000   0.000000   0.000000
    22  H    0.000000   0.000000   0.000000   0.000000   0.000000   0.000000
    23  H    0.000000   0.000000   0.000000   0.000000   0.000000   0.000000
    24  H    0.000000   0.000000   0.000000   0.000000   0.000000   0.000000
    25  H    0.000000   0.000000   0.000000   0.000000   0.000000   0.000000
    26  H    0.000000   0.000000   0.000000   0.000000   0.000000   0.000000
    27  H    0.000000   0.000000   0.000000   0.000000   0.000000   0.000000
    28  H    0.000000   0.000000   0.000000   0.000000   0.000000   0.000000
    29  H   -0.027820  -0.000002  -0.000100   0.000000   0.000001  -0.000049
    30  H   -0.032027  -0.000049   0.001428   0.000001  -0.000003  -0.000019
    31  H    0.597084   0.000027   0.000341  -0.000051  -0.000046   0.002187
    32  H    0.000027   0.612202  -0.036094  -0.004504  -0.004033   0.004998
    33  H    0.000341  -0.036094   0.610137  -0.002618   0.005090  -0.005311
    34  H   -0.000051  -0.004504  -0.002618   0.592096  -0.030038  -0.030056
    35  H   -0.000046  -0.004033   0.005090  -0.030038   0.597397  -0.032794
    36  H    0.002187   0.004998  -0.005311  -0.030056  -0.032794   0.593983
    37  C   -0.000104   0.000005   0.000004   0.000000  -0.000014   0.000007
    38  C    0.000000  -0.000001  -0.000005   0.000001   0.000154  -0.000025
    39  C    0.000001   0.000001   0.000000   0.000001   0.000660  -0.000008
    40  H    0.000002   0.000000   0.000000   0.000000   0.000000   0.000000
    41  H   -0.000002   0.000002  -0.000003   0.000000  -0.000010   0.000000
    42  H    0.000000   0.000000   0.000000   0.000000   0.000001  -0.000001
    43  H    0.000000   0.000000   0.000000   0.000000   0.000005   0.000000
    44  H    0.000000  -0.000001   0.000000   0.000000   0.000047  -0.000001
              37         38         39         40         41         42
     1  C    0.001801  -0.003331  -0.001015  -0.000106   0.001172   0.000097
     2  C   -0.064004  -0.009425   0.000138   0.005796  -0.003755  -0.001513
     3  C    0.344806  -0.033253  -0.000908  -0.032525  -0.025816  -0.003267
     4  C   -0.060797   0.005031  -0.000104  -0.006883  -0.003650   0.000145
     5  C   -0.000167  -0.000024  -0.000009  -0.000209   0.002521  -0.000003
     6  H    0.005553   0.001199   0.003715   0.000204  -0.001911   0.000002
     7  H   -0.013211   0.012213   0.001703   0.000229   0.000117   0.001150
     8  H    0.004748  -0.000132   0.000001  -0.000101   0.000082   0.000004
     9  H   -0.007427   0.000104   0.000001   0.004328   0.000168   0.000000
    10  O   -0.002228   0.000141   0.000001  -0.000003   0.001276   0.000000
    11  O   -0.000006   0.000000   0.000000  -0.000001  -0.000209   0.000000
    12  C   -0.000147   0.000019  -0.000046  -0.000002   0.000147   0.000004
    13  C    0.000001  -0.000088  -0.000117   0.000000   0.000000  -0.000002
    14  C    0.005741   0.000029   0.000016  -0.000126  -0.000132  -0.000048
    15  O   -0.052241   0.000569   0.000304  -0.004476   0.003542   0.004168
    16  Si  -0.000965   0.000066  -0.000046   0.006133  -0.000269   0.001191
    17  C   -0.000028  -0.001146  -0.000002  -0.000581   0.000018   0.000666
    18  C   -0.000997   0.000033   0.000000  -0.000434  -0.000001   0.000008
    19  C   -0.000061  -0.000009   0.000000   0.000002   0.000001  -0.000029
    20  H    0.000014   0.000000   0.000000   0.000006   0.000000   0.000000
    21  H   -0.000355  -0.000004   0.000000   0.001104  -0.000002  -0.000001
    22  H    0.000049   0.000001   0.000000  -0.000021   0.000001   0.000000
    23  H   -0.000005   0.000000   0.000000   0.000001   0.000000  -0.000008
    24  H    0.000002   0.000000   0.000000   0.000001   0.000000   0.000000
    25  H    0.000001   0.000000   0.000000   0.000000   0.000000   0.000000
    26  H    0.000009   0.000049   0.000000   0.000000   0.000000   0.000015
    27  H    0.000010  -0.000418   0.000000   0.000050  -0.000002   0.001381
    28  H   -0.000217   0.001024   0.000042   0.000983   0.000001  -0.000154
    29  H    0.000293  -0.000002   0.000000  -0.000005  -0.000011  -0.000004
    30  H   -0.000077  -0.000001   0.000000   0.000002  -0.000007   0.000000
    31  H   -0.000104   0.000000   0.000001   0.000002  -0.000002   0.000000
    32  H    0.000005  -0.000001   0.000001   0.000000   0.000002   0.000000
    33  H    0.000004  -0.000005   0.000000   0.000000  -0.000003   0.000000
    34  H    0.000000   0.000001   0.000001   0.000000   0.000000   0.000000
    35  H   -0.000014   0.000154   0.000660   0.000000  -0.000010   0.000001
    36  H    0.000007  -0.000025  -0.000008   0.000000   0.000000  -0.000001
    37  C    5.069071   0.379766  -0.039345   0.369257   0.362054  -0.054069
    38  C    0.379766   4.768474   0.654206  -0.036783  -0.038639   0.384796
    39  C   -0.039345   0.654206   4.937417  -0.000524  -0.006372  -0.043288
    40  H    0.369257  -0.036783  -0.000524   0.604172  -0.030239  -0.001334
    41  H    0.362054  -0.038639  -0.006372  -0.030239   0.621257   0.005217
    42  H   -0.054069   0.384796  -0.043288  -0.001334   0.005217   0.600860
    43  H    0.004641  -0.024640   0.376331  -0.000201   0.000096  -0.007982
    44  H   -0.012109  -0.035257   0.382209   0.000170   0.005799   0.005604
              43         44
     1  C    0.000020  -0.000191
     2  C   -0.000040  -0.000092
     3  C   -0.000082   0.000225
     4  C    0.000003  -0.000004
     5  C    0.000000  -0.000004
     6  H   -0.000026   0.000913
     7  H    0.000050   0.000031
     8  H    0.000000   0.000000
     9  H    0.000000   0.000001
    10  O    0.000000  -0.000002
    11  O    0.000000   0.000000
    12  C   -0.000001   0.000009
    13  C   -0.000001  -0.000009
    14  C    0.000000   0.000000
    15  O    0.000003  -0.000002
    16  Si   0.000013   0.000011
    17  C    0.000002  -0.000001
    18  C    0.000000   0.000000
    19  C    0.000000   0.000000
    20  H    0.000000   0.000000
    21  H    0.000000   0.000000
    22  H    0.000000   0.000000
    23  H    0.000000   0.000000
    24  H    0.000000   0.000000
    25  H    0.000000   0.000000
    26  H    0.000000   0.000000
    27  H   -0.000003   0.000000
    28  H    0.000001  -0.000001
    29  H    0.000000   0.000000
    30  H    0.000000   0.000000
    31  H    0.000000   0.000000
    32  H    0.000000  -0.000001
    33  H    0.000000   0.000000
    34  H    0.000000   0.000000
    35  H    0.000005   0.000047
    36  H    0.000000  -0.000001
    37  C    0.004641  -0.012109
    38  C   -0.024640  -0.035257
    39  C    0.376331   0.382209
    40  H   -0.000201   0.000170
    41  H    0.000096   0.005799
    42  H   -0.007982   0.005604
    43  H    0.586826  -0.043114
    44  H   -0.043114   0.591953
 Mulliken charges:
               1
     1  C    0.171912
     2  C   -0.097143
     3  C    0.312981
     4  C   -0.298567
     5  C    0.593392
     6  H    0.114013
     7  H    0.112850
     8  H    0.160631
     9  H    0.140394
    10  O   -0.490710
    11  O   -0.500993
    12  C   -0.196380
    13  C   -0.335221
    14  C   -0.337833
    15  O   -0.645613
    16  Si   0.904323
    17  C   -0.549170
    18  C   -0.556934
    19  C   -0.532437
    20  H    0.123380
    21  H    0.120244
    22  H    0.123480
    23  H    0.121923
    24  H    0.118596
    25  H    0.120397
    26  H    0.120614
    27  H    0.121015
    28  H    0.119196
    29  H    0.131164
    30  H    0.108481
    31  H    0.112054
    32  H    0.114087
    33  H    0.113248
    34  H    0.114488
    35  H    0.113303
    36  H    0.115766
    37  C   -0.239261
    38  C   -0.024691
    39  C   -0.264960
    40  H    0.122113
    41  H    0.107557
    42  H    0.106395
    43  H    0.108101
    44  H    0.103815
 Sum of Mulliken charges =   0.00000
 Mulliken charges with hydrogens summed into heavy atoms:
               1
     1  C    0.285925
     2  C    0.015707
     3  C    0.312981
     4  C    0.002458
     5  C    0.593392
    10  O   -0.490710
    11  O   -0.500993
    12  C    0.030954
    13  C    0.008335
    14  C    0.013866
    15  O   -0.645613
    16  Si   0.904323
    17  C   -0.188346
    18  C   -0.189830
    19  C   -0.171520
    37  C   -0.009592
    38  C    0.081704
    39  C   -0.053044
 Electronic spatial extent (au):  <R**2>=           5531.7001
 Charge=              0.0000 electrons
 Dipole moment (field-independent basis, Debye):
    X=             -2.3220    Y=              4.2360    Z=              1.5515  Tot=              5.0737
 Quadrupole moment (field-independent basis, Debye-Ang):
   XX=           -113.7559   YY=           -130.6513   ZZ=           -119.4735
   XY=             12.5524   XZ=              5.7028   YZ=             -7.8671
 Traceless Quadrupole moment (field-independent basis, Debye-Ang):
   XX=              7.5377   YY=             -9.3578   ZZ=              1.8201
   XY=             12.5524   XZ=              5.7028   YZ=             -7.8671
 Octapole moment (field-independent basis, Debye-Ang**2):
  XXX=            -11.5313  YYY=             43.3123  ZZZ=              0.4939  XYY=            -25.8122
  XXY=             20.7068  XXZ=             12.8776  XZZ=              4.9597  YZZ=              6.1704
  YYZ=             29.6105  XYZ=            -18.5202
 Hexadecapole moment (field-independent basis, Debye-Ang**3):
 XXXX=          -4268.7745 YYYY=          -1901.2174 ZZZZ=          -1196.0614 XXXY=             48.3531
 XXXZ=             25.6902 YYYX=             77.2596 YYYZ=            -83.1458 ZZZX=             -2.0219
 ZZZY=             11.3689 XXYY=          -1106.0304 XXZZ=           -941.6710 YYZZ=           -539.0037
 XXYZ=            -20.0112 YYXZ=             25.8459 ZZXY=             22.9406
 N-N= 1.625990739979D+03 E-N=-5.742271181380D+03  KE= 1.055907736358D+03
 1\1\GINC-CPU-E-611\FOpt\RB3LYP\6-31G(d,p)\C14H26O3Si1\KE291\06-Feb-201
 9\0\\# b3lyp/6-31g(d,p) Opt=(maxcycles=25) scrf=(solvent=chloroform)\\
 P_ng_3ginp004\\0,1\C,-0.1023236788,0.5258698375,-0.148844238\C,-1.5324
 204006,0.2337444639,0.3255329452\C,-1.7869740325,0.9906463135,1.658690
 6597\C,-1.6091361923,2.4951638116,1.388020151\C,-0.4134465627,2.887005
 7978,0.5331512149\H,0.6038257723,0.151570581,0.6005495186\H,-1.5697307
 319,-0.8359219342,0.5594965044\H,-2.4927574788,2.8630917854,0.85468973
 44\H,-1.5419770974,3.0743045742,2.3117340999\O,0.1587202416,1.96255896
 73,-0.2665851098\O,-0.0001735131,4.0276306394,0.4947260602\C,0.2964041
 503,-0.0654550261,-1.5011508486\C,0.285062817,-1.5974122483,-1.5222581
 238\C,-2.5955547647,0.5309265287,-0.7445975204\O,-3.1313294838,0.70939
 28334,2.0408084717\Si,-4.1431155444,1.114220058,3.3249284444\C,-3.8901
 393238,-0.0588062518,4.7816625913\C,-3.9131303047,2.893472585,3.913796
 9797\C,-5.8726353468,0.8795910771,2.6239266325\H,-4.6588402724,3.11419
 5704,4.6868075099\H,-2.9269049016,3.0677804715,4.3566819417\H,-4.05379
 98613,3.6163359452,3.1039808195\H,-6.0111790399,-0.1413614779,2.252957
 0427\H,-6.633953691,1.0629152817,3.3902987647\H,-6.060952866,1.5664303
 497,1.7922049075\H,-4.6297140909,0.1551974376,5.5623320807\H,-4.022467
 3766,-1.103374067,4.480023958\H,-2.898146349,0.0367476854,5.2343763029
 \H,-3.5938805251,0.4412321615,-0.3147829364\H,-2.491427203,1.53606869,
 -1.1654860991\H,-2.5194248715,-0.1781954328,-1.5730898423\H,1.30557200
 62,0.2978530246,-1.7245617464\H,-0.3566672798,0.3340469624,-2.28405094
 68\H,0.6679317956,-1.9668386261,-2.4778851941\H,0.9157973326,-2.011993
 3315,-0.7283152362\H,-0.722997737,-2.0035028307,-1.3924180636\C,-0.812
 8975247,0.5462610607,2.7859908916\C,-0.7669847292,-0.936130245,3.03675
 66977\C,0.3520290495,-1.6579679265,3.1223637294\H,-1.1380251702,1.0643
 747067,3.6987704537\H,0.1973630555,0.9183146677,2.5827655574\H,-1.7287
 529957,-1.4291581385,3.1666310303\H,0.3275488099,-2.7249301105,3.32353
 16905\H,1.3351339109,-1.2070383554,3.0053405191\\Version=ES64L-G09RevD
 .01\State=1-A\HF=-1064.4233151\RMSD=5.578e-09\RMSF=6.845e-06\Dipole=-0
 .8783518,-1.6455133,0.710949\Quadrupole=1.7443092,-6.7882543,5.0439452
 ,-10.0624923,0.4555799,6.431014\PG=C01 [X(C14H26O3Si1)]\\@


 A successful marriage requires falling in love
 many times, always with the same person.
                           -- Mignon McLaughlin
 Job cpu time:       0 days  2 hours 18 minutes 20.8 seconds.
 File lengths (MBytes):  RWF=    360 Int=      0 D2E=      0 Chk=     17 Scr=      1
 Normal termination of Gaussian 09 at Wed Feb  6 11:20:08 2019.
