 Entering Gaussian System, Link 0=/usr/local/shared/gaussian/em64t/09-D01/g09/g09
 Initial command:
 /usr/local/shared/gaussian/em64t/09-D01/g09/l1.exe "/scratch/ke291/P_ng_correct1ginp015/Gau-7550.inp" -scrdir="/scratch/ke291/P_ng_correct1ginp015/"
 Entering Link 1 = /usr/local/shared/gaussian/em64t/09-D01/g09/l1.exe PID=      7569.
  
 Copyright (c) 1988,1990,1992,1993,1995,1998,2003,2009,2013,
            Gaussian, Inc.  All Rights Reserved.
  
 This is part of the Gaussian(R) 09 program.  It is based on
 the Gaussian(R) 03 system (copyright 2003, Gaussian, Inc.),
 the Gaussian(R) 98 system (copyright 1998, Gaussian, Inc.),
 the Gaussian(R) 94 system (copyright 1995, Gaussian, Inc.),
 the Gaussian 92(TM) system (copyright 1992, Gaussian, Inc.),
 the Gaussian 90(TM) system (copyright 1990, Gaussian, Inc.),
 the Gaussian 88(TM) system (copyright 1988, Gaussian, Inc.),
 the Gaussian 86(TM) system (copyright 1986, Carnegie Mellon
 University), and the Gaussian 82(TM) system (copyright 1983,
 Carnegie Mellon University). Gaussian is a federally registered
 trademark of Gaussian, Inc.
  
 This software contains proprietary and confidential information,
 including trade secrets, belonging to Gaussian, Inc.
  
 This software is provided under written license and may be
 used, copied, transmitted, or stored only in accord with that
 written license.
  
 The following legend is applicable only to US Government
 contracts under FAR:
  
                    RESTRICTED RIGHTS LEGEND
  
 Use, reproduction and disclosure by the US Government is
 subject to restrictions as set forth in subparagraphs (a)
 and (c) of the Commercial Computer Software - Restricted
 Rights clause in FAR 52.227-19.
  
 Gaussian, Inc.
 340 Quinnipiac St., Bldg. 40, Wallingford CT 06492
  
  
 ---------------------------------------------------------------
 Warning -- This program may not be used in any manner that
 competes with the business of Gaussian, Inc. or will provide
 assistance to any competitor of Gaussian, Inc.  The licensee
 of this program is prohibited from giving any competitor of
 Gaussian, Inc. access to this program.  By using this program,
 the user acknowledges that Gaussian, Inc. is engaged in the
 business of creating and licensing software in the field of
 computational chemistry and represents and warrants to the
 licensee that it is not a competitor of Gaussian, Inc. and that
 it will not use this program in any manner prohibited above.
 ---------------------------------------------------------------
  

 Cite this work as:
 Gaussian 09, Revision D.01,
 M. J. Frisch, G. W. Trucks, H. B. Schlegel, G. E. Scuseria, 
 M. A. Robb, J. R. Cheeseman, G. Scalmani, V. Barone, B. Mennucci, 
 G. A. Petersson, H. Nakatsuji, M. Caricato, X. Li, H. P. Hratchian, 
 A. F. Izmaylov, J. Bloino, G. Zheng, J. L. Sonnenberg, M. Hada, 
 M. Ehara, K. Toyota, R. Fukuda, J. Hasegawa, M. Ishida, T. Nakajima, 
 Y. Honda, O. Kitao, H. Nakai, T. Vreven, J. A. Montgomery, Jr., 
 J. E. Peralta, F. Ogliaro, M. Bearpark, J. J. Heyd, E. Brothers, 
 K. N. Kudin, V. N. Staroverov, T. Keith, R. Kobayashi, J. Normand, 
 K. Raghavachari, A. Rendell, J. C. Burant, S. S. Iyengar, J. Tomasi, 
 M. Cossi, N. Rega, J. M. Millam, M. Klene, J. E. Knox, J. B. Cross, 
 V. Bakken, C. Adamo, J. Jaramillo, R. Gomperts, R. E. Stratmann, 
 O. Yazyev, A. J. Austin, R. Cammi, C. Pomelli, J. W. Ochterski, 
 R. L. Martin, K. Morokuma, V. G. Zakrzewski, G. A. Voth, 
 P. Salvador, J. J. Dannenberg, S. Dapprich, A. D. Daniels, 
 O. Farkas, J. B. Foresman, J. V. Ortiz, J. Cioslowski, 
 and D. J. Fox, Gaussian, Inc., Wallingford CT, 2013.
 
 ******************************************
 Gaussian 09:  EM64L-G09RevD.01 24-Apr-2013
                 6-Feb-2019 
 ******************************************
 %nprocshared=2
 Will use up to    2 processors via shared memory.
 %mem=6000MB
 %chk=P_ng_correct1ginp015.chk
 ---------------------------------------------------------------
 # b3lyp/6-31g(d,p) Opt=(maxcycles=50) scrf=(solvent=chloroform)
 ---------------------------------------------------------------
 1/6=50,14=-1,18=20,19=15,26=3,38=1/1,3;
 2/9=110,12=2,17=6,18=5,40=1/2;
 3/5=1,6=6,7=101,11=2,16=1,25=1,30=1,70=2201,71=1,72=7,74=-5/1,2,3;
 4//1;
 5/5=2,38=5,53=7/2;
 6/7=2,8=2,9=2,10=2,28=1/1;
 7//1,2,3,16;
 1/6=50,14=-1,18=20,19=15,26=3/3(2);
 2/9=110/2;
 99//99;
 2/9=110/2;
 3/5=1,6=6,7=101,11=2,16=1,25=1,30=1,70=2205,71=1,72=7,74=-5/1,2,3;
 4/5=5,16=3,69=1/1;
 5/5=2,38=5,53=7/2;
 7//1,2,3,16;
 1/6=50,14=-1,18=20,19=15,26=3/3(-5);
 2/9=110/2;
 6/7=2,8=2,9=2,10=2,19=2,28=1/1;
 99/9=1/99;
 --------------------
 P_ng_correct1ginp015
 --------------------
 Symbolic Z-matrix:
 Charge =  0 Multiplicity = 1
 C                     1.1313   -0.49437   0.59965 
 C                    -0.40299  -0.55703   0.64532 
 C                    -0.99879   0.62143   1.46924 
 C                    -0.51305   1.91036   0.7865 
 C                     0.98684   1.99355   0.57447 
 H                     1.51952  -0.78939   1.5821 
 H                    -0.78951  -0.41109  -0.37081 
 H                    -0.95816   1.96557  -0.21495 
 H                    -0.81679   2.81054   1.32152 
 O                     1.67128   0.84879   0.37671 
 O                     1.5815    3.04899   0.5108 
 C                     1.80155  -1.38526  -0.45507 
 C                     1.39141  -1.11054  -1.90509 
 C                    -0.86551  -1.93987   1.12799 
 O                    -2.41438   0.507     1.4421 
 Si                   -3.72034   1.28512   0.72566 
 C                    -3.65473   1.17123  -1.15894 
 C                    -5.20314   0.31869   1.36245 
 C                    -3.85419   3.08919   1.26008 
 H                    -5.1438   -0.73442   1.06882 
 H                    -5.26359   0.36011   2.45481 
 H                    -6.13711   0.72621   0.95917 
 H                    -3.81792   3.17042   2.35074 
 H                    -3.06043   3.71854   0.84591 
 H                    -4.81125   3.50461   0.92289 
 H                    -2.83245   1.74696  -1.59671 
 H                    -3.5547    0.13183  -1.48959 
 H                    -4.58592   1.56334  -1.58546 
 H                    -0.65132  -2.70811   0.38029 
 H                    -0.37022  -2.23621   2.05868 
 H                    -1.94294  -1.9295    1.30267 
 H                     1.60334  -2.43093  -0.19546 
 H                     2.88285  -1.24403  -0.34936 
 H                     1.99437  -1.71484  -2.58916 
 H                     0.3414   -1.35595  -2.09233 
 H                     1.54702  -0.05898  -2.16368 
 C                    -0.57205   0.56668   2.96345 
 C                    -1.10777   1.68223   3.81997 
 C                    -1.97262   1.51951   4.8224 
 H                     0.5248    0.57727   3.01769 
 H                    -0.90638  -0.39181   3.37076 
 H                    -0.73292   2.68396   3.61099 
 H                    -2.31305   2.35731   5.42396 
 H                    -2.36769   0.53969   5.08065 
 

 GradGradGradGradGradGradGradGradGradGradGradGradGradGradGradGradGradGrad
 Berny optimization.
 Initialization pass.
                           ----------------------------
                           !    Initial Parameters    !
                           ! (Angstroms and Degrees)  !
 --------------------------                            --------------------------
 ! Name  Definition              Value          Derivative Info.                !
 --------------------------------------------------------------------------------
 ! R1    R(1,2)                  1.5363         estimate D2E/DX2                !
 ! R2    R(1,6)                  1.0968         estimate D2E/DX2                !
 ! R3    R(1,10)                 1.4647         estimate D2E/DX2                !
 ! R4    R(1,12)                 1.5347         estimate D2E/DX2                !
 ! R5    R(2,3)                  1.5565         estimate D2E/DX2                !
 ! R6    R(2,7)                  1.0969         estimate D2E/DX2                !
 ! R7    R(2,14)                 1.5359         estimate D2E/DX2                !
 ! R8    R(3,4)                  1.5373         estimate D2E/DX2                !
 ! R9    R(3,15)                 1.4205         estimate D2E/DX2                !
 ! R10   R(3,37)                 1.5549         estimate D2E/DX2                !
 ! R11   R(4,5)                  1.5171         estimate D2E/DX2                !
 ! R12   R(4,8)                  1.0973         estimate D2E/DX2                !
 ! R13   R(4,9)                  1.0903         estimate D2E/DX2                !
 ! R14   R(5,10)                 1.3483         estimate D2E/DX2                !
 ! R15   R(5,11)                 1.2131         estimate D2E/DX2                !
 ! R16   R(12,13)                1.5317         estimate D2E/DX2                !
 ! R17   R(12,32)                1.0955         estimate D2E/DX2                !
 ! R18   R(12,33)                1.0956         estimate D2E/DX2                !
 ! R19   R(13,34)                1.0939         estimate D2E/DX2                !
 ! R20   R(13,35)                1.0944         estimate D2E/DX2                !
 ! R21   R(13,36)                1.094          estimate D2E/DX2                !
 ! R22   R(14,29)                1.0932         estimate D2E/DX2                !
 ! R23   R(14,30)                1.0951         estimate D2E/DX2                !
 ! R24   R(14,31)                1.0915         estimate D2E/DX2                !
 ! R25   R(15,16)                1.6806         estimate D2E/DX2                !
 ! R26   R(16,17)                1.8892         estimate D2E/DX2                !
 ! R27   R(16,18)                1.881          estimate D2E/DX2                !
 ! R28   R(16,19)                1.8863         estimate D2E/DX2                !
 ! R29   R(17,26)                1.0951         estimate D2E/DX2                !
 ! R30   R(17,27)                1.0953         estimate D2E/DX2                !
 ! R31   R(17,28)                1.0967         estimate D2E/DX2                !
 ! R32   R(18,20)                1.0949         estimate D2E/DX2                !
 ! R33   R(18,21)                1.0948         estimate D2E/DX2                !
 ! R34   R(18,22)                1.0959         estimate D2E/DX2                !
 ! R35   R(19,23)                1.0943         estimate D2E/DX2                !
 ! R36   R(19,24)                1.0944         estimate D2E/DX2                !
 ! R37   R(19,25)                1.0965         estimate D2E/DX2                !
 ! R38   R(37,38)                1.505          estimate D2E/DX2                !
 ! R39   R(37,40)                1.0982         estimate D2E/DX2                !
 ! R40   R(37,41)                1.0938         estimate D2E/DX2                !
 ! R41   R(38,39)                1.3339         estimate D2E/DX2                !
 ! R42   R(38,42)                1.0898         estimate D2E/DX2                !
 ! R43   R(39,43)                1.0861         estimate D2E/DX2                !
 ! R44   R(39,44)                1.0876         estimate D2E/DX2                !
 ! A1    A(2,1,6)              108.4155         estimate D2E/DX2                !
 ! A2    A(2,1,10)             114.2125         estimate D2E/DX2                !
 ! A3    A(2,1,12)             115.653          estimate D2E/DX2                !
 ! A4    A(6,1,10)             104.6262         estimate D2E/DX2                !
 ! A5    A(6,1,12)             107.7503         estimate D2E/DX2                !
 ! A6    A(10,1,12)            105.4688         estimate D2E/DX2                !
 ! A7    A(1,2,3)              111.5402         estimate D2E/DX2                !
 ! A8    A(1,2,7)              108.5996         estimate D2E/DX2                !
 ! A9    A(1,2,14)             110.2923         estimate D2E/DX2                !
 ! A10   A(3,2,7)              104.7586         estimate D2E/DX2                !
 ! A11   A(3,2,14)             113.5813         estimate D2E/DX2                !
 ! A12   A(7,2,14)             107.7453         estimate D2E/DX2                !
 ! A13   A(2,3,4)              106.1864         estimate D2E/DX2                !
 ! A14   A(2,3,15)             108.0812         estimate D2E/DX2                !
 ! A15   A(2,3,37)             112.146          estimate D2E/DX2                !
 ! A16   A(4,3,15)             111.9587         estimate D2E/DX2                !
 ! A17   A(4,3,37)             111.6892         estimate D2E/DX2                !
 ! A18   A(15,3,37)            106.7997         estimate D2E/DX2                !
 ! A19   A(3,4,5)              114.8616         estimate D2E/DX2                !
 ! A20   A(3,4,8)              108.6224         estimate D2E/DX2                !
 ! A21   A(3,4,9)              112.7214         estimate D2E/DX2                !
 ! A22   A(5,4,8)              105.7079         estimate D2E/DX2                !
 ! A23   A(5,4,9)              107.3811         estimate D2E/DX2                !
 ! A24   A(8,4,9)              107.0548         estimate D2E/DX2                !
 ! A25   A(4,5,10)             118.4117         estimate D2E/DX2                !
 ! A26   A(4,5,11)             122.6625         estimate D2E/DX2                !
 ! A27   A(10,5,11)            118.8246         estimate D2E/DX2                !
 ! A28   A(1,10,5)             124.6869         estimate D2E/DX2                !
 ! A29   A(1,12,13)            115.4377         estimate D2E/DX2                !
 ! A30   A(1,12,32)            108.1926         estimate D2E/DX2                !
 ! A31   A(1,12,33)            106.8513         estimate D2E/DX2                !
 ! A32   A(13,12,32)           110.3092         estimate D2E/DX2                !
 ! A33   A(13,12,33)           109.4192         estimate D2E/DX2                !
 ! A34   A(32,12,33)           106.1854         estimate D2E/DX2                !
 ! A35   A(12,13,34)           110.2005         estimate D2E/DX2                !
 ! A36   A(12,13,35)           112.2485         estimate D2E/DX2                !
 ! A37   A(12,13,36)           110.9817         estimate D2E/DX2                !
 ! A38   A(34,13,35)           107.3345         estimate D2E/DX2                !
 ! A39   A(34,13,36)           107.7444         estimate D2E/DX2                !
 ! A40   A(35,13,36)           108.1528         estimate D2E/DX2                !
 ! A41   A(2,14,29)            111.0237         estimate D2E/DX2                !
 ! A42   A(2,14,30)            111.9936         estimate D2E/DX2                !
 ! A43   A(2,14,31)            109.8139         estimate D2E/DX2                !
 ! A44   A(29,14,30)           107.6063         estimate D2E/DX2                !
 ! A45   A(29,14,31)           108.0301         estimate D2E/DX2                !
 ! A46   A(30,14,31)           108.2394         estimate D2E/DX2                !
 ! A47   A(3,15,16)            138.1826         estimate D2E/DX2                !
 ! A48   A(15,16,17)           111.7386         estimate D2E/DX2                !
 ! A49   A(15,16,18)           103.3194         estimate D2E/DX2                !
 ! A50   A(15,16,19)           112.16           estimate D2E/DX2                !
 ! A51   A(17,16,18)           109.5188         estimate D2E/DX2                !
 ! A52   A(17,16,19)           110.0442         estimate D2E/DX2                !
 ! A53   A(18,16,19)           109.8483         estimate D2E/DX2                !
 ! A54   A(16,17,26)           113.1517         estimate D2E/DX2                !
 ! A55   A(16,17,27)           111.1943         estimate D2E/DX2                !
 ! A56   A(16,17,28)           109.6893         estimate D2E/DX2                !
 ! A57   A(26,17,27)           108.038          estimate D2E/DX2                !
 ! A58   A(26,17,28)           107.1045         estimate D2E/DX2                !
 ! A59   A(27,17,28)           107.4226         estimate D2E/DX2                !
 ! A60   A(16,18,20)           111.1408         estimate D2E/DX2                !
 ! A61   A(16,18,21)           111.2144         estimate D2E/DX2                !
 ! A62   A(16,18,22)           110.8662         estimate D2E/DX2                !
 ! A63   A(20,18,21)           107.8763         estimate D2E/DX2                !
 ! A64   A(20,18,22)           107.7687         estimate D2E/DX2                !
 ! A65   A(21,18,22)           107.821          estimate D2E/DX2                !
 ! A66   A(16,19,23)           110.5496         estimate D2E/DX2                !
 ! A67   A(16,19,24)           113.0359         estimate D2E/DX2                !
 ! A68   A(16,19,25)           109.7046         estimate D2E/DX2                !
 ! A69   A(23,19,24)           108.0875         estimate D2E/DX2                !
 ! A70   A(23,19,25)           107.8972         estimate D2E/DX2                !
 ! A71   A(24,19,25)           107.3871         estimate D2E/DX2                !
 ! A72   A(3,37,38)            115.0305         estimate D2E/DX2                !
 ! A73   A(3,37,40)            108.7366         estimate D2E/DX2                !
 ! A74   A(3,37,41)            107.7468         estimate D2E/DX2                !
 ! A75   A(38,37,40)           108.6784         estimate D2E/DX2                !
 ! A76   A(38,37,41)           109.1963         estimate D2E/DX2                !
 ! A77   A(40,37,41)           107.1772         estimate D2E/DX2                !
 ! A78   A(37,38,39)           124.6148         estimate D2E/DX2                !
 ! A79   A(37,38,42)           116.7273         estimate D2E/DX2                !
 ! A80   A(39,38,42)           118.6369         estimate D2E/DX2                !
 ! A81   A(38,39,43)           121.6915         estimate D2E/DX2                !
 ! A82   A(38,39,44)           121.592          estimate D2E/DX2                !
 ! A83   A(43,39,44)           116.7158         estimate D2E/DX2                !
 ! D1    D(6,1,2,3)             73.4767         estimate D2E/DX2                !
 ! D2    D(6,1,2,7)           -171.5749         estimate D2E/DX2                !
 ! D3    D(6,1,2,14)           -53.716          estimate D2E/DX2                !
 ! D4    D(10,1,2,3)           -42.7252         estimate D2E/DX2                !
 ! D5    D(10,1,2,7)            72.2232         estimate D2E/DX2                !
 ! D6    D(10,1,2,14)         -169.9178         estimate D2E/DX2                !
 ! D7    D(12,1,2,3)          -165.4347         estimate D2E/DX2                !
 ! D8    D(12,1,2,7)           -50.4862         estimate D2E/DX2                !
 ! D9    D(12,1,2,14)           67.3727         estimate D2E/DX2                !
 ! D10   D(2,1,10,5)            18.76           estimate D2E/DX2                !
 ! D11   D(6,1,10,5)           -99.6208         estimate D2E/DX2                !
 ! D12   D(12,1,10,5)          146.8547         estimate D2E/DX2                !
 ! D13   D(2,1,12,13)           59.1111         estimate D2E/DX2                !
 ! D14   D(2,1,12,32)          -65.006          estimate D2E/DX2                !
 ! D15   D(2,1,12,33)         -178.9673         estimate D2E/DX2                !
 ! D16   D(6,1,12,13)         -179.4426         estimate D2E/DX2                !
 ! D17   D(6,1,12,32)           56.4403         estimate D2E/DX2                !
 ! D18   D(6,1,12,33)          -57.521          estimate D2E/DX2                !
 ! D19   D(10,1,12,13)         -68.1159         estimate D2E/DX2                !
 ! D20   D(10,1,12,32)         167.767          estimate D2E/DX2                !
 ! D21   D(10,1,12,33)          53.8057         estimate D2E/DX2                !
 ! D22   D(1,2,3,4)             58.6075         estimate D2E/DX2                !
 ! D23   D(1,2,3,15)           178.897          estimate D2E/DX2                !
 ! D24   D(1,2,3,37)           -63.6426         estimate D2E/DX2                !
 ! D25   D(7,2,3,4)            -58.6884         estimate D2E/DX2                !
 ! D26   D(7,2,3,15)            61.6011         estimate D2E/DX2                !
 ! D27   D(7,2,3,37)           179.0615         estimate D2E/DX2                !
 ! D28   D(14,2,3,4)          -176.0041         estimate D2E/DX2                !
 ! D29   D(14,2,3,15)          -55.7146         estimate D2E/DX2                !
 ! D30   D(14,2,3,37)           61.7458         estimate D2E/DX2                !
 ! D31   D(1,2,14,29)          -69.1393         estimate D2E/DX2                !
 ! D32   D(1,2,14,30)           51.1729         estimate D2E/DX2                !
 ! D33   D(1,2,14,31)          171.4588         estimate D2E/DX2                !
 ! D34   D(3,2,14,29)          164.809          estimate D2E/DX2                !
 ! D35   D(3,2,14,30)          -74.8788         estimate D2E/DX2                !
 ! D36   D(3,2,14,31)           45.4072         estimate D2E/DX2                !
 ! D37   D(7,2,14,29)           49.2444         estimate D2E/DX2                !
 ! D38   D(7,2,14,30)          169.5566         estimate D2E/DX2                !
 ! D39   D(7,2,14,31)          -70.1575         estimate D2E/DX2                !
 ! D40   D(2,3,4,5)            -52.6936         estimate D2E/DX2                !
 ! D41   D(2,3,4,8)             65.4067         estimate D2E/DX2                !
 ! D42   D(2,3,4,9)           -176.1274         estimate D2E/DX2                !
 ! D43   D(15,3,4,5)          -170.4354         estimate D2E/DX2                !
 ! D44   D(15,3,4,8)           -52.3351         estimate D2E/DX2                !
 ! D45   D(15,3,4,9)            66.1308         estimate D2E/DX2                !
 ! D46   D(37,3,4,5)            69.8461         estimate D2E/DX2                !
 ! D47   D(37,3,4,8)          -172.0536         estimate D2E/DX2                !
 ! D48   D(37,3,4,9)           -53.5877         estimate D2E/DX2                !
 ! D49   D(2,3,15,16)         -107.5439         estimate D2E/DX2                !
 ! D50   D(4,3,15,16)            9.0598         estimate D2E/DX2                !
 ! D51   D(37,3,15,16)         131.6056         estimate D2E/DX2                !
 ! D52   D(2,3,37,38)          179.7184         estimate D2E/DX2                !
 ! D53   D(2,3,37,40)           57.6036         estimate D2E/DX2                !
 ! D54   D(2,3,37,41)          -58.2449         estimate D2E/DX2                !
 ! D55   D(4,3,37,38)           60.6553         estimate D2E/DX2                !
 ! D56   D(4,3,37,40)          -61.4595         estimate D2E/DX2                !
 ! D57   D(4,3,37,41)         -177.3079         estimate D2E/DX2                !
 ! D58   D(15,3,37,38)         -62.0589         estimate D2E/DX2                !
 ! D59   D(15,3,37,40)         175.8263         estimate D2E/DX2                !
 ! D60   D(15,3,37,41)          59.9778         estimate D2E/DX2                !
 ! D61   D(3,4,5,10)            30.6802         estimate D2E/DX2                !
 ! D62   D(3,4,5,11)          -153.0242         estimate D2E/DX2                !
 ! D63   D(8,4,5,10)           -89.0501         estimate D2E/DX2                !
 ! D64   D(8,4,5,11)            87.2455         estimate D2E/DX2                !
 ! D65   D(9,4,5,10)           156.9162         estimate D2E/DX2                !
 ! D66   D(9,4,5,11)           -26.7882         estimate D2E/DX2                !
 ! D67   D(4,5,10,1)           -12.2293         estimate D2E/DX2                !
 ! D68   D(11,5,10,1)          171.3301         estimate D2E/DX2                !
 ! D69   D(1,12,13,34)         173.9716         estimate D2E/DX2                !
 ! D70   D(1,12,13,35)         -66.4554         estimate D2E/DX2                !
 ! D71   D(1,12,13,36)          54.7025         estimate D2E/DX2                !
 ! D72   D(32,12,13,34)        -63.0257         estimate D2E/DX2                !
 ! D73   D(32,12,13,35)         56.5473         estimate D2E/DX2                !
 ! D74   D(32,12,13,36)        177.7052         estimate D2E/DX2                !
 ! D75   D(33,12,13,34)         53.4374         estimate D2E/DX2                !
 ! D76   D(33,12,13,35)        173.0105         estimate D2E/DX2                !
 ! D77   D(33,12,13,36)        -65.8316         estimate D2E/DX2                !
 ! D78   D(3,15,16,17)          62.4227         estimate D2E/DX2                !
 ! D79   D(3,15,16,18)        -179.9293         estimate D2E/DX2                !
 ! D80   D(3,15,16,19)         -61.6892         estimate D2E/DX2                !
 ! D81   D(15,16,17,26)        -68.337          estimate D2E/DX2                !
 ! D82   D(15,16,17,27)         53.4664         estimate D2E/DX2                !
 ! D83   D(15,16,17,28)        172.1412         estimate D2E/DX2                !
 ! D84   D(18,16,17,26)        177.8041         estimate D2E/DX2                !
 ! D85   D(18,16,17,27)        -60.3924         estimate D2E/DX2                !
 ! D86   D(18,16,17,28)         58.2824         estimate D2E/DX2                !
 ! D87   D(19,16,17,26)         56.954          estimate D2E/DX2                !
 ! D88   D(19,16,17,27)        178.7575         estimate D2E/DX2                !
 ! D89   D(19,16,17,28)        -62.5677         estimate D2E/DX2                !
 ! D90   D(15,16,18,20)        -59.8231         estimate D2E/DX2                !
 ! D91   D(15,16,18,21)         60.3846         estimate D2E/DX2                !
 ! D92   D(15,16,18,22)       -179.6619         estimate D2E/DX2                !
 ! D93   D(17,16,18,20)         59.3692         estimate D2E/DX2                !
 ! D94   D(17,16,18,21)        179.5769         estimate D2E/DX2                !
 ! D95   D(17,16,18,22)        -60.4696         estimate D2E/DX2                !
 ! D96   D(19,16,18,20)       -179.662          estimate D2E/DX2                !
 ! D97   D(19,16,18,21)        -59.4543         estimate D2E/DX2                !
 ! D98   D(19,16,18,22)         60.4992         estimate D2E/DX2                !
 ! D99   D(15,16,19,23)        -50.7501         estimate D2E/DX2                !
 ! D100  D(15,16,19,24)         70.562          estimate D2E/DX2                !
 ! D101  D(15,16,19,25)       -169.6228         estimate D2E/DX2                !
 ! D102  D(17,16,19,23)       -175.8001         estimate D2E/DX2                !
 ! D103  D(17,16,19,24)        -54.4881         estimate D2E/DX2                !
 ! D104  D(17,16,19,25)         65.3272         estimate D2E/DX2                !
 ! D105  D(18,16,19,23)         63.5479         estimate D2E/DX2                !
 ! D106  D(18,16,19,24)       -175.14           estimate D2E/DX2                !
 ! D107  D(18,16,19,25)        -55.3248         estimate D2E/DX2                !
 ! D108  D(3,37,38,39)         114.4099         estimate D2E/DX2                !
 ! D109  D(3,37,38,42)         -67.2824         estimate D2E/DX2                !
 ! D110  D(40,37,38,39)       -123.444          estimate D2E/DX2                !
 ! D111  D(40,37,38,42)         54.8637         estimate D2E/DX2                !
 ! D112  D(41,37,38,39)         -6.8411         estimate D2E/DX2                !
 ! D113  D(41,37,38,42)        171.4666         estimate D2E/DX2                !
 ! D114  D(37,38,39,43)        178.7241         estimate D2E/DX2                !
 ! D115  D(37,38,39,44)         -0.9559         estimate D2E/DX2                !
 ! D116  D(42,38,39,43)          0.4462         estimate D2E/DX2                !
 ! D117  D(42,38,39,44)       -179.2338         estimate D2E/DX2                !
 --------------------------------------------------------------------------------
 Trust Radius=3.00D-01 FncErr=1.00D-07 GrdErr=1.00D-06
 Number of steps in this run=     50 maximum allowed number of steps=    264.
 GradGradGradGradGradGradGradGradGradGradGradGradGradGradGradGradGradGrad

                          Input orientation:                          
 ---------------------------------------------------------------------
 Center     Atomic      Atomic             Coordinates (Angstroms)
 Number     Number       Type             X           Y           Z
 ---------------------------------------------------------------------
      1          6           0        1.131300   -0.494372    0.599651
      2          6           0       -0.402994   -0.557035    0.645321
      3          6           0       -0.998791    0.621431    1.469235
      4          6           0       -0.513045    1.910356    0.786496
      5          6           0        0.986840    1.993549    0.574470
      6          1           0        1.519517   -0.789395    1.582096
      7          1           0       -0.789510   -0.411093   -0.370809
      8          1           0       -0.958156    1.965572   -0.214951
      9          1           0       -0.816790    2.810539    1.321524
     10          8           0        1.671284    0.848793    0.376715
     11          8           0        1.581504    3.048987    0.510801
     12          6           0        1.801546   -1.385258   -0.455070
     13          6           0        1.391414   -1.110539   -1.905087
     14          6           0       -0.865509   -1.939870    1.127994
     15          8           0       -2.414381    0.506998    1.442096
     16         14           0       -3.720336    1.285122    0.725665
     17          6           0       -3.654729    1.171232   -1.158940
     18          6           0       -5.203143    0.318691    1.362452
     19          6           0       -3.854192    3.089191    1.260078
     20          1           0       -5.143798   -0.734422    1.068820
     21          1           0       -5.263588    0.360111    2.454814
     22          1           0       -6.137113    0.726215    0.959170
     23          1           0       -3.817921    3.170425    2.350739
     24          1           0       -3.060433    3.718537    0.845907
     25          1           0       -4.811245    3.504612    0.922892
     26          1           0       -2.832445    1.746961   -1.596713
     27          1           0       -3.554704    0.131831   -1.489593
     28          1           0       -4.585924    1.563341   -1.585456
     29          1           0       -0.651319   -2.708114    0.380293
     30          1           0       -0.370225   -2.236212    2.058680
     31          1           0       -1.942940   -1.929497    1.302669
     32          1           0        1.603343   -2.430926   -0.195460
     33          1           0        2.882845   -1.244027   -0.349364
     34          1           0        1.994374   -1.714844   -2.589157
     35          1           0        0.341403   -1.355953   -2.092329
     36          1           0        1.547017   -0.058977   -2.163681
     37          6           0       -0.572049    0.566680    2.963452
     38          6           0       -1.107774    1.682230    3.819973
     39          6           0       -1.972624    1.519515    4.822396
     40          1           0        0.524797    0.577266    3.017691
     41          1           0       -0.906376   -0.391810    3.370758
     42          1           0       -0.732917    2.683956    3.610986
     43          1           0       -2.313047    2.357311    5.423958
     44          1           0       -2.367685    0.539692    5.080652
 ---------------------------------------------------------------------
                    Distance matrix (angstroms):
                    1          2          3          4          5
     1  C    0.000000
     2  C    1.536252   0.000000
     3  C    2.557046   1.556467   0.000000
     4  C    2.919161   2.473875   1.537339   0.000000
     5  C    2.492239   2.905535   2.574110   1.517080   0.000000
     6  H    1.096791   2.151183   2.888779   3.471735   3.007296
     7  H    2.153658   1.096911   2.120299   2.608623   3.135487
     8  H    3.328773   2.722465   2.155191   1.097301   2.099281
     9  H    3.903664   3.459629   2.201622   1.090342   2.116281
    10  O    1.464710   2.520145   2.893890   2.462952   1.348347
    11  O    3.572950   4.118218   3.670088   2.399922   1.213107
    12  C    1.534713   2.599386   3.946092   4.214249   3.624919
    13  C    2.592495   3.167151   4.483174   4.471844   3.993400
    14  C    2.521083   1.535945   2.587367   3.881377   4.382849
    15  O    3.779459   2.410953   1.420467   2.452407   3.811943
    16  Si   5.169222   3.795360   2.898308   3.268230   4.762587
    17  C    5.364042   4.100737   3.776717   3.768448   5.022457
    18  C    6.431805   4.931796   4.216590   4.986195   6.460802
    19  C    6.175211   5.058029   3.779802   3.574520   5.010597
    20  H    6.297190   4.762987   4.379469   5.340265   6.728368
    21  H    6.713149   5.266953   4.384991   5.268225   6.728422
    22  H    7.378951   5.884331   5.164639   5.749968   7.246022
    23  H    6.402487   5.335179   3.901527   3.867406   5.256034
    24  H    5.948098   5.038127   3.772396   3.124456   4.407911
    25  H    7.170091   6.000559   4.811033   4.586369   6.001875
    26  H    5.055578   4.029559   3.745550   3.329564   4.400202
    27  H    5.168724   3.868549   3.940440   4.194690   5.324657
    28  H    6.457207   5.193194   4.804774   4.725983   5.992166
    29  H    2.850703   2.181524   3.520284   4.638360   4.982661
    30  H    2.723482   2.195062   2.984739   4.339687   4.683523
    31  H    3.464791   2.164993   2.725141   4.129831   4.950169
    32  H    2.145988   2.871196   4.342717   4.928495   4.533084
    33  H    2.128502   3.501156   4.674862   4.772042   3.863962
    34  H    3.521782   4.189242   5.557677   5.551961   4.977534
    35  H    2.934794   2.947392   4.288462   4.436946   4.329847
    36  H    2.828143   3.455589   4.488004   4.101911   3.467583
    37  C    3.100772   2.581675   1.554925   2.558923   3.189565
    38  C    4.485703   3.948347   2.581306   3.099633   3.875257
    39  C    5.614415   4.921763   3.605356   4.309479   5.198846
    40  H    2.713517   2.788472   2.172783   2.798656   2.861585
    41  H    3.441174   2.776455   2.156614   3.483258   4.134420
    42  H    4.758699   4.405456   2.985263   2.936757   3.557338
    43  H    6.577961   5.914143   4.514463   4.994580   5.876998
    44  H    5.778543   4.973428   3.863015   4.874237   5.802776
                    6          7          8          9         10
     6  H    0.000000
     7  H    3.047714   0.000000
     8  H    4.118019   2.387733   0.000000
     9  H    4.299506   3.639183   1.759179   0.000000
    10  O    2.039518   2.863846   2.917400   3.306301   0.000000
    11  O    3.985560   4.286152   2.854887   2.542822   2.206104
    12  C    2.141177   2.769417   4.347606   5.255158   2.387429
    13  C    3.504281   2.756749   4.223683   5.537331   3.020584
    14  C    2.686662   2.142275   4.130927   4.754599   3.844006
    15  O    4.144368   2.601868   2.644585   2.805911   4.236097
    16  Si   5.700277   3.559374   2.996232   3.333545   5.420491
    17  C    6.174962   3.366657   2.965399   4.110222   5.552352
    18  C    6.816910   4.797597   4.818748   5.044906   6.964944
    19  C    6.635049   4.929914   3.438787   3.050776   6.027487
    20  H    6.683281   4.597488   5.143698   5.599430   7.030713
    21  H    6.934949   5.347548   5.314310   5.202207   7.256015
    22  H    7.830012   5.626647   5.453086   5.725517   7.831050
    23  H    6.690234   5.422671   4.026498   3.193053   6.278385
    24  H    6.468335   4.867374   2.935621   2.466699   5.553802
    25  H    7.677995   5.760275   4.302282   4.073858   7.026726
    26  H    5.956300   3.214595   2.338806   3.702725   4.998470
    27  H    6.002638   3.031953   3.424818   4.751214   5.595364
    28  H    7.269468   4.448203   3.898816   4.920610   6.596465
    29  H    3.136614   2.420652   4.721420   5.600789   4.248069
    30  H    2.427249   3.067455   4.813528   5.119817   4.063745
    31  H    3.656026   2.537022   4.294709   4.872013   4.651763
    32  H    2.421024   3.136275   5.088305   5.969191   3.329948
    33  H    2.407465   3.765692   5.007283   5.737480   2.524869
    34  H    4.298989   3.790891   5.282022   6.608720   3.933576
    35  H    3.900044   2.266132   4.030624   5.509579   3.567306
    36  H    3.816427   2.966098   3.764604   5.095916   2.700574
    37  C    2.849865   3.481469   3.494027   2.791189   3.435599
    38  C    4.244960   4.695312   4.047627   2.756810   4.502645
    39  C    5.293926   5.665366   5.157807   3.906251   5.787228
    40  H    2.217693   3.766456   3.817921   3.108753   2.891871
    41  H    3.040122   3.743441   4.291531   3.802950   4.140981
    42  H    4.610208   5.043533   3.899308   2.294492   4.428150
    43  H    6.272974   6.600345   5.812614   4.390235   6.604937
    44  H    5.395990   5.754394   5.662448   4.657582   6.207724
                   11         12         13         14         15
    11  O    0.000000
    12  C    4.543551   0.000000
    13  C    4.813969   1.531740   0.000000
    14  C    5.590840   3.150693   3.870538   0.000000
    15  O    4.826605   4.995389   5.320162   2.912872   0.000000
    16  Si   5.591681   6.246299   6.228164   4.325792   1.680556
    17  C    5.807937   6.066466   5.588091   4.763273   2.957204
    18  C    7.362830   7.434548   7.497179   4.896033   2.796247
    19  C    5.487242   7.412813   7.427811   5.851592   2.962079
    20  H    7.736618   7.140283   7.189894   4.445263   3.021618
    21  H    7.606873   7.837720   8.090772   5.137456   3.027401
    22  H    8.073001   8.335508   8.261740   5.909849   3.760320
    23  H    5.705603   7.759202   7.973448   6.027185   3.144742
    24  H    4.701932   7.167991   7.120876   6.075757   3.329685
    25  H    6.422200   8.338982   8.232258   6.727056   3.873012
    26  H    5.061604   5.708592   5.108952   4.988546   3.308571
    27  H    6.236346   5.662263   5.116659   4.286663   3.167947
    28  H    6.681213   7.125432   6.555941   5.785912   3.872664
    29  H    6.176305   2.909352   3.456583   1.093222   3.817428
    30  H    5.842817   3.429235   4.481290   1.095127   3.476198
    31  H    6.150940   4.172172   4.698756   1.091548   2.485599
    32  H    5.525281   1.095492   2.170520   2.843923   5.239761
    33  H    4.567641   1.095594   2.159273   4.088635   5.859694
    34  H    5.698622   2.167981   1.093938   4.695400   6.373751
    35  H    5.264754   2.193968   1.094446   3.488276   4.853564
    36  H    4.100425   2.177879   1.094014   4.493681   5.386523
    37  C    4.100627   4.596772   5.510982   3.120547   2.390036
    38  C    4.477819   6.012455   6.842646   4.519408   2.956805
    39  C    5.793182   7.108706   7.968246   5.180893   3.556229
    40  H    3.675668   4.188276   5.275742   3.440913   3.335597
    41  H    5.119374   4.791319   5.799219   2.725463   2.608002
    42  H    3.885993   6.286081   7.024103   5.250009   3.502935
    43  H    6.307540   8.093186   8.914253   6.246314   4.391942
    44  H    6.540351   7.192506   8.102754   4.901863   3.639003
                   16         17         18         19         20
    16  Si   0.000000
    17  C    1.889183   0.000000
    18  C    1.881012   3.079258   0.000000
    19  C    1.886314   3.093542   3.083151   0.000000
    20  H    2.494506   3.288124   1.094892   4.039763   0.000000
    21  H    2.495441   4.038014   1.094816   3.295705   1.770121
    22  H    2.491528   3.293427   1.095906   3.299383   1.769790
    23  H    2.490934   4.042431   3.320834   1.094283   4.318460
    24  H    2.524170   3.295658   4.051787   1.094380   4.921275
    25  H    2.480951   3.334100   3.239891   1.096458   4.254562
    26  H    2.528850   1.095107   4.051768   3.317650   4.313315
    27  H    2.502975   1.095303   3.299459   4.049242   3.133862
    28  H    2.483531   1.096718   3.258876   3.310697   3.554732
    29  H    5.048176   5.141890   5.553853   6.681405   4.954987
    30  H    5.039839   5.722912   5.510841   6.413713   5.101196
    31  H    3.718312   4.313265   3.960662   5.370468   3.424672
    32  H    6.557366   6.446018   7.504382   7.897783   7.071099
    33  H    7.152222   7.016321   8.411635   8.170358   8.166881
    34  H    7.255740   6.502870   8.459004   8.491237   8.080565
    35  H    5.604827   4.819434   6.744029   6.971439   6.361336
    36  H    6.156292   5.438849   7.625019   7.127843   7.461388
    37  C    3.928812   5.182906   4.906295   4.476272   5.116970
    38  C    4.069142   5.615841   4.966961   4.009416   5.449637
    39  C    4.460117   6.223114   4.883589   4.323690   5.406099
    40  H    4.876023   5.938474   5.967912   5.345514   6.136090
    41  H    4.210343   5.524012   4.795864   5.026128   4.834464
    42  H    4.382521   5.794611   5.534736   3.928529   6.132193
    43  H    5.020359   6.822129   5.385579   4.499853   6.044766
    44  H    4.620740   6.402174   4.681204   4.827674   5.042317
                   21         22         23         24         25
    21  H    0.000000
    22  H    1.770319   0.000000
    23  H    3.162064   3.645446   0.000000
    24  H    4.326835   4.293341   1.771647   0.000000
    25  H    3.526938   3.078755   1.771192   1.765513   0.000000
    26  H    4.924295   4.300615   4.310428   3.147297   3.654230
    27  H    4.304734   3.608125   4.904129   4.308517   4.332970
    28  H    4.269750   3.095495   4.320437   3.589362   3.179798
    29  H    5.915290   6.497972   6.961842   6.879133   7.496490
    30  H    5.553631   6.575857   6.419006   6.645831   7.346411
    31  H    4.194811   4.976131   5.533824   5.775613   6.156374
    32  H    7.872012   8.438920   8.200510   7.787884   8.810691
    33  H    8.763620   9.324900   8.466298   7.834428   9.130566
    34  H    9.078827   9.201656   9.058212   8.177553   9.267884
    35  H    7.418713   7.457763   7.584782   6.779098   7.698470
    36  H    8.239568   8.331541   7.719559   6.675015   7.915403
    37  C    4.723549   5.917139   4.206018   4.539852   5.546721
    38  C    4.569732   5.864504   3.423196   4.099328   5.042803
    39  C    4.216647   5.735574   3.498530   4.672418   5.215795
    40  H    5.819741   6.974291   5.101813   5.238139   6.436683
    41  H    4.515488   5.867397   4.712436   5.282971   6.035077
    42  H    5.221491   6.330103   3.367807   3.759435   4.952988
    43  H    4.637922   6.100679   3.517169   4.834260   5.274172
    44  H    3.913250   5.588379   4.059109   5.340226   5.661158
                   26         27         28         29         30
    26  H    0.000000
    27  H    1.772506   0.000000
    28  H    1.763103   1.766868   0.000000
    29  H    5.339809   4.471175   6.131118   0.000000
    30  H    5.940547   5.323419   6.744513   1.765981   0.000000
    31  H    4.765918   3.826694   5.246575   1.767854   1.771740
    32  H    6.252557   5.903216   7.496218   2.343465   3.002338
    33  H    6.570117   6.680954   8.074141   3.894390   4.167202
    34  H    6.022228   5.950759   7.419855   4.099258   5.240758
    35  H    4.466209   4.213840   5.749587   2.987925   4.302574
    36  H    4.771012   5.149599   6.370183   4.280470   5.122940
    37  C    5.224707   5.377261   6.147934   4.171723   2.952211
    38  C    5.684995   6.048363   6.428867   5.595969   4.358936
    39  C    6.480430   6.653559   6.920391   6.273035   4.930648
    40  H    5.825117   6.095601   6.948437   4.374111   3.104260
    41  H    5.741067   5.559753   6.475009   3.791200   2.326118
    42  H    5.692636   6.363311   6.565398   6.286371   5.171968
    43  H    7.066266   7.368287   7.411359   7.338830   6.016653
    44  H    6.801522   6.689057   7.099678   5.965528   4.563749
                   31         32         33         34         35
    31  H    0.000000
    32  H    3.882261   0.000000
    33  H    5.146580   1.752010   0.000000
    34  H    5.540292   2.528926   2.455143   0.000000
    35  H    4.131971   2.519161   3.083729   1.762940   0.000000
    36  H    5.262531   3.082728   2.545688   1.767217   1.772215
    37  C    3.296731   4.867925   5.117588   6.528657   5.485602
    38  C    4.480948   6.355463   6.470811   7.889258   6.803381
    39  C    4.927985   7.319317   7.613136   9.007179   7.838141
    40  H    3.913424   4.531757   4.496060   6.232991   5.466560
    41  H    2.777757   4.814000   5.378083   6.759095   5.686109
    42  H    5.298719   6.790372   6.647342   8.076468   7.071268
    43  H    5.958080   8.357223   8.561435   9.967264   8.793691
    44  H    4.533261   7.240925   7.761108   9.106946   7.898372
                   36         37         38         39         40
    36  H    0.000000
    37  C    5.582955   0.000000
    38  C    6.773761   1.505019   0.000000
    39  C    7.980274   2.514990   1.333901   0.000000
    40  H    5.319432   1.098238   2.128354   3.222096   0.000000
    41  H    6.062997   1.093789   2.131666   2.626271   1.764092
    42  H    6.787382   2.219918   1.089793   2.088135   2.524279
    43  H    8.849340   3.505927   2.116881   1.086125   4.124565
    44  H    8.256129   2.776251   2.117093   1.087577   3.552981
                   41         42         43         44
    41  H    0.000000
    42  H    3.090005   0.000000
    43  H    3.708372   2.427010   0.000000
    44  H    2.434514   3.070872   1.850563   0.000000
 Stoichiometry    C14H26O3Si
 Framework group  C1[X(C14H26O3Si)]
 Deg. of freedom   126
 Full point group                 C1      NOp   1
 Largest Abelian subgroup         C1      NOp   1
 Largest concise Abelian subgroup C1      NOp   1
                         Standard orientation:                         
 ---------------------------------------------------------------------
 Center     Atomic      Atomic             Coordinates (Angstroms)
 Number     Number       Type             X           Y           Z
 ---------------------------------------------------------------------
      1          6           0       -2.535353    0.116375   -0.609844
      2          6           0       -1.155422   -0.516961   -0.843826
      3          6           0       -0.010765    0.395421   -0.314759
      4          6           0       -0.283921    0.599979    1.184224
      5          6           0       -1.679180    1.094211    1.516669
      6          1           0       -2.662973    0.941509   -1.321052
      7          1           0       -1.083921   -1.431829   -0.242895
      8          1           0       -0.181696   -0.366284    1.694081
      9          1           0        0.424176    1.284726    1.651735
     10          8           0       -2.696543    0.735503    0.707757
     11          8           0       -1.924369    1.741566    2.512883
     12          6           0       -3.735078   -0.827528   -0.768115
     13          6           0       -3.741019   -2.045467    0.160764
     14          6           0       -0.993965   -0.912185   -2.319243
     15          8           0        1.223874   -0.268564   -0.543921
     16         14           0        2.405661   -1.059593    0.351579
     17          6           0        1.719011   -2.591944    1.217272
     18          6           0        3.658860   -1.581833   -0.950328
     19          6           0        3.226910    0.080491    1.610125
     20          1           0        3.202189   -2.240530   -1.696223
     21          1           0        4.069827   -0.713510   -1.475442
     22          1           0        4.494468   -2.123449   -0.492701
     23          1           0        3.561841    1.004941    1.129846
     24          1           0        2.566001    0.348929    2.440069
     25          1           0        4.106499   -0.414436    2.038601
     26          1           0        1.009120   -2.353287    2.016246
     27          1           0        1.218023   -3.257440    0.506065
     28          1           0        2.540248   -3.157588    1.673787
     29          1           0       -1.649381   -1.748899   -2.575121
     30          1           0       -1.234866   -0.084231   -2.994345
     31          1           0        0.036043   -1.219433   -2.509401
     32          1           0       -3.782892   -1.147358   -1.814788
     33          1           0       -4.635506   -0.229294   -0.590146
     34          1           0       -4.678725   -2.598392    0.052683
     35          1           0       -2.925236   -2.740302   -0.061755
     36          1           0       -3.652719   -1.740176    1.207600
     37          6           0        0.058999    1.749367   -1.076174
     38          6           0        1.141185    2.686315   -0.611326
     39          6           0        2.189221    3.058380   -1.347859
     40          1           0       -0.910205    2.257256   -0.982266
     41          1           0        0.206231    1.528005   -2.137162
     42          1           0        1.032639    3.102114    0.390161
     43          1           0        2.932970    3.754561   -0.971246
     44          1           0        2.337979    2.682942   -2.357681
 ---------------------------------------------------------------------
 Rotational constants (GHZ):      0.4813638      0.2729914      0.2446147
 Standard basis: 6-31G(d,p) (6D, 7F)
 There are   404 symmetry adapted cartesian basis functions of A   symmetry.
 There are   404 symmetry adapted basis functions of A   symmetry.
   404 basis functions,   710 primitive gaussians,   404 cartesian basis functions
    74 alpha electrons       74 beta electrons
       nuclear repulsion energy      1630.6366798615 Hartrees.
 NAtoms=   44 NActive=   44 NUniq=   44 SFac= 1.00D+00 NAtFMM=   60 NAOKFM=F Big=F
 Integral buffers will be    131072 words long.
 Raffenetti 2 integral format.
 Two-electron integral symmetry is turned on.
 ------------------------------------------------------------------------------
 Polarizable Continuum Model (PCM)
 =================================
 Model                : PCM (using non-symmetric T matrix).
 Atomic radii         : UFF (Universal Force Field).
 Polarization charges : Total charges.
 Charge compensation  : None.
 Solution method      : On-the-fly selection.
 Cavity type          : Scaled VdW (van der Waals Surface) (Alpha=1.100).
 Cavity algorithm     : GePol (No added spheres)
                        Default sphere list used, NSphG=   44.
                        Lebedev-Laikov grids with approx.  5.0 points / Ang**2.
                        Smoothing algorithm: Karplus/York (Gamma=1.0000).
                        Polarization charges: spherical gaussians, with
                                              point-specific exponents (IZeta= 3).
                        Self-potential: point-specific (ISelfS= 7).
                        Self-field    : sphere-specific E.n sum rule (ISelfD= 2).
 1st derivatives      : Analytical E(r).r(x)/FMM algorithm (CHGder, D1EAlg=3).
                        Cavity 1st derivative terms included.
 Solvent              : Chloroform, Eps=   4.711300 Eps(inf)=   2.090627
 ------------------------------------------------------------------------------
 One-electron integrals computed using PRISM.
 NBasis=   404 RedAO= T EigKep=  1.69D-03  NBF=   404
 NBsUse=   404 1.00D-06 EigRej= -1.00D+00 NBFU=   404
 ExpMin= 7.78D-02 ExpMax= 1.61D+04 ExpMxC= 2.43D+03 IAcc=2 IRadAn=         4 AccDes= 0.00D+00
 Harris functional with IExCor=  402 and IRadAn=       4 diagonalized for initial guess.
 HarFok:  IExCor=  402 AccDes= 0.00D+00 IRadAn=         4 IDoV= 1 UseB2=F ITyADJ=14
 ICtDFT=  3500011 ScaDFX=  1.000000  1.000000  1.000000  1.000000
 FoFCou: FMM=F IPFlag=           0 FMFlag=      100000 FMFlg1=           0
         NFxFlg=           0 DoJE=T BraDBF=F KetDBF=T FulRan=T
         wScrn=  0.000000 ICntrl=     500 IOpCl=  0 I1Cent=   200000004 NGrid=           0
         NMat0=    1 NMatS0=      1 NMatT0=    0 NMatD0=    1 NMtDS0=    0 NMtDT0=    0
 Petite list used in FoFCou.
 Requested convergence on RMS density matrix=1.00D-08 within 128 cycles.
 Requested convergence on MAX density matrix=1.00D-06.
 Requested convergence on             energy=1.00D-06.
 No special actions if energy rises.
 Inv3:  Mode=1 IEnd=    26107500.
 Iteration    1 A*A^-1 deviation from unit magnitude is 7.77D-15 for   1642.
 Iteration    1 A*A^-1 deviation from orthogonality  is 6.55D-15 for   2764   1629.
 Iteration    1 A^-1*A deviation from unit magnitude is 9.66D-15 for    546.
 Iteration    1 A^-1*A deviation from orthogonality  is 7.94D-13 for   2925   2670.
 Error on total polarization charges =  0.00916
 SCF Done:  E(RB3LYP) =  -1064.42266244     A.U. after   13 cycles
            NFock= 13  Conv=0.51D-08     -V/T= 2.0081

 **********************************************************************

            Population analysis using the SCF density.

 **********************************************************************

 Orbital symmetries:
       Occupied  (A) (A) (A) (A) (A) (A) (A) (A) (A) (A) (A) (A)
                 (A) (A) (A) (A) (A) (A) (A) (A) (A) (A) (A) (A)
                 (A) (A) (A) (A) (A) (A) (A) (A) (A) (A) (A) (A)
                 (A) (A) (A) (A) (A) (A) (A) (A) (A) (A) (A) (A)
                 (A) (A) (A) (A) (A) (A) (A) (A) (A) (A) (A) (A)
                 (A) (A) (A) (A) (A) (A) (A) (A) (A) (A) (A) (A)
                 (A) (A)
       Virtual   (A) (A) (A) (A) (A) (A) (A) (A) (A) (A) (A) (A)
                 (A) (A) (A) (A) (A) (A) (A) (A) (A) (A) (A) (A)
                 (A) (A) (A) (A) (A) (A) (A) (A) (A) (A) (A) (A)
                 (A) (A) (A) (A) (A) (A) (A) (A) (A) (A) (A) (A)
                 (A) (A) (A) (A) (A) (A) (A) (A) (A) (A) (A) (A)
                 (A) (A) (A) (A) (A) (A) (A) (A) (A) (A) (A) (A)
                 (A) (A) (A) (A) (A) (A) (A) (A) (A) (A) (A) (A)
                 (A) (A) (A) (A) (A) (A) (A) (A) (A) (A) (A) (A)
                 (A) (A) (A) (A) (A) (A) (A) (A) (A) (A) (A) (A)
                 (A) (A) (A) (A) (A) (A) (A) (A) (A) (A) (A) (A)
                 (A) (A) (A) (A) (A) (A) (A) (A) (A) (A) (A) (A)
                 (A) (A) (A) (A) (A) (A) (A) (A) (A) (A) (A) (A)
                 (A) (A) (A) (A) (A) (A) (A) (A) (A) (A) (A) (A)
                 (A) (A) (A) (A) (A) (A) (A) (A) (A) (A) (A) (A)
                 (A) (A) (A) (A) (A) (A) (A) (A) (A) (A) (A) (A)
                 (A) (A) (A) (A) (A) (A) (A) (A) (A) (A) (A) (A)
                 (A) (A) (A) (A) (A) (A) (A) (A) (A) (A) (A) (A)
                 (A) (A) (A) (A) (A) (A) (A) (A) (A) (A) (A) (A)
                 (A) (A) (A) (A) (A) (A) (A) (A) (A) (A) (A) (A)
                 (A) (A) (A) (A) (A) (A) (A) (A) (A) (A) (A) (A)
                 (A) (A) (A) (A) (A) (A) (A) (A) (A) (A) (A) (A)
                 (A) (A) (A) (A) (A) (A) (A) (A) (A) (A) (A) (A)
                 (A) (A) (A) (A) (A) (A) (A) (A) (A) (A) (A) (A)
                 (A) (A) (A) (A) (A) (A) (A) (A) (A) (A) (A) (A)
                 (A) (A) (A) (A) (A) (A) (A) (A) (A) (A) (A) (A)
                 (A) (A) (A) (A) (A) (A) (A) (A) (A) (A) (A) (A)
                 (A) (A) (A) (A) (A) (A) (A) (A) (A) (A) (A) (A)
                 (A) (A) (A) (A) (A) (A)
 The electronic state is 1-A.
 Alpha  occ. eigenvalues --  -66.14308 -19.18939 -19.13559 -19.13190 -10.32016
 Alpha  occ. eigenvalues --  -10.26255 -10.25421 -10.20155 -10.20016 -10.19149
 Alpha  occ. eigenvalues --  -10.19054 -10.19040 -10.17992 -10.17979 -10.17759
 Alpha  occ. eigenvalues --  -10.16069 -10.15812 -10.15737  -5.28343  -3.64445
 Alpha  occ. eigenvalues --   -3.64145  -3.64133  -1.09640  -1.01419  -1.00527
 Alpha  occ. eigenvalues --   -0.82897  -0.80270  -0.77627  -0.74978  -0.71290
 Alpha  occ. eigenvalues --   -0.70009  -0.69469  -0.67659  -0.67446  -0.64542
 Alpha  occ. eigenvalues --   -0.60553  -0.60124  -0.56259  -0.53419  -0.51640
 Alpha  occ. eigenvalues --   -0.50396  -0.48173  -0.47198  -0.46115  -0.45183
 Alpha  occ. eigenvalues --   -0.44972  -0.43321  -0.42295  -0.42242  -0.41612
 Alpha  occ. eigenvalues --   -0.41028  -0.40512  -0.40317  -0.39664  -0.39278
 Alpha  occ. eigenvalues --   -0.38852  -0.38500  -0.38007  -0.37744  -0.37574
 Alpha  occ. eigenvalues --   -0.36626  -0.35766  -0.35177  -0.34969  -0.34363
 Alpha  occ. eigenvalues --   -0.33866  -0.32367  -0.31640  -0.30644  -0.29224
 Alpha  occ. eigenvalues --   -0.28622  -0.26564  -0.26432  -0.25558
 Alpha virt. eigenvalues --    0.00453   0.01480   0.06613   0.07601   0.08577
 Alpha virt. eigenvalues --    0.09247   0.09374   0.10691   0.11438   0.11942
 Alpha virt. eigenvalues --    0.12058   0.12747   0.13120   0.13995   0.14587
 Alpha virt. eigenvalues --    0.14904   0.15364   0.15632   0.16605   0.16707
 Alpha virt. eigenvalues --    0.16979   0.17383   0.17639   0.18244   0.18806
 Alpha virt. eigenvalues --    0.19439   0.19679   0.20300   0.20767   0.21119
 Alpha virt. eigenvalues --    0.21641   0.21901   0.22281   0.23121   0.23746
 Alpha virt. eigenvalues --    0.24409   0.24886   0.26719   0.27346   0.28546
 Alpha virt. eigenvalues --    0.29621   0.30250   0.31765   0.35354   0.36022
 Alpha virt. eigenvalues --    0.37410   0.37709   0.40180   0.40382   0.43495
 Alpha virt. eigenvalues --    0.46556   0.46942   0.47762   0.48781   0.51099
 Alpha virt. eigenvalues --    0.52980   0.53332   0.54124   0.54687   0.55676
 Alpha virt. eigenvalues --    0.57308   0.57994   0.59191   0.60521   0.60943
 Alpha virt. eigenvalues --    0.61403   0.62469   0.63675   0.64221   0.65929
 Alpha virt. eigenvalues --    0.66656   0.67004   0.67384   0.68345   0.68737
 Alpha virt. eigenvalues --    0.69206   0.70900   0.71370   0.72072   0.72970
 Alpha virt. eigenvalues --    0.73752   0.74922   0.75245   0.76411   0.77645
 Alpha virt. eigenvalues --    0.78112   0.79757   0.82135   0.82492   0.83223
 Alpha virt. eigenvalues --    0.83821   0.84187   0.84710   0.85007   0.86177
 Alpha virt. eigenvalues --    0.86657   0.86717   0.87793   0.88212   0.88921
 Alpha virt. eigenvalues --    0.89375   0.90088   0.90315   0.90816   0.91335
 Alpha virt. eigenvalues --    0.91395   0.92086   0.92338   0.92688   0.93187
 Alpha virt. eigenvalues --    0.94108   0.95166   0.95869   0.96557   0.97682
 Alpha virt. eigenvalues --    0.98169   0.99488   0.99654   1.00430   1.01675
 Alpha virt. eigenvalues --    1.02621   1.02791   1.03783   1.05207   1.06271
 Alpha virt. eigenvalues --    1.07968   1.10388   1.12304   1.14698   1.16565
 Alpha virt. eigenvalues --    1.17745   1.20120   1.21182   1.22028   1.26355
 Alpha virt. eigenvalues --    1.26911   1.27909   1.30362   1.31398   1.34468
 Alpha virt. eigenvalues --    1.37609   1.39144   1.40939   1.40972   1.43163
 Alpha virt. eigenvalues --    1.43554   1.44120   1.45740   1.46877   1.48210
 Alpha virt. eigenvalues --    1.48737   1.49967   1.53044   1.53962   1.57635
 Alpha virt. eigenvalues --    1.60332   1.60920   1.61567   1.63381   1.64646
 Alpha virt. eigenvalues --    1.66076   1.66529   1.69136   1.70681   1.72288
 Alpha virt. eigenvalues --    1.74435   1.75502   1.76223   1.77373   1.79583
 Alpha virt. eigenvalues --    1.80846   1.82198   1.83710   1.84764   1.85839
 Alpha virt. eigenvalues --    1.86573   1.87093   1.88784   1.90262   1.91563
 Alpha virt. eigenvalues --    1.92861   1.94223   1.95201   1.95484   1.97610
 Alpha virt. eigenvalues --    1.98806   1.99704   1.99861   2.01541   2.02475
 Alpha virt. eigenvalues --    2.04145   2.05075   2.05200   2.05220   2.05648
 Alpha virt. eigenvalues --    2.05837   2.07274   2.07487   2.08895   2.09233
 Alpha virt. eigenvalues --    2.09365   2.10173   2.10981   2.11763   2.12053
 Alpha virt. eigenvalues --    2.12740   2.12928   2.13133   2.13566   2.14463
 Alpha virt. eigenvalues --    2.14581   2.15143   2.15906   2.16984   2.17826
 Alpha virt. eigenvalues --    2.20390   2.21617   2.22905   2.25356   2.25900
 Alpha virt. eigenvalues --    2.27282   2.29378   2.29968   2.30605   2.31878
 Alpha virt. eigenvalues --    2.32711   2.33855   2.34494   2.35065   2.35884
 Alpha virt. eigenvalues --    2.36928   2.37783   2.38128   2.38917   2.40605
 Alpha virt. eigenvalues --    2.42813   2.44812   2.46984   2.49078   2.49798
 Alpha virt. eigenvalues --    2.51002   2.52661   2.55966   2.56677   2.58269
 Alpha virt. eigenvalues --    2.59392   2.60363   2.62399   2.62567   2.64677
 Alpha virt. eigenvalues --    2.65249   2.67301   2.68091   2.69449   2.69576
 Alpha virt. eigenvalues --    2.70597   2.71065   2.72129   2.74971   2.76270
 Alpha virt. eigenvalues --    2.76922   2.78979   2.79776   2.81061   2.81602
 Alpha virt. eigenvalues --    2.82349   2.83024   2.84258   2.84516   2.84949
 Alpha virt. eigenvalues --    2.85086   2.85651   2.86467   2.88012   2.89831
 Alpha virt. eigenvalues --    2.90488   2.91165   2.92268   2.93356   2.95938
 Alpha virt. eigenvalues --    2.97681   2.99744   3.03671   3.07232   3.11215
 Alpha virt. eigenvalues --    3.18449   3.19511   3.20198   3.20566   3.21168
 Alpha virt. eigenvalues --    3.21900   3.23575   3.25391   3.30768   3.33060
 Alpha virt. eigenvalues --    3.35077   3.38238   3.41361   3.42905   3.43435
 Alpha virt. eigenvalues --    3.44103   3.44243   3.44499   3.45053   3.45218
 Alpha virt. eigenvalues --    3.46161   3.46586   3.48117   3.49187   3.52200
 Alpha virt. eigenvalues --    3.54871   3.55285   3.67034   4.02361   4.14509
 Alpha virt. eigenvalues --    4.20880   4.23618   4.33917   4.41534   4.45552
 Alpha virt. eigenvalues --    4.46035   4.46876   4.51040   4.57110   4.60059
 Alpha virt. eigenvalues --    4.64765   4.67020   4.69961   4.78712   4.82163
          Condensed to atoms (all electrons):
               1          2          3          4          5          6
     1  C    4.818553   0.321719  -0.030412  -0.009776  -0.006780   0.383107
     2  C    0.321719   5.094505   0.341466  -0.048493  -0.015880  -0.048248
     3  C   -0.030412   0.341466   4.818428   0.294209  -0.015831  -0.011606
     4  C   -0.009776  -0.048493   0.294209   5.348123   0.283696   0.001158
     5  C   -0.006780  -0.015880  -0.015831   0.283696   4.356791  -0.001280
     6  H    0.383107  -0.048248  -0.011606   0.001158  -0.001280   0.639047
     7  H   -0.039327   0.376153  -0.043603  -0.007793   0.000743   0.006505
     8  H    0.000398  -0.008022  -0.026399   0.361959  -0.023938   0.000010
     9  H    0.000178   0.005299  -0.027893   0.360832  -0.022836   0.000060
    10  O    0.163206  -0.027989   0.003621  -0.094014   0.260609  -0.040390
    11  O    0.002461  -0.000107   0.001967  -0.080467   0.586207  -0.000017
    12  C    0.373367  -0.036022   0.005176  -0.000517   0.001330  -0.047396
    13  C   -0.037682  -0.009115  -0.000089  -0.000133   0.000309   0.005191
    14  C   -0.037973   0.350768  -0.029003   0.005132   0.000445  -0.005725
    15  O    0.002910  -0.046860   0.187873  -0.025033   0.001710  -0.000044
    16  Si   0.000438  -0.002899  -0.016515   0.001418  -0.000462  -0.000031
    17  C   -0.000002  -0.000122   0.000506  -0.002876  -0.000004   0.000000
    18  C    0.000000  -0.000036   0.000943  -0.000034   0.000000   0.000000
    19  C    0.000001  -0.000060  -0.000770  -0.000425   0.000045   0.000000
    20  H    0.000000   0.000003  -0.000055   0.000001   0.000000   0.000000
    21  H    0.000000   0.000001  -0.000052  -0.000004   0.000000   0.000000
    22  H    0.000000   0.000000  -0.000013   0.000002   0.000000   0.000000
    23  H    0.000000   0.000000  -0.000087  -0.000135   0.000000   0.000000
    24  H    0.000000  -0.000008  -0.000036  -0.000125  -0.000009   0.000000
    25  H    0.000000   0.000001   0.000019   0.000031   0.000000   0.000000
    26  H   -0.000006  -0.000026   0.000182  -0.001286  -0.000019   0.000000
    27  H   -0.000001   0.000024  -0.000266   0.000168   0.000002   0.000000
    28  H    0.000000   0.000011  -0.000006   0.000066   0.000000   0.000000
    29  H   -0.003989  -0.027150   0.004039  -0.000130  -0.000011  -0.000194
    30  H   -0.006046  -0.034756  -0.006016   0.000047  -0.000012   0.006804
    31  H    0.004070  -0.029380  -0.008530   0.000320  -0.000023  -0.000035
    32  H   -0.030481  -0.005493  -0.000053   0.000036  -0.000058  -0.000378
    33  H   -0.030712   0.005156  -0.000083   0.000015   0.000030  -0.005642
    34  H    0.004163   0.000213  -0.000002   0.000001  -0.000010  -0.000131
    35  H   -0.004931   0.001583  -0.000022  -0.000009   0.000025  -0.000051
    36  H   -0.007160  -0.000565  -0.000126   0.000192   0.000504   0.000251
    37  C   -0.001641  -0.056759   0.343368  -0.070182   0.001568   0.004524
    38  C    0.000052   0.004805  -0.036824  -0.006383  -0.000363  -0.000052
    39  C    0.000003  -0.000053  -0.002653   0.000136   0.000011   0.000001
    40  H    0.001726  -0.004760  -0.031464  -0.003970   0.002660   0.000437
    41  H   -0.000442  -0.008543  -0.027360   0.005730  -0.000066   0.000221
    42  H   -0.000017  -0.000073  -0.003719   0.001180   0.000371   0.000010
    43  H    0.000000   0.000002  -0.000007   0.000003  -0.000001   0.000000
    44  H    0.000000  -0.000017   0.000033   0.000018   0.000000   0.000000
               7          8          9         10         11         12
     1  C   -0.039327   0.000398   0.000178   0.163206   0.002461   0.373367
     2  C    0.376153  -0.008022   0.005299  -0.027989  -0.000107  -0.036022
     3  C   -0.043603  -0.026399  -0.027893   0.003621   0.001967   0.005176
     4  C   -0.007793   0.361959   0.360832  -0.094014  -0.080467  -0.000517
     5  C    0.000743  -0.023938  -0.022836   0.260609   0.586207   0.001330
     6  H    0.006505   0.000010   0.000060  -0.040390  -0.000017  -0.047396
     7  H    0.638078   0.004867   0.000081  -0.000300  -0.000032  -0.011721
     8  H    0.004867   0.555569  -0.026927   0.000532  -0.000388  -0.000062
     9  H    0.000081  -0.026927   0.558605   0.002919   0.002444   0.000003
    10  O   -0.000300   0.000532   0.002919   8.341402  -0.083369  -0.049891
    11  O   -0.000032  -0.000388   0.002444  -0.083369   8.070271  -0.000079
    12  C   -0.011721  -0.000062   0.000003  -0.049891  -0.000079   4.942272
    13  C    0.005252   0.000086   0.000002  -0.003385  -0.000011   0.363522
    14  C   -0.040260   0.000004  -0.000131   0.002373   0.000002  -0.002908
    15  O   -0.001066  -0.004032  -0.000093  -0.000002  -0.000014  -0.000038
    16  Si  -0.000053   0.004559   0.002202  -0.000020  -0.000077  -0.000015
    17  C    0.000711   0.001054  -0.000021   0.000000   0.000000   0.000000
    18  C   -0.000026  -0.000004  -0.000002   0.000000   0.000000   0.000000
    19  C    0.000001  -0.001013  -0.000596   0.000000   0.000001   0.000000
    20  H   -0.000007  -0.000001   0.000000   0.000000   0.000000   0.000000
    21  H    0.000000   0.000001   0.000000   0.000000   0.000000   0.000000
    22  H    0.000000   0.000001   0.000000   0.000000   0.000000   0.000000
    23  H    0.000000   0.000045   0.000310   0.000000   0.000000   0.000000
    24  H   -0.000002   0.000021   0.001510   0.000000  -0.000003   0.000000
    25  H    0.000000   0.000017   0.000026   0.000000   0.000000   0.000000
    26  H    0.000114   0.003435   0.000000   0.000000   0.000000   0.000000
    27  H    0.000658  -0.000145   0.000004   0.000000   0.000000   0.000000
    28  H    0.000009  -0.000032   0.000000   0.000000   0.000000   0.000000
    29  H   -0.006614  -0.000007   0.000002  -0.000012   0.000000   0.001250
    30  H    0.005442   0.000003   0.000004   0.000029   0.000000  -0.001108
    31  H   -0.001670   0.000008  -0.000007  -0.000047   0.000000   0.000013
    32  H    0.000191  -0.000001   0.000000   0.003292   0.000001   0.373265
    33  H    0.000078   0.000001  -0.000001   0.000462  -0.000010   0.379806
    34  H   -0.000161   0.000000   0.000000   0.000074   0.000000  -0.027517
    35  H    0.002480  -0.000007   0.000000  -0.000062   0.000000  -0.034383
    36  H    0.000676   0.000048  -0.000001   0.007860  -0.000060  -0.037528
    37  C    0.005990   0.005644  -0.008695  -0.002622   0.000166  -0.000076
    38  C   -0.000123  -0.000007   0.004578   0.000006  -0.000058  -0.000001
    39  C   -0.000001  -0.000009   0.000182   0.000000   0.000000   0.000000
    40  H   -0.000066   0.000017   0.000258   0.001847  -0.000271   0.000181
    41  H    0.000047  -0.000154   0.000017   0.000050   0.000001  -0.000019
    42  H    0.000003   0.000020   0.002072  -0.000004   0.000088   0.000000
    43  H    0.000000   0.000000   0.000012   0.000000   0.000000   0.000000
    44  H    0.000000   0.000001   0.000005   0.000000   0.000000   0.000000
              13         14         15         16         17         18
     1  C   -0.037682  -0.037973   0.002910   0.000438  -0.000002   0.000000
     2  C   -0.009115   0.350768  -0.046860  -0.002899  -0.000122  -0.000036
     3  C   -0.000089  -0.029003   0.187873  -0.016515   0.000506   0.000943
     4  C   -0.000133   0.005132  -0.025033   0.001418  -0.002876  -0.000034
     5  C    0.000309   0.000445   0.001710  -0.000462  -0.000004   0.000000
     6  H    0.005191  -0.005725  -0.000044  -0.000031   0.000000   0.000000
     7  H    0.005252  -0.040260  -0.001066  -0.000053   0.000711  -0.000026
     8  H    0.000086   0.000004  -0.004032   0.004559   0.001054  -0.000004
     9  H    0.000002  -0.000131  -0.000093   0.002202  -0.000021  -0.000002
    10  O   -0.003385   0.002373  -0.000002  -0.000020   0.000000   0.000000
    11  O   -0.000011   0.000002  -0.000014  -0.000077   0.000000   0.000000
    12  C    0.363522  -0.002908  -0.000038  -0.000015   0.000000   0.000000
    13  C    4.924310  -0.000661  -0.000002  -0.000028  -0.000003   0.000000
    14  C   -0.000661   4.966851  -0.008135   0.000304  -0.000007  -0.000031
    15  O   -0.000002  -0.008135   8.316322   0.332850  -0.017427  -0.025594
    16  Si  -0.000028   0.000304   0.332850  11.845011   0.363404   0.378462
    17  C   -0.000003  -0.000007  -0.017427   0.363404   5.150672  -0.028787
    18  C    0.000000  -0.000031  -0.025594   0.378462  -0.028787   5.115906
    19  C    0.000000  -0.000001  -0.015835   0.363474  -0.033544  -0.027482
    20  H    0.000000  -0.000022  -0.000590  -0.023736  -0.001315   0.376848
    21  H    0.000000   0.000000  -0.000532  -0.022863   0.001191   0.377488
    22  H    0.000000   0.000000   0.000680  -0.014902  -0.000316   0.367948
    23  H    0.000000   0.000000  -0.000765  -0.024670   0.001188  -0.001108
    24  H    0.000000   0.000000  -0.000378  -0.023536  -0.001299   0.001216
    25  H    0.000000   0.000000   0.000537  -0.013755  -0.000052  -0.000789
    26  H    0.000001   0.000000  -0.000583  -0.026721   0.375660   0.001231
    27  H   -0.000001   0.000032  -0.000633  -0.025305   0.377769  -0.001113
    28  H    0.000000   0.000000   0.000561  -0.013545   0.367765  -0.000650
    29  H    0.000370   0.379832   0.000108  -0.000051   0.000000   0.000000
    30  H    0.000085   0.383332   0.000072  -0.000144   0.000001   0.000001
    31  H   -0.000012   0.379903   0.010692   0.002398  -0.000104  -0.000058
    32  H   -0.035285   0.002380   0.000000  -0.000002   0.000000   0.000000
    33  H   -0.039209  -0.000025   0.000000   0.000001   0.000000   0.000000
    34  H    0.383305  -0.000013   0.000000   0.000001   0.000000   0.000000
    35  H    0.386877   0.000241   0.000003  -0.000002  -0.000001   0.000000
    36  H    0.388625   0.000068   0.000000  -0.000007   0.000001   0.000000
    37  C    0.000003  -0.009575  -0.063915  -0.003381  -0.000053  -0.000010
    38  C    0.000000   0.000058   0.000329   0.006213   0.000004  -0.000131
    39  C    0.000000  -0.000009   0.000666   0.005267   0.000001  -0.000145
    40  H   -0.000002   0.000144   0.003860   0.000465   0.000002   0.000000
    41  H    0.000000   0.003104  -0.001064   0.000289   0.000000  -0.000015
    42  H    0.000000  -0.000001  -0.000053  -0.000364   0.000001   0.000000
    43  H    0.000000   0.000000   0.000003   0.000010   0.000000   0.000000
    44  H    0.000000  -0.000007   0.000070   0.000176   0.000000  -0.000008
              19         20         21         22         23         24
     1  C    0.000001   0.000000   0.000000   0.000000   0.000000   0.000000
     2  C   -0.000060   0.000003   0.000001   0.000000   0.000000  -0.000008
     3  C   -0.000770  -0.000055  -0.000052  -0.000013  -0.000087  -0.000036
     4  C   -0.000425   0.000001  -0.000004   0.000002  -0.000135  -0.000125
     5  C    0.000045   0.000000   0.000000   0.000000   0.000000  -0.000009
     6  H    0.000000   0.000000   0.000000   0.000000   0.000000   0.000000
     7  H    0.000001  -0.000007   0.000000   0.000000   0.000000  -0.000002
     8  H   -0.001013  -0.000001   0.000001   0.000001   0.000045   0.000021
     9  H   -0.000596   0.000000   0.000000   0.000000   0.000310   0.001510
    10  O    0.000000   0.000000   0.000000   0.000000   0.000000   0.000000
    11  O    0.000001   0.000000   0.000000   0.000000   0.000000  -0.000003
    12  C    0.000000   0.000000   0.000000   0.000000   0.000000   0.000000
    13  C    0.000000   0.000000   0.000000   0.000000   0.000000   0.000000
    14  C   -0.000001  -0.000022   0.000000   0.000000   0.000000   0.000000
    15  O   -0.015835  -0.000590  -0.000532   0.000680  -0.000765  -0.000378
    16  Si   0.363474  -0.023736  -0.022863  -0.014902  -0.024670  -0.023536
    17  C   -0.033544  -0.001315   0.001191  -0.000316   0.001188  -0.001299
    18  C   -0.027482   0.376848   0.377488   0.367948  -0.001108   0.001216
    19  C    5.150550   0.001200  -0.001261  -0.000341   0.376737   0.376625
    20  H    0.001200   0.574087  -0.022486  -0.024344  -0.000003  -0.000021
    21  H   -0.001261  -0.022486   0.569254  -0.024149   0.000463   0.000007
    22  H   -0.000341  -0.024344  -0.024149   0.578005  -0.000043  -0.000002
    23  H    0.376737  -0.000003   0.000463  -0.000043   0.566973  -0.023367
    24  H    0.376625  -0.000021   0.000007  -0.000002  -0.023367   0.575228
    25  H    0.366503   0.000009  -0.000035   0.000026  -0.022846  -0.024061
    26  H   -0.001101   0.000006  -0.000021  -0.000001  -0.000001   0.000563
    27  H    0.001212   0.000508  -0.000001  -0.000040  -0.000020   0.000003
    28  H   -0.000115  -0.000022   0.000009   0.000068   0.000009  -0.000046
    29  H    0.000000   0.000000   0.000000   0.000000   0.000000   0.000000
    30  H    0.000000   0.000000   0.000000   0.000000   0.000000   0.000000
    31  H    0.000008   0.000318  -0.000007   0.000001   0.000000   0.000000
    32  H    0.000000   0.000000   0.000000   0.000000   0.000000   0.000000
    33  H    0.000000   0.000000   0.000000   0.000000   0.000000   0.000000
    34  H    0.000000   0.000000   0.000000   0.000000   0.000000   0.000000
    35  H    0.000000   0.000000   0.000000   0.000000   0.000000   0.000000
    36  H    0.000000   0.000000   0.000000   0.000000   0.000000   0.000000
    37  C    0.000078  -0.000003   0.000014   0.000000   0.000017   0.000031
    38  C   -0.001178   0.000000   0.000005   0.000000   0.001801  -0.000074
    39  C   -0.000920  -0.000002   0.000098  -0.000001   0.001788  -0.000022
    40  H   -0.000006   0.000000   0.000000   0.000000   0.000003  -0.000001
    41  H    0.000003  -0.000001   0.000000   0.000000   0.000003  -0.000001
    42  H    0.000042   0.000000   0.000000   0.000000   0.000103  -0.000007
    43  H   -0.000025   0.000000  -0.000001   0.000000   0.000161   0.000000
    44  H   -0.000001   0.000000   0.000057   0.000000  -0.000012   0.000000
              25         26         27         28         29         30
     1  C    0.000000  -0.000006  -0.000001   0.000000  -0.003989  -0.006046
     2  C    0.000001  -0.000026   0.000024   0.000011  -0.027150  -0.034756
     3  C    0.000019   0.000182  -0.000266  -0.000006   0.004039  -0.006016
     4  C    0.000031  -0.001286   0.000168   0.000066  -0.000130   0.000047
     5  C    0.000000  -0.000019   0.000002   0.000000  -0.000011  -0.000012
     6  H    0.000000   0.000000   0.000000   0.000000  -0.000194   0.006804
     7  H    0.000000   0.000114   0.000658   0.000009  -0.006614   0.005442
     8  H    0.000017   0.003435  -0.000145  -0.000032  -0.000007   0.000003
     9  H    0.000026   0.000000   0.000004   0.000000   0.000002   0.000004
    10  O    0.000000   0.000000   0.000000   0.000000  -0.000012   0.000029
    11  O    0.000000   0.000000   0.000000   0.000000   0.000000   0.000000
    12  C    0.000000   0.000000   0.000000   0.000000   0.001250  -0.001108
    13  C    0.000000   0.000001  -0.000001   0.000000   0.000370   0.000085
    14  C    0.000000   0.000000   0.000032   0.000000   0.379832   0.383332
    15  O    0.000537  -0.000583  -0.000633   0.000561   0.000108   0.000072
    16  Si  -0.013755  -0.026721  -0.025305  -0.013545  -0.000051  -0.000144
    17  C   -0.000052   0.375660   0.377769   0.367765   0.000000   0.000001
    18  C   -0.000789   0.001231  -0.001113  -0.000650   0.000000   0.000001
    19  C    0.366503  -0.001101   0.001212  -0.000115   0.000000   0.000000
    20  H    0.000009   0.000006   0.000508  -0.000022   0.000000   0.000000
    21  H   -0.000035  -0.000021  -0.000001   0.000009   0.000000   0.000000
    22  H    0.000026  -0.000001  -0.000040   0.000068   0.000000   0.000000
    23  H   -0.022846  -0.000001  -0.000020   0.000009   0.000000   0.000000
    24  H   -0.024061   0.000563   0.000003  -0.000046   0.000000   0.000000
    25  H    0.575561  -0.000034   0.000004   0.000043   0.000000   0.000000
    26  H   -0.000034   0.577384  -0.023108  -0.023526   0.000000   0.000000
    27  H    0.000004  -0.023108   0.574330  -0.023942   0.000001   0.000000
    28  H    0.000043  -0.023526  -0.023942   0.571789   0.000000   0.000000
    29  H    0.000000   0.000000   0.000001   0.000000   0.597153  -0.032099
    30  H    0.000000   0.000000   0.000000   0.000000  -0.032099   0.596668
    31  H    0.000000  -0.000001   0.000012   0.000000  -0.027718  -0.028298
    32  H    0.000000   0.000000   0.000000   0.000000   0.001120   0.000506
    33  H    0.000000   0.000000   0.000000   0.000000  -0.000020  -0.000037
    34  H    0.000000   0.000000   0.000000   0.000000  -0.000039   0.000001
    35  H    0.000000   0.000004   0.000024   0.000000   0.000751  -0.000019
    36  H    0.000000   0.000001   0.000000   0.000000  -0.000022  -0.000001
    37  C    0.000001  -0.000006  -0.000003   0.000001   0.000110   0.001749
    38  C    0.000018   0.000001   0.000000   0.000000  -0.000001  -0.000005
    39  C    0.000010   0.000000   0.000000   0.000000   0.000000  -0.000004
    40  H    0.000000   0.000000   0.000000   0.000000  -0.000015   0.000022
    41  H    0.000000   0.000000   0.000000   0.000000  -0.000116   0.002339
    42  H    0.000002   0.000000   0.000000   0.000000   0.000000   0.000001
    43  H    0.000000   0.000000   0.000000   0.000000   0.000000   0.000000
    44  H    0.000000   0.000000   0.000000   0.000000   0.000000  -0.000002
              31         32         33         34         35         36
     1  C    0.004070  -0.030481  -0.030712   0.004163  -0.004931  -0.007160
     2  C   -0.029380  -0.005493   0.005156   0.000213   0.001583  -0.000565
     3  C   -0.008530  -0.000053  -0.000083  -0.000002  -0.000022  -0.000126
     4  C    0.000320   0.000036   0.000015   0.000001  -0.000009   0.000192
     5  C   -0.000023  -0.000058   0.000030  -0.000010   0.000025   0.000504
     6  H   -0.000035  -0.000378  -0.005642  -0.000131  -0.000051   0.000251
     7  H   -0.001670   0.000191   0.000078  -0.000161   0.002480   0.000676
     8  H    0.000008  -0.000001   0.000001   0.000000  -0.000007   0.000048
     9  H   -0.000007   0.000000  -0.000001   0.000000   0.000000  -0.000001
    10  O   -0.000047   0.003292   0.000462   0.000074  -0.000062   0.007860
    11  O    0.000000   0.000001  -0.000010   0.000000   0.000000  -0.000060
    12  C    0.000013   0.373265   0.379806  -0.027517  -0.034383  -0.037528
    13  C   -0.000012  -0.035285  -0.039209   0.383305   0.386877   0.388625
    14  C    0.379903   0.002380  -0.000025  -0.000013   0.000241   0.000068
[...]
    16  Si   0.362762  -0.023645  -0.022884  -0.014883  -0.024385  -0.023524
    17  C   -0.033601  -0.001326   0.001193  -0.000277   0.001190  -0.001389
    18  C   -0.027312   0.376873   0.377385   0.367981  -0.001020   0.001211
    19  C    5.152799   0.001197  -0.001231  -0.000386   0.376209   0.376526
    20  H    0.001197   0.574112  -0.022531  -0.024378  -0.000005  -0.000021
    21  H   -0.001231  -0.022531   0.569421  -0.024082   0.000420   0.000006
    22  H   -0.000386  -0.024378  -0.024082   0.577961  -0.000038  -0.000002
    23  H    0.376209  -0.000005   0.000420  -0.000038   0.566898  -0.023535
    24  H    0.376526  -0.000021   0.000006  -0.000002  -0.023535   0.575711
    25  H    0.366757   0.000010  -0.000033   0.000045  -0.022719  -0.024068
    26  H   -0.001160   0.000007  -0.000021  -0.000001   0.000001   0.000607
    27  H    0.001224   0.000502  -0.000002  -0.000037  -0.000020   0.000006
    28  H   -0.000068  -0.000025   0.000009   0.000054   0.000009  -0.000051
    29  H    0.000000   0.000000   0.000000   0.000000   0.000000   0.000000
    30  H    0.000000   0.000000   0.000000   0.000000   0.000000   0.000000
    31  H    0.000009   0.000304  -0.000007   0.000001   0.000000   0.000000
    32  H    0.000000   0.000000   0.000000   0.000000   0.000000   0.000000
    33  H    0.000000   0.000000   0.000000   0.000000   0.000000   0.000000
    34  H    0.000000   0.000000   0.000000   0.000000   0.000000   0.000000
    35  H    0.000000   0.000000   0.000000   0.000000   0.000000   0.000000
    36  H    0.000000   0.000000   0.000000   0.000000   0.000000   0.000000
    37  C    0.000081  -0.000003   0.000014   0.000000   0.000007   0.000031
    38  C   -0.001333   0.000000   0.000009   0.000000   0.002063  -0.000060
    39  C   -0.001020  -0.000003   0.000124  -0.000001   0.001981  -0.000019
    40  H   -0.000006   0.000000   0.000000   0.000000   0.000003  -0.000001
    41  H    0.000003   0.000000   0.000000   0.000000   0.000003  -0.000001
    42  H    0.000029   0.000000   0.000001   0.000000   0.000119  -0.000010
    43  H   -0.000026   0.000000  -0.000002   0.000000   0.000169   0.000000
    44  H   -0.000002  -0.000001   0.000074   0.000000  -0.000012   0.000000
              25         26         27         28         29         30
     1  C    0.000000  -0.000005  -0.000001   0.000000  -0.004071  -0.005976
     2  C    0.000001  -0.000030   0.000034   0.000010  -0.027191  -0.034769
     3  C    0.000018   0.000184  -0.000260  -0.000007   0.004043  -0.006006
     4  C    0.000032  -0.001159   0.000155   0.000059  -0.000129   0.000049
     5  C    0.000000  -0.000019   0.000002   0.000000  -0.000011  -0.000011
     6  H    0.000000   0.000000   0.000000   0.000000  -0.000192   0.006656
     7  H    0.000000   0.000130   0.000596   0.000009  -0.006599   0.005445
     8  H    0.000017   0.003219  -0.000133  -0.000027  -0.000007   0.000003
     9  H    0.000028  -0.000002   0.000003   0.000000   0.000002   0.000004
    10  O    0.000000   0.000000   0.000000   0.000000  -0.000011   0.000028
    11  O    0.000000   0.000000   0.000000   0.000000   0.000000   0.000000
    12  C    0.000000   0.000000   0.000000   0.000000   0.001284  -0.001141
    13  C    0.000000   0.000001  -0.000001   0.000000   0.000380   0.000090
    14  C    0.000000  -0.000001   0.000031   0.000000   0.379872   0.383331
    15  O    0.000532  -0.000595  -0.000631   0.000565   0.000113   0.000068
    16  Si  -0.013796  -0.026617  -0.025260  -0.013518  -0.000051  -0.000144
    17  C   -0.000013   0.375691   0.377745   0.367886   0.000000   0.000001
    18  C   -0.000843   0.001227  -0.001109  -0.000625   0.000000   0.000001
    19  C    0.366757  -0.001160   0.001224  -0.000068   0.000000   0.000000
    20  H    0.000010   0.000007   0.000502  -0.000025   0.000000   0.000000
    21  H   -0.000033  -0.000021  -0.000002   0.000009   0.000000   0.000000
    22  H    0.000045  -0.000001  -0.000037   0.000054   0.000000   0.000000
    23  H   -0.022719   0.000001  -0.000020   0.000009   0.000000   0.000000
    24  H   -0.024068   0.000607   0.000006  -0.000051   0.000000   0.000000
    25  H    0.575189  -0.000031   0.000003   0.000033   0.000000   0.000000
    26  H   -0.000031   0.578109  -0.023250  -0.023701   0.000000   0.000000
    27  H    0.000003  -0.023250   0.574647  -0.023849   0.000001   0.000000
    28  H    0.000033  -0.023701  -0.023849   0.571911   0.000000   0.000000
    29  H    0.000000   0.000000   0.000001   0.000000   0.597166  -0.032136
    30  H    0.000000   0.000000   0.000000   0.000000  -0.032136   0.596904
    31  H    0.000000  -0.000001   0.000016   0.000000  -0.027715  -0.028303
    32  H    0.000000   0.000000   0.000000   0.000000   0.001055   0.000523
    33  H    0.000000   0.000000   0.000000   0.000000  -0.000018  -0.000037
    34  H    0.000000   0.000000   0.000000   0.000000  -0.000041   0.000002
    35  H    0.000000   0.000003   0.000019   0.000000   0.000819  -0.000020
    36  H    0.000000   0.000001   0.000000   0.000000  -0.000023  -0.000001
    37  C    0.000001  -0.000005  -0.000003   0.000001   0.000101   0.001801
    38  C    0.000018   0.000001   0.000000   0.000000  -0.000001  -0.000006
    39  C    0.000011   0.000000   0.000000   0.000000   0.000000  -0.000004
    40  H    0.000000   0.000000   0.000000   0.000000  -0.000014   0.000017
    41  H    0.000000   0.000000   0.000000   0.000000  -0.000113   0.002334
    42  H    0.000002   0.000000   0.000000   0.000000   0.000000   0.000001
    43  H    0.000000   0.000000   0.000000   0.000000   0.000000   0.000000
    44  H    0.000000   0.000000   0.000000   0.000000   0.000000  -0.000002
              31         32         33         34         35         36
     1  C    0.004082  -0.030541  -0.030803   0.004180  -0.004983  -0.007221
     2  C   -0.029256  -0.005579   0.005184   0.000214   0.001622  -0.000601
     3  C   -0.008549  -0.000053  -0.000083  -0.000002  -0.000018  -0.000126
     4  C    0.000316   0.000035   0.000014   0.000001  -0.000009   0.000193
     5  C   -0.000023  -0.000059   0.000031  -0.000010   0.000024   0.000493
     6  H   -0.000045  -0.000359  -0.005647  -0.000131  -0.000051   0.000255
     7  H   -0.001702   0.000208   0.000074  -0.000159   0.002390   0.000715
     8  H    0.000008  -0.000001   0.000001   0.000000  -0.000008   0.000041
     9  H   -0.000007   0.000000  -0.000001   0.000000   0.000000  -0.000001
    10  O   -0.000048   0.003311   0.000477   0.000077  -0.000060   0.008004
    11  O    0.000000   0.000001  -0.000010   0.000000   0.000000  -0.000058
    12  C    0.000019   0.373325   0.379760  -0.027562  -0.034398  -0.037515
    13  C   -0.000012  -0.035216  -0.039168   0.383241   0.386881   0.388639
    14  C    0.379916   0.002440  -0.000023  -0.000012   0.000245   0.000073
    15  O    0.010711   0.000000   0.000000   0.000000   0.000003   0.000000
    16  Si   0.002418  -0.000002   0.000001   0.000001  -0.000002  -0.000007
    17  C   -0.000108   0.000000   0.000000   0.000000  -0.000002   0.000001
    18  C   -0.000056   0.000000   0.000000   0.000000   0.000000   0.000000
    19  C    0.000009   0.000000   0.000000   0.000000   0.000000   0.000000
    20  H    0.000304   0.000000   0.000000   0.000000   0.000000   0.000000
    21  H   -0.000007   0.000000   0.000000   0.000000   0.000000   0.000000
    22  H    0.000001   0.000000   0.000000   0.000000   0.000000   0.000000
    23  H    0.000000   0.000000   0.000000   0.000000   0.000000   0.000000
    24  H    0.000000   0.000000   0.000000   0.000000   0.000000   0.000000
    25  H    0.000000   0.000000   0.000000   0.000000   0.000000   0.000000
    26  H   -0.000001   0.000000   0.000000   0.000000   0.000003   0.000001
    27  H    0.000016   0.000000   0.000000   0.000000   0.000019   0.000000
    28  H    0.000000   0.000000   0.000000   0.000000   0.000000   0.000000
    29  H   -0.027715   0.001055  -0.000018  -0.000041   0.000819  -0.000023
    30  H   -0.028303   0.000523  -0.000037   0.000002  -0.000020  -0.000001
    31  H    0.563876  -0.000004   0.000001   0.000000  -0.000014   0.000002
    32  H   -0.000004   0.614155  -0.032307  -0.002337  -0.005174   0.005282
    33  H    0.000001  -0.032307   0.609212  -0.004417   0.005015  -0.003337
    34  H    0.000000  -0.002337  -0.004417   0.595374  -0.030374  -0.029888
    35  H   -0.000014  -0.005174   0.005015  -0.030374   0.599295  -0.032468
    36  H    0.000002   0.005282  -0.003337  -0.029888  -0.032468   0.588078
    37  C   -0.000535  -0.000005   0.000000   0.000000  -0.000002   0.000001
    38  C   -0.000059   0.000000   0.000000   0.000000   0.000000   0.000000
    39  C    0.000000   0.000000   0.000000   0.000000   0.000000   0.000000
    40  H    0.000034   0.000000   0.000001   0.000000   0.000000   0.000000
    41  H    0.001198  -0.000001   0.000001   0.000000   0.000000   0.000000
    42  H    0.000000   0.000000   0.000000   0.000000   0.000000   0.000000
    43  H    0.000000   0.000000   0.000000   0.000000   0.000000   0.000000
    44  H    0.000003   0.000000   0.000000   0.000000   0.000000   0.000000
              37         38         39         40         41         42
     1  C   -0.001756   0.000058   0.000003   0.001672  -0.000422  -0.000018
     2  C   -0.056570   0.004796  -0.000053  -0.004859  -0.008396  -0.000072
     3  C    0.343047  -0.036729  -0.002636  -0.031535  -0.027229  -0.003705
     4  C   -0.070126  -0.006424   0.000139  -0.003788   0.005698   0.001124
     5  C    0.001559  -0.000366   0.000011   0.002558  -0.000064   0.000377
     6  H    0.004466  -0.000054   0.000001   0.000551   0.000235   0.000011
     7  H    0.005996  -0.000122  -0.000001  -0.000065   0.000040   0.000003
     8  H    0.005630  -0.000003  -0.000010   0.000011  -0.000153   0.000020
     9  H   -0.008802   0.004686   0.000190   0.000254   0.000022   0.002072
    10  O   -0.002512   0.000004   0.000000   0.001741   0.000048  -0.000004
    11  O    0.000152  -0.000056   0.000000  -0.000253   0.000001   0.000084
    12  C   -0.000069  -0.000001   0.000000   0.000181  -0.000020   0.000000
    13  C    0.000003   0.000000   0.000000  -0.000002   0.000000   0.000000
    14  C   -0.009500   0.000057  -0.000009   0.000157   0.003034  -0.000001
    15  O   -0.063866   0.000382   0.000652   0.003868  -0.001079  -0.000038
    16  Si  -0.003439   0.006285   0.005408   0.000471   0.000298  -0.000354
    17  C   -0.000052   0.000004   0.000001   0.000002   0.000000   0.000001
    18  C   -0.000005  -0.000141  -0.000163   0.000000  -0.000016   0.000000
    19  C    0.000081  -0.001333  -0.001020  -0.000006   0.000003   0.000029
    20  H   -0.000003   0.000000  -0.000003   0.000000   0.000000   0.000000
    21  H    0.000014   0.000009   0.000124   0.000000   0.000000   0.000001
    22  H    0.000000   0.000000  -0.000001   0.000000   0.000000   0.000000
    23  H    0.000007   0.002063   0.001981   0.000003   0.000003   0.000119
    24  H    0.000031  -0.000060  -0.000019  -0.000001  -0.000001  -0.000010
    25  H    0.000001   0.000018   0.000011   0.000000   0.000000   0.000002
    26  H   -0.000005   0.000001   0.000000   0.000000   0.000000   0.000000
    27  H   -0.000003   0.000000   0.000000   0.000000   0.000000   0.000000
    28  H    0.000001   0.000000   0.000000   0.000000   0.000000   0.000000
    29  H    0.000101  -0.000001   0.000000  -0.000014  -0.000113   0.000000
    30  H    0.001801  -0.000006  -0.000004   0.000017   0.002334   0.000001
    31  H   -0.000535  -0.000059   0.000000   0.000034   0.001198   0.000000
    32  H   -0.000005   0.000000   0.000000   0.000000  -0.000001   0.000000
    33  H    0.000000   0.000000   0.000000   0.000001   0.000001   0.000000
    34  H    0.000000   0.000000   0.000000   0.000000   0.000000   0.000000
    35  H   -0.000002   0.000000   0.000000   0.000000   0.000000   0.000000
    36  H    0.000001   0.000000   0.000000   0.000000   0.000000   0.000000
    37  C    5.060290   0.384304  -0.035096   0.356629   0.374018  -0.051732
    38  C    0.384304   4.744323   0.671143  -0.033039  -0.037980   0.381774
    39  C   -0.035096   0.671143   4.907669   0.001153  -0.007577  -0.044231
    40  H    0.356629  -0.033039   0.001153   0.626226  -0.031138  -0.002709
    41  H    0.374018  -0.037980  -0.007577  -0.031138   0.600806   0.005004
    42  H   -0.051732   0.381774  -0.044231  -0.002709   0.005004   0.615768
    43  H    0.004715  -0.025428   0.375484  -0.000210   0.000079  -0.008619
    44  H   -0.012471  -0.034417   0.382015   0.000159   0.006768   0.005917
              43         44
     1  C    0.000000   0.000000
     2  C    0.000002  -0.000017
     3  C   -0.000007   0.000030
     4  C    0.000003   0.000018
     5  C   -0.000001   0.000000
     6  H    0.000000   0.000000
     7  H    0.000000   0.000000
     8  H    0.000000   0.000001
     9  H    0.000012   0.000005
    10  O    0.000000   0.000000
    11  O    0.000000   0.000000
    12  C    0.000000   0.000000
    13  C    0.000000   0.000000
    14  C    0.000000  -0.000006
    15  O    0.000002   0.000074
    16  Si   0.000011   0.000180
    17  C    0.000000   0.000000
    18  C    0.000000  -0.000010
    19  C   -0.000026  -0.000002
    20  H    0.000000  -0.000001
    21  H   -0.000002   0.000074
    22  H    0.000000   0.000000
    23  H    0.000169  -0.000012
    24  H    0.000000   0.000000
    25  H    0.000000   0.000000
    26  H    0.000000   0.000000
    27  H    0.000000   0.000000
    28  H    0.000000   0.000000
    29  H    0.000000   0.000000
    30  H    0.000000  -0.000002
    31  H    0.000000   0.000003
    32  H    0.000000   0.000000
    33  H    0.000000   0.000000
    34  H    0.000000   0.000000
    35  H    0.000000   0.000000
    36  H    0.000000   0.000000
    37  C    0.004715  -0.012471
    38  C   -0.025428  -0.034417
    39  C    0.375484   0.382015
    40  H   -0.000210   0.000159
    41  H    0.000079   0.006768
    42  H   -0.008619   0.005917
    43  H    0.592792  -0.043779
    44  H   -0.043779   0.592632
 Mulliken charges:
               1
     1  C    0.170509
     2  C   -0.090066
     3  C    0.318060
     4  C   -0.312616
     5  C    0.590668
     6  H    0.113917
     7  H    0.104649
     8  H    0.153399
     9  H    0.145759
    10  O   -0.485741
    11  O   -0.498890
    12  C   -0.190926
    13  C   -0.332345
    14  C   -0.340466
    15  O   -0.646247
    16  Si   0.906368
    17  C   -0.553241
    18  C   -0.534053
    19  C   -0.552913
    20  H    0.119604
    21  H    0.122731
    22  H    0.117372
    23  H    0.123253
    24  H    0.117613
    25  H    0.118806
    26  H    0.117418
    27  H    0.119573
    28  H    0.121325
    29  H    0.113488
    30  H    0.111299
    31  H    0.133531
    32  H    0.111300
    33  H    0.116077
    34  H    0.111844
    35  H    0.111264
    36  H    0.119470
    37  C   -0.226299
    38  C   -0.023684
    39  C   -0.255164
    40  H    0.111932
    41  H    0.114596
    42  H    0.099188
    43  H    0.104802
    44  H    0.102839
 Sum of Mulliken charges =   0.00000
 Mulliken charges with hydrogens summed into heavy atoms:
               1
     1  C    0.284426
     2  C    0.014583
     3  C    0.318060
     4  C   -0.013458
     5  C    0.590668
    10  O   -0.485741
    11  O   -0.498890
    12  C    0.036452
    13  C    0.010233
    14  C    0.017852
    15  O   -0.646247
    16  Si   0.906368
    17  C   -0.194927
    18  C   -0.174346
    19  C   -0.193242
    37  C    0.000229
    38  C    0.075503
    39  C   -0.047522
 Electronic spatial extent (au):  <R**2>=           5375.0835
 Charge=              0.0000 electrons
 Dipole moment (field-independent basis, Debye):
    X=              1.5739    Y=             -2.9141    Z=             -3.2747  Tot=              4.6576
 Quadrupole moment (field-independent basis, Debye-Ang):
   XX=           -118.1943   YY=           -119.7916   ZZ=           -124.7816
   XY=              7.1615   XZ=             12.8303   YZ=             -7.4213
 Traceless Quadrupole moment (field-independent basis, Debye-Ang):
   XX=              2.7282   YY=              1.1309   ZZ=             -3.8592
   XY=              7.1615   XZ=             12.8303   YZ=             -7.4213
 Octapole moment (field-independent basis, Debye-Ang**2):
  XXX=              0.3523  YYY=             -5.7099  ZZZ=            -23.2965  XYY=             11.6300
  XXY=            -20.3045  XXZ=            -22.1453  XZZ=             15.0901  YZZ=            -18.8722
  YYZ=             -8.9175  XYZ=             12.3379
 Hexadecapole moment (field-independent basis, Debye-Ang**3):
 XXXX=          -3974.4466 YYYY=          -1930.2555 ZZZZ=          -1329.8547 XXXY=             36.2020
 XXXZ=             64.2326 YYYX=             15.7877 YYYZ=             25.4244 ZZZX=             30.5756
 ZZZY=            -44.4305 XXYY=           -967.4571 XXZZ=           -923.3045 YYZZ=           -569.1712
 XXYZ=            -50.6806 YYXZ=             29.8320 ZZXY=             39.2546
 N-N= 1.630438576237D+03 E-N=-5.751199845532D+03  KE= 1.055898684246D+03
 1\1\GINC-SWANNODE-0-15\FOpt\RB3LYP\6-31G(d,p)\C14H26O3Si1\KE291\06-Feb
 -2019\0\\# b3lyp/6-31g(d,p) Opt=(maxcycles=50) scrf=(solvent=chlorofor
 m)\\P_ng_correct1ginp015\\0,1\C,1.1362537856,-0.4897338674,0.604124677
 8\C,-0.3977562226,-0.5537780468,0.6347875966\C,-0.9997508005,0.6198228
 552,1.4615713489\C,-0.5125727184,1.9133870384,0.7888519926\C,0.9867284
 182,1.9964381867,0.5707832089\H,1.5172814201,-0.7782157907,1.591500697
 9\H,-0.772787803,-0.3992308194,-0.3846042813\H,-0.9601238619,1.9808484
 952,-0.2104293343\H,-0.8122856495,2.8099491112,1.3323449979\O,1.671824
 1196,0.8527956838,0.3698731501\O,1.5789606833,3.0532689083,0.502678490
 1\C,1.815874,-1.3846422395,-0.4399047476\C,1.4135170351,-1.1182452068,
 -1.8935404879\C,-0.8668783653,-1.9391434229,1.1028826844\O,-2.41431504
 68,0.5009748779,1.4251760261\Si,-3.726465691,1.2834701484,0.7276056212
 \C,-3.6857304262,1.1667264066,-1.1577467361\C,-5.2045101393,0.32591487
 74,1.3881543893\C,-3.841707317,3.0918016881,1.2542379618\H,-5.16062277
 08,-0.726052529,1.0873698059\H,-5.2408624414,0.3611652695,2.4817746931
 \H,-6.1428942547,0.7443495409,1.0073496112\H,-3.7551478618,3.187867788
 3,2.3410473386\H,-3.0672748906,3.7156784331,0.7968815088\H,-4.81292912
 98,3.5040577274,0.9562639711\H,-2.8680495689,1.7426452836,-1.603789505
 9\H,-3.5857782873,0.1276834682,-1.4894485641\H,-4.621033985,1.55858286
 53,-1.5749817297\H,-0.6432231088,-2.7028436445,0.3533666504\H,-0.38390
 40877,-2.2414253585,2.0381103964\H,-1.9465091963,-1.9292187876,1.26386
 32585\H,1.6190282746,-2.4290575413,-0.1747347441\H,2.8958943957,-1.238
 8264564,-0.3276070757\H,2.0233234214,-1.7230095947,-2.5711253697\H,0.3
 656105119,-1.3689078436,-2.0855778011\H,1.5659014965,-0.067056008,-2.1
 558079661\C,-0.5813390683,0.5589381383,2.9580471663\C,-1.1123747161,1.
 6756418687,3.8158696893\C,-1.9855279058,1.5153380166,4.8115797911\H,0.
 51531155,0.5614681613,3.0178648308\H,-0.9243665457,-0.3977323629,3.362
 4297439\H,-0.7253192711,2.6745865554,3.6164317568\H,-2.320449771,2.352
 6672537,5.4168904335\H,-2.3915362098,0.5378528724,5.0614178545\\Versio
 n=EM64L-G09RevD.01\State=1-A\HF=-1064.4226959\RMSD=8.489e-09\RMSF=8.07
 6e-06\Dipole=-1.1669427,-1.411428,-0.0625349\Quadrupole=-4.426491,0.31
 74283,4.1090627,-11.3222697,2.1593146,2.2730817\PG=C01 [X(C14H26O3Si1)
 ]\\@


 ... A MOLECULAR SYSTEM ... (PASSES) ... FROM ONE STATE OF EQUILIBRIUM 
 TO ANOTHER ... BY MEANS OF ALL POSSIBLE INTERMEDIATE PATHS, 
 BUT THE PATH MOST ECONOMICAL OF ENERGY WILL BE THE MORE OFTEN TRAVELED.

                      -- HENRY EYRING, 1945
 Job cpu time:       0 days  3 hours 51 minutes 16.9 seconds.
 File lengths (MBytes):  RWF=    383 Int=      0 D2E=      0 Chk=     15 Scr=      1
 Normal termination of Gaussian 09 at Wed Feb  6 14:52:49 2019.
