 Entering Gaussian System, Link 0=/usr/local/Cluster-Apps/gaussian/g09/g09
 Initial command:
 /usr/local/Cluster-Apps/gaussian/g09/l1.exe "/home/ke291/rds/hpc-work/06Feb0927IP1/Gau-314154.inp" -scrdir="/home/ke291/rds/hpc-work/06Feb0927IP1/"
 Entering Link 1 = /usr/local/Cluster-Apps/gaussian/g09/l1.exe PID=    314160.
  
 Copyright (c) 1988,1990,1992,1993,1995,1998,2003,2009,2013,
            Gaussian, Inc.  All Rights Reserved.
  
 This is part of the Gaussian(R) 09 program.  It is based on
 the Gaussian(R) 03 system (copyright 2003, Gaussian, Inc.),
 the Gaussian(R) 98 system (copyright 1998, Gaussian, Inc.),
 the Gaussian(R) 94 system (copyright 1995, Gaussian, Inc.),
 the Gaussian 92(TM) system (copyright 1992, Gaussian, Inc.),
 the Gaussian 90(TM) system (copyright 1990, Gaussian, Inc.),
 the Gaussian 88(TM) system (copyright 1988, Gaussian, Inc.),
 the Gaussian 86(TM) system (copyright 1986, Carnegie Mellon
 University), and the Gaussian 82(TM) system (copyright 1983,
 Carnegie Mellon University). Gaussian is a federally registered
 trademark of Gaussian, Inc.
  
 This software contains proprietary and confidential information,
 including trade secrets, belonging to Gaussian, Inc.
  
 This software is provided under written license and may be
 used, copied, transmitted, or stored only in accord with that
 written license.
  
 The following legend is applicable only to US Government
 contracts under FAR:
  
                    RESTRICTED RIGHTS LEGEND
  
 Use, reproduction and disclosure by the US Government is
 subject to restrictions as set forth in subparagraphs (a)
 and (c) of the Commercial Computer Software - Restricted
 Rights clause in FAR 52.227-19.
  
 Gaussian, Inc.
 340 Quinnipiac St., Bldg. 40, Wallingford CT 06492
  
  
 ---------------------------------------------------------------
 Warning -- This program may not be used in any manner that
 competes with the business of Gaussian, Inc. or will provide
 assistance to any competitor of Gaussian, Inc.  The licensee
 of this program is prohibited from giving any competitor of
 Gaussian, Inc. access to this program.  By using this program,
 the user acknowledges that Gaussian, Inc. is engaged in the
 business of creating and licensing software in the field of
 computational chemistry and represents and warrants to the
 licensee that it is not a competitor of Gaussian, Inc. and that
 it will not use this program in any manner prohibited above.
 ---------------------------------------------------------------
  

 Cite this work as:
 Gaussian 09, Revision D.01,
 M. J. Frisch, G. W. Trucks, H. B. Schlegel, G. E. Scuseria, 
 M. A. Robb, J. R. Cheeseman, G. Scalmani, V. Barone, B. Mennucci, 
 G. A. Petersson, H. Nakatsuji, M. Caricato, X. Li, H. P. Hratchian, 
 A. F. Izmaylov, J. Bloino, G. Zheng, J. L. Sonnenberg, M. Hada, 
 M. Ehara, K. Toyota, R. Fukuda, J. Hasegawa, M. Ishida, T. Nakajima, 
 Y. Honda, O. Kitao, H. Nakai, T. Vreven, J. A. Montgomery, Jr., 
 J. E. Peralta, F. Ogliaro, M. Bearpark, J. J. Heyd, E. Brothers, 
 K. N. Kudin, V. N. Staroverov, T. Keith, R. Kobayashi, J. Normand, 
 K. Raghavachari, A. Rendell, J. C. Burant, S. S. Iyengar, J. Tomasi, 
 M. Cossi, N. Rega, J. M. Millam, M. Klene, J. E. Knox, J. B. Cross, 
 V. Bakken, C. Adamo, J. Jaramillo, R. Gomperts, R. E. Stratmann, 
 O. Yazyev, A. J. Austin, R. Cammi, C. Pomelli, J. W. Ochterski, 
 R. L. Martin, K. Morokuma, V. G. Zakrzewski, G. A. Voth, 
 P. Salvador, J. J. Dannenberg, S. Dapprich, A. D. Daniels, 
 O. Farkas, J. B. Foresman, J. V. Ortiz, J. Cioslowski, 
 and D. J. Fox, Gaussian, Inc., Wallingford CT, 2013.
 
 ******************************************
 Gaussian 09:  ES64L-G09RevD.01 24-Apr-2013
                 6-Feb-2019 
 ******************************************
 %nprocshared=2
 Will use up to    2 processors via shared memory.
 %mem=6000MB
 %chk=/home/ke291/rds/hpc-work/06Feb0927IP1/P_ng_3ginp008.chk
 ---------------------------------------------------------------
 # b3lyp/6-31g(d,p) Opt=(maxcycles=25) scrf=(solvent=chloroform)
 ---------------------------------------------------------------
 1/6=25,14=-1,18=20,19=15,26=3,38=1/1,3;
 2/9=110,12=2,17=6,18=5,40=1/2;
 3/5=1,6=6,7=101,11=2,16=1,25=1,30=1,70=2201,71=1,72=7,74=-5/1,2,3;
 4//1;
 5/5=2,38=5,53=7/2;
 6/7=2,8=2,9=2,10=2,28=1/1;
 7//1,2,3,16;
 1/6=25,14=-1,18=20,19=15,26=3/3(2);
 2/9=110/2;
 99//99;
 2/9=110/2;
 3/5=1,6=6,7=101,11=2,16=1,25=1,30=1,70=2205,71=1,72=7,74=-5/1,2,3;
 4/5=5,16=3,69=1/1;
 5/5=2,38=5,53=7/2;
 7//1,2,3,16;
 1/6=25,14=-1,18=20,19=15,26=3/3(-5);
 2/9=110/2;
 6/7=2,8=2,9=2,10=2,19=2,28=1/1;
 99/9=1/99;
 -------------
 P_ng_3ginp008
 -------------
 Symbolic Z-matrix:
 Charge =  0 Multiplicity = 1
 C                    -0.16003   0.62962  -0.35345 
 C                    -1.43543   0.09856   0.31432 
 C                    -1.69107   0.89285   1.63833 
 C                    -1.8207    2.37399   1.26049 
 C                    -0.71819   2.89398   0.37875 
 H                     0.70476   0.44417   0.2936 
 H                    -1.30604  -0.96214   0.56111 
 H                    -2.76446   2.57132   0.74025 
 H                    -1.83111   2.99263   2.1656 
 O                    -0.21506   2.05842  -0.55435 
 O                    -0.36988   4.07016   0.42534 
 C                     0.18921   0.00789  -1.71529 
 C                     0.40811  -1.49545  -1.66287 
 C                    -2.64813   0.14651  -0.64094 
 O                    -2.90193   0.32369   2.18149 
 Si                   -3.96896   0.97279   3.29322 
 C                    -3.1568    1.82526   4.7508 
 C                    -5.13805   2.19822   2.46958 
 C                    -5.03515  -0.4265    3.99059 
 H                    -5.94522   2.47423   3.15471 
 H                    -4.61092   3.11207   2.18284 
 H                    -5.58335   1.75826   1.57252 
 H                    -4.40754  -1.16241   4.5015 
 H                    -5.76333  -0.0328    4.70553 
 H                    -5.57558  -0.93022   3.18398 
 H                    -3.91758   2.19299   5.44645 
 H                    -2.51076   1.13413   5.29867 
 H                    -2.55798   2.68182   4.43034 
 H                    -3.57256  -0.15182  -0.13723 
 H                    -2.79974   1.14225  -1.06823 
 H                    -2.51475  -0.55075  -1.47425 
 H                     1.10633   0.48299  -2.0882 
 H                    -0.57582   0.25332  -2.46111 
 H                     0.74397  -1.85994  -2.63898 
 H                     1.17325  -1.75432  -0.92416 
 H                    -0.51165  -2.02966  -1.40881 
 C                    -0.52632   0.71851   2.67651 
 C                    -0.20232  -0.70398   3.06034 
 C                    -0.31908  -1.19486   4.30089 
 H                    -0.76434   1.28187   3.585 
 H                     0.39635   1.17653   2.30177 
 H                     0.17271  -1.36317   2.28105 
 H                    -0.06073  -2.22764   4.51553 
 H                    -0.67396  -0.58893   5.12822 
 

 GradGradGradGradGradGradGradGradGradGradGradGradGradGradGradGradGradGrad
 Berny optimization.
 Initialization pass.
                           ----------------------------
                           !    Initial Parameters    !
                           ! (Angstroms and Degrees)  !
 --------------------------                            --------------------------
 ! Name  Definition              Value          Derivative Info.                !
 --------------------------------------------------------------------------------
 ! R1    R(1,2)                  1.5345         estimate D2E/DX2                !
 ! R2    R(1,6)                  1.0959         estimate D2E/DX2                !
 ! R3    R(1,10)                 1.4439         estimate D2E/DX2                !
 ! R4    R(1,12)                 1.5372         estimate D2E/DX2                !
 ! R5    R(2,3)                  1.565          estimate D2E/DX2                !
 ! R6    R(2,7)                  1.0967         estimate D2E/DX2                !
 ! R7    R(2,14)                 1.5445         estimate D2E/DX2                !
 ! R8    R(3,4)                  1.5341         estimate D2E/DX2                !
 ! R9    R(3,15)                 1.444          estimate D2E/DX2                !
 ! R10   R(3,37)                 1.57           estimate D2E/DX2                !
 ! R11   R(4,5)                  1.5045         estimate D2E/DX2                !
 ! R12   R(4,8)                  1.0956         estimate D2E/DX2                !
 ! R13   R(4,9)                  1.0964         estimate D2E/DX2                !
 ! R14   R(5,10)                 1.3498         estimate D2E/DX2                !
 ! R15   R(5,11)                 1.2276         estimate D2E/DX2                !
 ! R16   R(12,13)                1.5201         estimate D2E/DX2                !
 ! R17   R(12,32)                1.0981         estimate D2E/DX2                !
 ! R18   R(12,33)                1.0962         estimate D2E/DX2                !
 ! R19   R(13,34)                1.0947         estimate D2E/DX2                !
 ! R20   R(13,35)                1.0946         estimate D2E/DX2                !
 ! R21   R(13,36)                1.0936         estimate D2E/DX2                !
 ! R22   R(14,29)                1.0942         estimate D2E/DX2                !
 ! R23   R(14,30)                1.0941         estimate D2E/DX2                !
 ! R24   R(14,31)                1.0947         estimate D2E/DX2                !
 ! R25   R(15,16)                1.6721         estimate D2E/DX2                !
 ! R26   R(16,17)                1.8737         estimate D2E/DX2                !
 ! R27   R(16,18)                1.8833         estimate D2E/DX2                !
 ! R28   R(16,19)                1.8924         estimate D2E/DX2                !
 ! R29   R(17,26)                1.0945         estimate D2E/DX2                !
 ! R30   R(17,27)                1.0932         estimate D2E/DX2                !
 ! R31   R(17,28)                1.0932         estimate D2E/DX2                !
 ! R32   R(18,20)                1.0941         estimate D2E/DX2                !
 ! R33   R(18,21)                1.0933         estimate D2E/DX2                !
 ! R34   R(18,22)                1.0939         estimate D2E/DX2                !
 ! R35   R(19,23)                1.0938         estimate D2E/DX2                !
 ! R36   R(19,24)                1.0938         estimate D2E/DX2                !
 ! R37   R(19,25)                1.0938         estimate D2E/DX2                !
 ! R38   R(37,38)                1.5086         estimate D2E/DX2                !
 ! R39   R(37,40)                1.0952         estimate D2E/DX2                !
 ! R40   R(37,41)                1.0961         estimate D2E/DX2                !
 ! R41   R(38,39)                1.3392         estimate D2E/DX2                !
 ! R42   R(38,42)                1.0874         estimate D2E/DX2                !
 ! R43   R(39,43)                1.086          estimate D2E/DX2                !
 ! R44   R(39,44)                1.0852         estimate D2E/DX2                !
 ! A1    A(2,1,6)              109.9009         estimate D2E/DX2                !
 ! A2    A(2,1,10)             111.7984         estimate D2E/DX2                !
 ! A3    A(2,1,12)             115.7459         estimate D2E/DX2                !
 ! A4    A(6,1,10)             106.2415         estimate D2E/DX2                !
 ! A5    A(6,1,12)             105.9824         estimate D2E/DX2                !
 ! A6    A(10,1,12)            106.5953         estimate D2E/DX2                !
 ! A7    A(1,2,3)              109.1646         estimate D2E/DX2                !
 ! A8    A(1,2,7)              109.5484         estimate D2E/DX2                !
 ! A9    A(1,2,14)             111.8831         estimate D2E/DX2                !
 ! A10   A(3,2,7)              108.6489         estimate D2E/DX2                !
 ! A11   A(3,2,14)             112.2864         estimate D2E/DX2                !
 ! A12   A(7,2,14)             105.1791         estimate D2E/DX2                !
 ! A13   A(2,3,4)              107.185          estimate D2E/DX2                !
 ! A14   A(2,3,15)             104.7826         estimate D2E/DX2                !
 ! A15   A(2,3,37)             112.4509         estimate D2E/DX2                !
 ! A16   A(4,3,15)             113.7245         estimate D2E/DX2                !
 ! A17   A(4,3,37)             109.4376         estimate D2E/DX2                !
 ! A18   A(15,3,37)            109.2444         estimate D2E/DX2                !
 ! A19   A(3,4,5)              114.5907         estimate D2E/DX2                !
 ! A20   A(3,4,8)              111.3247         estimate D2E/DX2                !
 ! A21   A(3,4,9)              110.0151         estimate D2E/DX2                !
 ! A22   A(5,4,8)              106.9011         estimate D2E/DX2                !
 ! A23   A(5,4,9)              107.2038         estimate D2E/DX2                !
 ! A24   A(8,4,9)              106.3918         estimate D2E/DX2                !
 ! A25   A(4,5,10)             117.6685         estimate D2E/DX2                !
 ! A26   A(4,5,11)             121.1214         estimate D2E/DX2                !
 ! A27   A(10,5,11)            120.9035         estimate D2E/DX2                !
 ! A28   A(1,10,5)             122.0438         estimate D2E/DX2                !
 ! A29   A(1,12,13)            113.713          estimate D2E/DX2                !
 ! A30   A(1,12,32)            108.3967         estimate D2E/DX2                !
 ! A31   A(1,12,33)            110.7088         estimate D2E/DX2                !
 ! A32   A(13,12,32)           108.6219         estimate D2E/DX2                !
 ! A33   A(13,12,33)           110.2044         estimate D2E/DX2                !
 ! A34   A(32,12,33)           104.7694         estimate D2E/DX2                !
 ! A35   A(12,13,34)           110.0423         estimate D2E/DX2                !
 ! A36   A(12,13,35)           110.9665         estimate D2E/DX2                !
 ! A37   A(12,13,36)           111.7165         estimate D2E/DX2                !
 ! A38   A(34,13,35)           107.9712         estimate D2E/DX2                !
 ! A39   A(34,13,36)           107.6104         estimate D2E/DX2                !
 ! A40   A(35,13,36)           108.3967         estimate D2E/DX2                !
 ! A41   A(2,14,29)            111.7258         estimate D2E/DX2                !
 ! A42   A(2,14,30)            112.2469         estimate D2E/DX2                !
 ! A43   A(2,14,31)            110.8158         estimate D2E/DX2                !
 ! A44   A(29,14,30)           108.1105         estimate D2E/DX2                !
 ! A45   A(29,14,31)           106.2422         estimate D2E/DX2                !
 ! A46   A(30,14,31)           107.4145         estimate D2E/DX2                !
 ! A47   A(3,15,16)            129.2127         estimate D2E/DX2                !
 ! A48   A(15,16,17)           114.6597         estimate D2E/DX2                !
 ! A49   A(15,16,18)           110.9746         estimate D2E/DX2                !
 ! A50   A(15,16,19)           108.5127         estimate D2E/DX2                !
 ! A51   A(17,16,18)           108.2543         estimate D2E/DX2                !
 ! A52   A(17,16,19)           107.0951         estimate D2E/DX2                !
 ! A53   A(18,16,19)           107.0108         estimate D2E/DX2                !
 ! A54   A(16,17,26)           110.2426         estimate D2E/DX2                !
 ! A55   A(16,17,27)           110.9995         estimate D2E/DX2                !
 ! A56   A(16,17,28)           111.4627         estimate D2E/DX2                !
 ! A57   A(26,17,27)           107.7364         estimate D2E/DX2                !
 ! A58   A(26,17,28)           107.6875         estimate D2E/DX2                !
 ! A59   A(27,17,28)           108.5753         estimate D2E/DX2                !
 ! A60   A(16,18,20)           110.3801         estimate D2E/DX2                !
 ! A61   A(16,18,21)           111.0568         estimate D2E/DX2                !
 ! A62   A(16,18,22)           110.4653         estimate D2E/DX2                !
 ! A63   A(20,18,21)           108.0039         estimate D2E/DX2                !
 ! A64   A(20,18,22)           108.3404         estimate D2E/DX2                !
 ! A65   A(21,18,22)           108.5057         estimate D2E/DX2                !
 ! A66   A(16,19,23)           110.2625         estimate D2E/DX2                !
 ! A67   A(16,19,24)           110.4753         estimate D2E/DX2                !
 ! A68   A(16,19,25)           110.3126         estimate D2E/DX2                !
 ! A69   A(23,19,24)           108.5925         estimate D2E/DX2                !
 ! A70   A(23,19,25)           108.548          estimate D2E/DX2                !
 ! A71   A(24,19,25)           108.5938         estimate D2E/DX2                !
 ! A72   A(3,37,38)            115.6139         estimate D2E/DX2                !
 ! A73   A(3,37,40)            109.2803         estimate D2E/DX2                !
 ! A74   A(3,37,41)            110.6101         estimate D2E/DX2                !
 ! A75   A(38,37,40)           108.7031         estimate D2E/DX2                !
 ! A76   A(38,37,41)           107.4702         estimate D2E/DX2                !
 ! A77   A(40,37,41)           104.5714         estimate D2E/DX2                !
 ! A78   A(37,38,39)           124.235          estimate D2E/DX2                !
 ! A79   A(37,38,42)           117.6027         estimate D2E/DX2                !
 ! A80   A(39,38,42)           118.1451         estimate D2E/DX2                !
 ! A81   A(38,39,43)           120.724          estimate D2E/DX2                !
 ! A82   A(38,39,44)           122.0097         estimate D2E/DX2                !
 ! A83   A(43,39,44)           117.2661         estimate D2E/DX2                !
 ! D1    D(6,1,2,3)             63.4879         estimate D2E/DX2                !
 ! D2    D(6,1,2,7)            -55.37           estimate D2E/DX2                !
 ! D3    D(6,1,2,14)          -171.6044         estimate D2E/DX2                !
 ! D4    D(10,1,2,3)           -54.2313         estimate D2E/DX2                !
 ! D5    D(10,1,2,7)          -173.0892         estimate D2E/DX2                !
 ! D6    D(10,1,2,14)           70.6764         estimate D2E/DX2                !
 ! D7    D(12,1,2,3)          -176.533          estimate D2E/DX2                !
 ! D8    D(12,1,2,7)            64.609          estimate D2E/DX2                !
 ! D9    D(12,1,2,14)          -51.6253         estimate D2E/DX2                !
 ! D10   D(2,1,10,5)            41.0611         estimate D2E/DX2                !
 ! D11   D(6,1,10,5)           -78.8301         estimate D2E/DX2                !
 ! D12   D(12,1,10,5)          168.4598         estimate D2E/DX2                !
 ! D13   D(2,1,12,13)          -60.0052         estimate D2E/DX2                !
 ! D14   D(2,1,12,32)          179.0884         estimate D2E/DX2                !
 ! D15   D(2,1,12,33)           64.6979         estimate D2E/DX2                !
 ! D16   D(6,1,12,13)           62.0832         estimate D2E/DX2                !
 ! D17   D(6,1,12,32)          -58.8232         estimate D2E/DX2                !
 ! D18   D(6,1,12,33)         -173.2136         estimate D2E/DX2                !
 ! D19   D(10,1,12,13)         174.9715         estimate D2E/DX2                !
 ! D20   D(10,1,12,32)          54.065          estimate D2E/DX2                !
 ! D21   D(10,1,12,33)         -60.3254         estimate D2E/DX2                !
 ! D22   D(1,2,3,4)             58.7541         estimate D2E/DX2                !
 ! D23   D(1,2,3,15)           179.8967         estimate D2E/DX2                !
 ! D24   D(1,2,3,37)           -61.5566         estimate D2E/DX2                !
 ! D25   D(7,2,3,4)            178.1707         estimate D2E/DX2                !
 ! D26   D(7,2,3,15)           -60.6867         estimate D2E/DX2                !
 ! D27   D(7,2,3,37)            57.86           estimate D2E/DX2                !
 ! D28   D(14,2,3,4)           -65.9181         estimate D2E/DX2                !
 ! D29   D(14,2,3,15)           55.2245         estimate D2E/DX2                !
 ! D30   D(14,2,3,37)          173.7713         estimate D2E/DX2                !
 ! D31   D(1,2,14,29)         -175.1371         estimate D2E/DX2                !
 ! D32   D(1,2,14,30)          -53.5009         estimate D2E/DX2                !
 ! D33   D(1,2,14,31)           66.5947         estimate D2E/DX2                !
 ! D34   D(3,2,14,29)          -51.9787         estimate D2E/DX2                !
 ! D35   D(3,2,14,30)           69.6575         estimate D2E/DX2                !
 ! D36   D(3,2,14,31)         -170.247          estimate D2E/DX2                !
 ! D37   D(7,2,14,29)           66.0083         estimate D2E/DX2                !
 ! D38   D(7,2,14,30)         -172.3555         estimate D2E/DX2                !
 ! D39   D(7,2,14,31)          -52.26           estimate D2E/DX2                !
 ! D40   D(2,3,4,5)            -49.5962         estimate D2E/DX2                !
 ! D41   D(2,3,4,8)             71.8616         estimate D2E/DX2                !
 ! D42   D(2,3,4,9)           -170.4525         estimate D2E/DX2                !
 ! D43   D(15,3,4,5)          -164.9144         estimate D2E/DX2                !
 ! D44   D(15,3,4,8)           -43.4566         estimate D2E/DX2                !
 ! D45   D(15,3,4,9)            74.2293         estimate D2E/DX2                !
 ! D46   D(37,3,4,5)            72.6145         estimate D2E/DX2                !
 ! D47   D(37,3,4,8)          -165.9276         estimate D2E/DX2                !
 ! D48   D(37,3,4,9)           -48.2417         estimate D2E/DX2                !
 ! D49   D(2,3,15,16)         -159.6611         estimate D2E/DX2                !
 ! D50   D(4,3,15,16)          -42.9332         estimate D2E/DX2                !
 ! D51   D(37,3,15,16)          79.6441         estimate D2E/DX2                !
 ! D52   D(2,3,37,38)          -56.2097         estimate D2E/DX2                !
 ! D53   D(2,3,37,40)         -179.1964         estimate D2E/DX2                !
 ! D54   D(2,3,37,41)           66.2014         estimate D2E/DX2                !
 ! D55   D(4,3,37,38)         -175.211          estimate D2E/DX2                !
 ! D56   D(4,3,37,40)           61.8022         estimate D2E/DX2                !
 ! D57   D(4,3,37,41)          -52.7999         estimate D2E/DX2                !
 ! D58   D(15,3,37,38)          59.6819         estimate D2E/DX2                !
 ! D59   D(15,3,37,40)         -63.3048         estimate D2E/DX2                !
 ! D60   D(15,3,37,41)        -177.907          estimate D2E/DX2                !
 ! D61   D(3,4,5,10)            35.9251         estimate D2E/DX2                !
 ! D62   D(3,4,5,11)          -150.3778         estimate D2E/DX2                !
 ! D63   D(8,4,5,10)           -87.9256         estimate D2E/DX2                !
 ! D64   D(8,4,5,11)            85.7715         estimate D2E/DX2                !
 ! D65   D(9,4,5,10)           158.3188         estimate D2E/DX2                !
 ! D66   D(9,4,5,11)           -27.9841         estimate D2E/DX2                !
 ! D67   D(4,5,10,1)           -31.2185         estimate D2E/DX2                !
 ! D68   D(11,5,10,1)          155.0699         estimate D2E/DX2                !
 ! D69   D(1,12,13,34)        -174.6908         estimate D2E/DX2                !
 ! D70   D(1,12,13,35)         -55.2511         estimate D2E/DX2                !
 ! D71   D(1,12,13,36)          65.8407         estimate D2E/DX2                !
 ! D72   D(32,12,13,34)        -53.9105         estimate D2E/DX2                !
 ! D73   D(32,12,13,35)         65.5292         estimate D2E/DX2                !
 ! D74   D(32,12,13,36)       -173.3791         estimate D2E/DX2                !
 ! D75   D(33,12,13,34)         60.3357         estimate D2E/DX2                !
 ! D76   D(33,12,13,35)        179.7754         estimate D2E/DX2                !
 ! D77   D(33,12,13,36)        -59.1328         estimate D2E/DX2                !
 ! D78   D(3,15,16,17)         -43.122          estimate D2E/DX2                !
 ! D79   D(3,15,16,18)          79.9112         estimate D2E/DX2                !
 ! D80   D(3,15,16,19)        -162.7808         estimate D2E/DX2                !
 ! D81   D(15,16,17,26)       -178.1515         estimate D2E/DX2                !
 ! D82   D(15,16,17,27)        -58.8538         estimate D2E/DX2                !
 ! D83   D(15,16,17,28)         62.3144         estimate D2E/DX2                !
 ! D84   D(18,16,17,26)         57.3647         estimate D2E/DX2                !
 ! D85   D(18,16,17,27)        176.6624         estimate D2E/DX2                !
 ! D86   D(18,16,17,28)        -62.1694         estimate D2E/DX2                !
 ! D87   D(19,16,17,26)        -57.7058         estimate D2E/DX2                !
 ! D88   D(19,16,17,27)         61.5919         estimate D2E/DX2                !
 ! D89   D(19,16,17,28)       -177.2399         estimate D2E/DX2                !
 ! D90   D(15,16,18,20)        169.4158         estimate D2E/DX2                !
 ! D91   D(15,16,18,21)        -70.8259         estimate D2E/DX2                !
 ! D92   D(15,16,18,22)         49.6186         estimate D2E/DX2                !
 ! D93   D(17,16,18,20)        -63.9318         estimate D2E/DX2                !
 ! D94   D(17,16,18,21)         55.8265         estimate D2E/DX2                !
 ! D95   D(17,16,18,22)        176.271          estimate D2E/DX2                !
 ! D96   D(19,16,18,20)         51.1939         estimate D2E/DX2                !
 ! D97   D(19,16,18,21)        170.9522         estimate D2E/DX2                !
 ! D98   D(19,16,18,22)        -68.6033         estimate D2E/DX2                !
 ! D99   D(15,16,19,23)         61.334          estimate D2E/DX2                !
 ! D100  D(15,16,19,24)       -178.6241         estimate D2E/DX2                !
 ! D101  D(15,16,19,25)        -58.5482         estimate D2E/DX2                !
 ! D102  D(17,16,19,23)        -62.9513         estimate D2E/DX2                !
 ! D103  D(17,16,19,24)         57.0906         estimate D2E/DX2                !
 ! D104  D(17,16,19,25)        177.1664         estimate D2E/DX2                !
 ! D105  D(18,16,19,23)       -178.8511         estimate D2E/DX2                !
 ! D106  D(18,16,19,24)        -58.8092         estimate D2E/DX2                !
 ! D107  D(18,16,19,25)         61.2667         estimate D2E/DX2                !
 ! D108  D(3,37,38,39)        -117.597          estimate D2E/DX2                !
 ! D109  D(3,37,38,42)          63.9428         estimate D2E/DX2                !
 ! D110  D(40,37,38,39)          5.6941         estimate D2E/DX2                !
 ! D111  D(40,37,38,42)       -172.7661         estimate D2E/DX2                !
 ! D112  D(41,37,38,39)        118.3381         estimate D2E/DX2                !
 ! D113  D(41,37,38,42)        -60.1221         estimate D2E/DX2                !
 ! D114  D(37,38,39,43)       -179.4262         estimate D2E/DX2                !
 ! D115  D(37,38,39,44)          0.7327         estimate D2E/DX2                !
 ! D116  D(42,38,39,43)         -0.9737         estimate D2E/DX2                !
 ! D117  D(42,38,39,44)        179.1852         estimate D2E/DX2                !
 --------------------------------------------------------------------------------
 Trust Radius=3.00D-01 FncErr=1.00D-07 GrdErr=1.00D-06
 Number of steps in this run=     25 maximum allowed number of steps=    264.
 GradGradGradGradGradGradGradGradGradGradGradGradGradGradGradGradGradGrad

                          Input orientation:                          
 ---------------------------------------------------------------------
 Center     Atomic      Atomic             Coordinates (Angstroms)
 Number     Number       Type             X           Y           Z
 ---------------------------------------------------------------------
      1          6           0       -0.160031    0.629620   -0.353448
      2          6           0       -1.435426    0.098561    0.314319
      3          6           0       -1.691065    0.892853    1.638327
      4          6           0       -1.820699    2.373991    1.260493
      5          6           0       -0.718186    2.893981    0.378748
      6          1           0        0.704764    0.444167    0.293595
      7          1           0       -1.306043   -0.962141    0.561110
      8          1           0       -2.764461    2.571321    0.740251
      9          1           0       -1.831109    2.992630    2.165595
     10          8           0       -0.215059    2.058424   -0.554351
     11          8           0       -0.369884    4.070162    0.425340
     12          6           0        0.189209    0.007890   -1.715287
     13          6           0        0.408106   -1.495447   -1.662873
     14          6           0       -2.648133    0.146509   -0.640943
     15          8           0       -2.901929    0.323693    2.181487
     16         14           0       -3.968959    0.972785    3.293222
     17          6           0       -3.156802    1.825261    4.750800
     18          6           0       -5.138052    2.198225    2.469581
     19          6           0       -5.035155   -0.426502    3.990585
     20          1           0       -5.945218    2.474231    3.154706
     21          1           0       -4.610916    3.112074    2.182845
     22          1           0       -5.583353    1.758260    1.572521
     23          1           0       -4.407537   -1.162412    4.501496
     24          1           0       -5.763327   -0.032800    4.705533
     25          1           0       -5.575575   -0.930222    3.183979
     26          1           0       -3.917582    2.192989    5.446448
     27          1           0       -2.510760    1.134134    5.298669
     28          1           0       -2.557978    2.681824    4.430345
     29          1           0       -3.572562   -0.151824   -0.137232
     30          1           0       -2.799740    1.142253   -1.068233
     31          1           0       -2.514751   -0.550753   -1.474246
     32          1           0        1.106331    0.482994   -2.088200
     33          1           0       -0.575822    0.253324   -2.461111
     34          1           0        0.743970   -1.859937   -2.638980
     35          1           0        1.173247   -1.754320   -0.924162
     36          1           0       -0.511651   -2.029656   -1.408809
     37          6           0       -0.526319    0.718506    2.676506
     38          6           0       -0.202317   -0.703977    3.060343
     39          6           0       -0.319083   -1.194864    4.300892
     40          1           0       -0.764337    1.281868    3.584998
     41          1           0        0.396346    1.176533    2.301773
     42          1           0        0.172711   -1.363167    2.281052
     43          1           0       -0.060728   -2.227638    4.515532
     44          1           0       -0.673955   -0.588929    5.128220
 ---------------------------------------------------------------------
                    Distance matrix (angstroms):
                    1          2          3          4          5
     1  C    0.000000
     2  C    1.534460   0.000000
     3  C    2.525970   1.565007   0.000000
     4  C    2.899216   2.494246   1.534058   0.000000
     5  C    2.444377   2.886686   2.556863   1.504460   0.000000
     6  H    1.095869   2.168014   2.783814   3.322209   2.834365
     7  H    2.164131   1.096693   2.179367   3.447286   3.904934
     8  H    3.427745   2.839418   2.185400   1.095572   2.102864
     9  H    3.836912   3.458240   2.169490   1.096372   2.107404
    10  O    1.443908   2.466768   2.888769   2.443629   1.349802
    11  O    3.533819   4.113553   3.648582   2.383137   1.227553
    12  C    1.537245   2.601338   3.945290   4.300399   3.679384
    13  C    2.559938   3.138273   4.583494   5.337246   4.970295
    14  C    2.550824   1.544501   2.582263   3.043318   3.508998
    15  O    3.746664   2.384876   1.444007   2.494195   3.824262
    16  Si   5.284307   4.007109   2.816712   3.272673   4.769977
    17  C    6.038505   5.062311   3.564444   3.777369   5.118970
    18  C    5.933861   4.771078   3.778452   3.535197   4.938712
    19  C    6.614594   5.171912   4.296132   5.062498   6.535074
    20  H    7.012712   5.835223   4.785183   4.539796   5.933296
    21  H    5.692604   4.759873   3.707691   3.029985   4.296007
    22  H    5.864777   4.641441   3.987877   3.825448   5.136614
    23  H    6.695011   5.287338   4.449839   5.449952   6.860225
    24  H    7.578193   6.166907   5.181496   5.762400   7.262270
    25  H    6.653917   5.141418   4.560928   5.358798   6.788820
    26  H    7.085344   6.073424   4.598860   4.685285   6.033996
    27  H    6.142222   5.203124   3.758752   4.280221   5.524129
    28  H    5.731175   4.987488   3.427436   3.268991   4.454805
    29  H    3.507531   2.198623   2.789980   3.376744   4.206023
    30  H    2.782404   2.205016   2.935443   2.810456   3.081424
    31  H    2.862547   2.187582   3.528536   4.063820   4.304350
    32  H    2.152797   3.518581   4.677650   4.832920   3.902250
    33  H    2.180992   2.909619   4.296296   4.460637   3.880481
    34  H    3.498395   4.160223   5.639380   6.301552   5.817587
    35  H    2.790433   3.431061   4.666707   5.547917   5.184766
    36  H    2.882563   2.889955   4.383733   5.313275   5.242158
    37  C    3.053308   2.605904   1.569983   2.533997   3.170047
    38  C    3.665275   3.115329   2.605449   3.915675   4.516899
    39  C    5.001692   4.337273   3.651048   4.922967   5.679890
    40  H    4.037570   3.542304   2.190818   2.777041   3.589022
    41  H    2.767466   2.909877   2.208601   2.726437   2.808885
    42  H    3.320016   2.931005   2.996061   4.356785   4.747185
    43  H    5.646304   4.995116   4.546842   5.904893   6.616360
    44  H    5.638942   4.922004   3.925499   5.005320   5.889830
                    6          7          8          9         10
     6  H    0.000000
     7  H    2.468322   0.000000
     8  H    4.093874   3.826804   0.000000
     9  H    4.053357   4.300033   1.755065   0.000000
    10  O    2.042281   3.399752   2.904911   3.298858   0.000000
    11  O    3.784186   5.120439   2.842480   2.514904   2.242957
    12  C    2.119373   2.891145   4.617901   5.296376   2.390794
    13  C    2.770898   2.858115   5.690236   6.309840   3.774540
    14  C    3.493405   2.115477   2.793017   4.079778   3.095604
    15  O    4.072700   2.612631   2.673554   2.875784   4.208726
    16  Si   5.578610   4.277791   3.244040   3.149876   5.483994
    17  C    6.056879   5.361755   4.098175   3.131054   6.070654
    18  C    6.476892   5.321134   2.960358   3.414580   5.779236
    19  C    6.882766   5.094554   4.970681   5.028614   7.075636
    20  H    7.518602   6.329087   3.994526   4.262977   6.838474
    21  H    6.240469   5.491032   2.404763   2.782425   5.284504
    22  H    6.550031   5.169034   3.049573   3.994339   5.782064
    23  H    6.813453   5.018567   5.548642   5.418375   7.315206
    24  H    7.844036   6.156890   5.612317   5.573764   7.926088
    25  H    7.048824   5.010924   5.112237   5.517871   7.186254
    26  H    7.139773   6.375069   4.860156   3.969483   7.052402
    27  H    5.988858   5.318851   4.786339   3.705683   6.354715
    28  H    5.724098   5.460476   3.697518   2.398756   5.543022
    29  H    4.340085   2.506273   2.972965   4.268871   4.041288
    30  H    3.824062   3.051944   2.305232   3.849647   2.789986
    31  H    3.805313   2.402684   3.835844   5.125561   3.597582
    32  H    2.415722   3.863523   5.229175   5.746442   2.565296
    33  H    3.043801   3.338323   4.517961   5.521408   2.650334
    34  H    3.729669   3.905018   6.585160   7.298108   4.540811
    35  H    2.556512   2.996741   6.081693   6.411419   4.074453
    36  H    3.240007   2.377231   5.555412   6.304022   4.186940
    37  C    2.696125   2.812018   3.491602   2.671170   3.511510
    38  C    3.129844   2.744271   4.761826   4.137444   4.549399
    39  C    4.448945   3.874819   5.730810   4.937694   5.845348
    40  H    3.700451   3.804329   3.708877   2.465647   4.247229
    41  H    2.159690   3.240673   3.791370   2.877205   3.051064
    42  H    2.738525   2.303418   5.145993   4.795998   4.460623
    43  H    5.054629   4.334714   6.677794   5.992299   6.640622
    44  H    5.132422   4.625723   5.797557   4.789960   6.285752
                   11         12         13         14         15
    11  O    0.000000
    12  C    4.625681   0.000000
    13  C    5.995157   1.520094   0.000000
    14  C    4.660733   3.037094   3.616761   0.000000
    15  O    4.850911   4.983946   5.389314   2.839352   0.000000
    16  Si   5.547236   6.580771   7.057885   4.231426   1.672073
    17  C    5.613920   7.503926   8.054246   5.669907   2.986810
    18  C    5.515296   7.119719   7.840935   4.481584   2.932084
    19  C    7.395655   7.748526   7.920437   5.241876   2.895908
    20  H    6.409429   8.211630   8.906859   5.540398   3.851438
    21  H    4.689681   6.919002   7.823642   4.541021   3.270429
    22  H    5.817317   6.869931   7.546653   4.014060   3.101428
    23  H    7.765148   7.819723   7.829481   5.590479   3.139714
    24  H    8.015209   8.755642   8.987909   6.190427   3.832166
    25  H    7.727428   7.623359   7.721133   4.935514   3.118602
    26  H    6.428177   8.539955   9.102669   6.546443   3.896895
    27  H    6.078893   7.599595   7.993594   6.022729   3.244480
    28  H    4.770252   7.243325   7.960814   5.670442   3.276652
    29  H    5.329052   4.082485   4.469745   1.094210   2.460147
    30  H    4.087495   3.261790   4.195394   1.094106   3.352784
    31  H    5.437071   2.771567   3.077518   1.094696   3.778749
    32  H    4.622215   1.098135   2.140712   4.037793   5.858477
    33  H    4.789808   1.096250   2.159513   2.760234   5.193211
    34  H    6.767333   2.156327   1.094734   4.418636   6.426330
    35  H    6.174706   2.167855   1.094600   4.277418   5.529037
    36  H    6.371184   2.176402   1.093563   3.144816   4.913441
    37  C    4.040522   4.506085   4.960337   3.979289   2.458545
    38  C    5.455614   4.844243   4.827816   4.517174   3.019337
    39  C    6.537812   6.156248   6.015451   5.625432   3.670012
    40  H    4.232448   5.534012   6.052128   4.764064   2.730795
    41  H    3.532874   4.188723   4.781008   4.357680   3.408874
    42  H    5.767074   4.225020   3.953157   4.332936   3.508393
    43  H    7.515819   6.624437   6.239279   6.238627   4.475431
    44  H    6.626965   6.923499   6.936251   6.141782   3.805257
                   16         17         18         19         20
    16  Si   0.000000
    17  C    1.873726   0.000000
    18  C    1.883313   3.044407   0.000000
    19  C    1.892378   3.029286   3.035331   0.000000
    20  H    2.485785   3.277795   1.094117   3.152961   0.000000
    21  H    2.494314   3.219430   1.093257   3.996176   1.769666
    22  H    2.486775   3.999262   1.093882   3.304654   1.773942
    23  H    2.492257   3.248489   3.994523   1.093845   4.171748
    24  H    2.495111   3.201314   3.219926   1.093794   2.953532
    25  H    2.492907   3.987239   3.238668   1.093801   3.424587
    26  H    2.475464   1.094503   3.217345   3.198475   3.072863
    27  H    2.484793   1.093246   4.004834   3.243338   4.264732
    28  H    2.490930   1.093152   3.276468   3.998936   3.625430
    29  H    3.631789   5.289100   3.843041   4.387881   4.833479
    30  H    4.518637   5.869850   4.370230   5.748888   5.431520
    31  H    5.211971   6.693943   5.476528   6.019323   6.507367
    32  H    7.413378   8.169939   7.918820   8.688881   9.009852
    33  H    6.718880   7.819470   6.993447   7.872242   8.080857
    34  H    8.088698   9.132664   8.784319   8.910901   9.853783
    35  H    7.187886   7.985482   8.183679   8.028829   9.229862
    36  H    6.563286   7.732916   7.370242   7.223963   8.404423
    37  C    3.506675   3.528037   4.847728   4.833989   5.716267
    38  C    4.129571   4.240716   5.756149   4.929368   6.564360
    39  C    4.362992   4.168480   6.171646   4.788320   6.813912
    40  H    3.232687   2.716295   4.605784   4.617674   5.333705
    41  H    4.481113   4.363879   5.630415   5.909569   6.528932
    42  H    4.861542   5.229855   6.397129   5.560730   7.274472
    43  H    5.197213   5.105587   7.039417   5.316445   7.654191
    44  H    4.082061   3.483574   5.896164   4.510062   6.408114
                   21         22         23         24         25
    21  H    0.000000
    22  H    1.775089   0.000000
    23  H    4.867108   4.300205   0.000000
    24  H    4.193118   3.613316   1.776463   0.000000
    25  H    4.274692   3.134453   1.775972   1.776441   0.000000
    26  H    3.460713   4.239233   3.520186   2.984940   4.197875
    27  H    4.246323   4.869758   3.083403   3.506100   4.257531
    28  H    3.074236   4.262983   4.266624   4.209415   4.868901
    29  H    4.136903   3.258060   4.820401   5.316577   3.955807
    30  H    4.210708   3.886071   6.238459   6.595451   5.484680
    31  H    5.584311   4.902107   6.298115   7.000799   5.586743
    32  H    7.605314   7.731692   8.748382   9.675384   8.627915
    33  H    6.783860   6.603816   8.072437   8.851715   7.633174
    34  H    8.754753   8.418023   8.832382   9.981243   8.643371
    35  H    8.172627   8.013943   7.805977   9.097975   7.943712
    36  H    7.492752   6.997056   7.131742   8.303777   6.924289
    37  C    4.759916   5.279533   4.683193   5.666363   5.335805
    38  C    5.896439   6.101784   4.468888   5.837976   5.379440
    39  C    6.438608   6.624008   4.093501   5.581570   5.380357
    40  H    4.484625   5.244037   4.481895   5.289031   5.310571
    41  H    5.369649   6.052026   5.778126   6.721765   6.393790
    42  H    6.551375   6.586167   5.094050   6.548628   5.834853
    43  H    7.393116   7.419440   4.475450   6.113350   5.819782
    44  H    6.154049   6.500345   3.829008   5.137086   5.284168
                   26         27         28         29         30
    26  H    0.000000
    27  H    1.766964   0.000000
    28  H    1.766337   1.775263   0.000000
    29  H    6.065861   5.685959   5.470073   0.000000
    30  H    6.692883   6.373462   5.715163   1.771624   0.000000
    31  H    7.575755   6.979344   6.731688   1.750918   1.764181
    32  H    9.216003   8.250646   7.794449   5.108944   4.090519
    33  H    8.801088   8.045744   7.570913   3.813792   2.770580
    34  H   10.174990   9.086473   9.028057   5.273409   4.902884
    35  H    9.059937   7.787085   7.891271   5.070499   4.918894
    36  H    8.742176   7.680903   7.776967   3.809506   3.925857
    37  C    4.620319   3.314588   3.325388   4.237239   4.401258
    38  C    5.281013   3.703737   4.346227   4.678452   5.215392
    39  C    5.073366   3.350110   4.478629   5.600893   6.359503
    40  H    3.773340   2.451222   2.427269   4.878176   5.080838
    41  H    5.434348   4.175458   3.940146   4.844121   4.644683
    42  H    6.276661   4.748004   5.332736   4.619796   5.131306
    43  H    5.940023   4.232903   5.508750   6.187907   7.073668
    44  H    4.285027   2.524253   3.838541   6.026439   6.775838
                   31         32         33         34         35
    31  H    0.000000
    32  H    3.815469   0.000000
    33  H    2.319459   1.738232   0.000000
    34  H    3.699977   2.433925   2.497871   0.000000
    35  H    3.918226   2.522902   3.074425   1.770885   0.000000
    36  H    2.490752   3.064775   2.514648   1.765987   1.774704
    37  C    4.774267   5.042166   5.158871   6.042880   4.687025
    38  C    5.092477   5.443249   5.616261   5.891858   4.344154
    39  C    6.211929   6.757774   6.920105   7.052250   5.462713
    40  H    5.658480   6.026838   6.135868   7.133290   5.771065
    41  H    5.071126   4.500771   4.947978   5.809650   4.427204
    42  H    4.688788   4.834286   5.065714   4.977935   3.380454
    43  H    6.686674   7.233176   7.422536   7.209007   5.597946
    44  H    6.854381   7.509671   7.636555   7.997210   6.434409
                   36         37         38         39         40
    36  H    0.000000
    37  C    4.923658   0.000000
    38  C    4.671877   1.508564   0.000000
    39  C    5.773616   2.518444   1.339241   0.000000
    40  H    5.997345   1.095165   2.129486   2.616287   0.000000
    41  H    4.987236   1.096141   2.114271   3.183055   1.733478
    42  H    3.811513   2.231230   1.087415   2.085651   3.094276
    43  H    5.944775   3.504077   2.111674   1.086020   3.698323
    44  H    6.695878   2.782460   2.124098   1.085156   2.426847
                   41         42         43         44
    41  H    0.000000
    42  H    2.549611   0.000000
    43  H    4.086322   2.407219   0.000000
    44  H    3.500172   3.069634   1.853861   0.000000
 Stoichiometry    C14H26O3Si
 Framework group  C1[X(C14H26O3Si)]
 Deg. of freedom   126
 Full point group                 C1      NOp   1
 Largest Abelian subgroup         C1      NOp   1
 Largest concise Abelian subgroup C1      NOp   1
                         Standard orientation:                         
 ---------------------------------------------------------------------
 Center     Atomic      Atomic             Coordinates (Angstroms)
 Number     Number       Type             X           Y           Z
 ---------------------------------------------------------------------
      1          6           0        2.538185    0.071497   -0.042313
      2          6           0        1.245146    0.368379    0.728712
      3          6           0        0.016259    0.018755   -0.175083
      4          6           0        0.131769   -1.466152   -0.542567
      5          6           0        1.479546   -1.877717   -1.069361
      6          1           0        2.604352    0.719805   -0.923361
      7          1           0        1.203996    1.435292    0.979188
      8          1           0       -0.082848   -2.107709    0.319187
      9          1           0       -0.608203   -1.721406   -1.310238
     10          8           0        2.568671   -1.285073   -0.535932
     11          8           0        1.592876   -2.801847   -1.869378
     12          6           0        3.845097    0.284004    0.738677
     13          6           0        4.037742    1.708908    1.231852
     14          6           0        1.202310   -0.367595    2.085911
     15          8           0       -1.137593    0.328483    0.635998
     16         14           0       -2.711888   -0.214510    0.485728
     17          6           0       -3.366036   -0.239438   -1.269925
     18          6           0       -2.901052   -1.942520    1.210340
     19          6           0       -3.840364    0.930848    1.483622
     20          1           0       -3.958931   -2.213225    1.278914
     21          1           0       -2.401472   -2.687431    0.585250
     22          1           0       -2.468938   -1.985656    2.214330
     23          1           0       -3.786752    1.950774    1.091992
     24          1           0       -4.878074    0.589725    1.427230
     25          1           0       -3.534399    0.944806    2.533665
     26          1           0       -4.408109   -0.573948   -1.281065
     27          1           0       -3.331832    0.758539   -1.714963
     28          1           0       -2.791298   -0.922139   -1.901254
     29          1           0        0.244592   -0.223045    2.595005
     30          1           0        1.371908   -1.443213    1.979375
     31          1           0        1.970451    0.019723    2.762891
     32          1           0        4.686758    0.022915    0.083437
     33          1           0        3.914668   -0.419344    1.576667
     34          1           0        5.023993    1.815559    1.694862
     35          1           0        3.974536    2.421912    0.403734
     36          1           0        3.289322    1.982552    1.980762
     37          6           0       -0.027308    0.879826   -1.487144
     38          6           0       -0.027125    2.374960   -1.286290
     39          6           0       -1.023612    3.186043   -1.664078
     40          1           0       -0.911592    0.604092   -2.071437
     41          1           0        0.820345    0.635077   -2.137610
     42          1           0        0.851275    2.821430   -0.826344
     43          1           0       -0.959568    4.257591   -1.499393
     44          1           0       -1.922736    2.809174   -2.140638
 ---------------------------------------------------------------------
 Rotational constants (GHZ):      0.5104823      0.2617319      0.2358882
 Standard basis: 6-31G(d,p) (6D, 7F)
 There are   404 symmetry adapted cartesian basis functions of A   symmetry.
 There are   404 symmetry adapted basis functions of A   symmetry.
   404 basis functions,   710 primitive gaussians,   404 cartesian basis functions
    74 alpha electrons       74 beta electrons
       nuclear repulsion energy      1631.1176660679 Hartrees.
 NAtoms=   44 NActive=   44 NUniq=   44 SFac= 1.00D+00 NAtFMM=   60 NAOKFM=F Big=F
 Integral buffers will be    131072 words long.
 Raffenetti 2 integral format.
 Two-electron integral symmetry is turned on.
 ------------------------------------------------------------------------------
 Polarizable Continuum Model (PCM)
 =================================
 Model                : PCM (using non-symmetric T matrix).
 Atomic radii         : UFF (Universal Force Field).
 Polarization charges : Total charges.
 Charge compensation  : None.
 Solution method      : On-the-fly selection.
 Cavity type          : Scaled VdW (van der Waals Surface) (Alpha=1.100).
 Cavity algorithm     : GePol (No added spheres)
                        Default sphere list used, NSphG=   44.
                        Lebedev-Laikov grids with approx.  5.0 points / Ang**2.
                        Smoothing algorithm: Karplus/York (Gamma=1.0000).
                        Polarization charges: spherical gaussians, with
                                              point-specific exponents (IZeta= 3).
                        Self-potential: point-specific (ISelfS= 7).
                        Self-field    : sphere-specific E.n sum rule (ISelfD= 2).
 1st derivatives      : Analytical E(r).r(x)/FMM algorithm (CHGder, D1EAlg=3).
                        Cavity 1st derivative terms included.
 Solvent              : Chloroform, Eps=   4.711300 Eps(inf)=   2.090627
 ------------------------------------------------------------------------------
 One-electron integrals computed using PRISM.
 NBasis=   404 RedAO= T EigKep=  1.89D-03  NBF=   404
 NBsUse=   404 1.00D-06 EigRej= -1.00D+00 NBFU=   404
 ExpMin= 7.78D-02 ExpMax= 1.61D+04 ExpMxC= 2.43D+03 IAcc=2 IRadAn=         4 AccDes= 0.00D+00
 Harris functional with IExCor=  402 and IRadAn=       4 diagonalized for initial guess.
 HarFok:  IExCor=  402 AccDes= 0.00D+00 IRadAn=         4 IDoV= 1 UseB2=F ITyADJ=14
 ICtDFT=  3500011 ScaDFX=  1.000000  1.000000  1.000000  1.000000
 FoFCou: FMM=F IPFlag=           0 FMFlag=      100000 FMFlg1=           0
         NFxFlg=           0 DoJE=T BraDBF=F KetDBF=T FulRan=T
         wScrn=  0.000000 ICntrl=     500 IOpCl=  0 I1Cent=   200000004 NGrid=           0
         NMat0=    1 NMatS0=      1 NMatT0=    0 NMatD0=    1 NMtDS0=    0 NMtDT0=    0
 Petite list used in FoFCou.
 Requested convergence on RMS density matrix=1.00D-08 within 128 cycles.
 Requested convergence on MAX density matrix=1.00D-06.
 Requested convergence on             energy=1.00D-06.
 No special actions if energy rises.
 Inv3:  Mode=1 IEnd=    24333312.
 Iteration    1 A*A^-1 deviation from unit magnitude is 5.33D-15 for   2839.
 Iteration    1 A*A^-1 deviation from orthogonality  is 2.91D-15 for   2702   1585.
 Iteration    1 A^-1*A deviation from unit magnitude is 5.11D-15 for   2839.
 Iteration    1 A^-1*A deviation from orthogonality  is 2.89D-12 for   2825   2459.
 Error on total polarization charges =  0.00909
 SCF Done:  E(RB3LYP) =  -1064.41516609     A.U. after   13 cycles
            NFock= 13  Conv=0.51D-08     -V/T= 2.0081

 **********************************************************************

            Population analysis using the SCF density.

 **********************************************************************

 Orbital symmetries:
       Occupied  (A) (A) (A) (A) (A) (A) (A) (A) (A) (A) (A) (A)
                 (A) (A) (A) (A) (A) (A) (A) (A) (A) (A) (A) (A)
                 (A) (A) (A) (A) (A) (A) (A) (A) (A) (A) (A) (A)
                 (A) (A) (A) (A) (A) (A) (A) (A) (A) (A) (A) (A)
                 (A) (A) (A) (A) (A) (A) (A) (A) (A) (A) (A) (A)
                 (A) (A) (A) (A) (A) (A) (A) (A) (A) (A) (A) (A)
                 (A) (A)
       Virtual   (A) (A) (A) (A) (A) (A) (A) (A) (A) (A) (A) (A)
                 (A) (A) (A) (A) (A) (A) (A) (A) (A) (A) (A) (A)
                 (A) (A) (A) (A) (A) (A) (A) (A) (A) (A) (A) (A)
                 (A) (A) (A) (A) (A) (A) (A) (A) (A) (A) (A) (A)
                 (A) (A) (A) (A) (A) (A) (A) (A) (A) (A) (A) (A)
                 (A) (A) (A) (A) (A) (A) (A) (A) (A) (A) (A) (A)
                 (A) (A) (A) (A) (A) (A) (A) (A) (A) (A) (A) (A)
                 (A) (A) (A) (A) (A) (A) (A) (A) (A) (A) (A) (A)
                 (A) (A) (A) (A) (A) (A) (A) (A) (A) (A) (A) (A)
                 (A) (A) (A) (A) (A) (A) (A) (A) (A) (A) (A) (A)
                 (A) (A) (A) (A) (A) (A) (A) (A) (A) (A) (A) (A)
                 (A) (A) (A) (A) (A) (A) (A) (A) (A) (A) (A) (A)
                 (A) (A) (A) (A) (A) (A) (A) (A) (A) (A) (A) (A)
                 (A) (A) (A) (A) (A) (A) (A) (A) (A) (A) (A) (A)
                 (A) (A) (A) (A) (A) (A) (A) (A) (A) (A) (A) (A)
                 (A) (A) (A) (A) (A) (A) (A) (A) (A) (A) (A) (A)
                 (A) (A) (A) (A) (A) (A) (A) (A) (A) (A) (A) (A)
                 (A) (A) (A) (A) (A) (A) (A) (A) (A) (A) (A) (A)
                 (A) (A) (A) (A) (A) (A) (A) (A) (A) (A) (A) (A)
                 (A) (A) (A) (A) (A) (A) (A) (A) (A) (A) (A) (A)
                 (A) (A) (A) (A) (A) (A) (A) (A) (A) (A) (A) (A)
                 (A) (A) (A) (A) (A) (A) (A) (A) (A) (A) (A) (A)
                 (A) (A) (A) (A) (A) (A) (A) (A) (A) (A) (A) (A)
                 (A) (A) (A) (A) (A) (A) (A) (A) (A) (A) (A) (A)
                 (A) (A) (A) (A) (A) (A) (A) (A) (A) (A) (A) (A)
                 (A) (A) (A) (A) (A) (A) (A) (A) (A) (A) (A) (A)
                 (A) (A) (A) (A) (A) (A) (A) (A) (A) (A) (A) (A)
                 (A) (A) (A) (A) (A) (A)
 The electronic state is 1-A.
 Alpha  occ. eigenvalues --  -66.13868 -19.19307 -19.14297 -19.13711 -10.32480
 Alpha  occ. eigenvalues --  -10.26735 -10.25502 -10.20333 -10.20060 -10.19607
 Alpha  occ. eigenvalues --  -10.19467 -10.18946 -10.18256 -10.18126 -10.17693
 Alpha  occ. eigenvalues --  -10.15937 -10.15644 -10.15576  -5.28023  -3.64078
 Alpha  occ. eigenvalues --   -3.63848  -3.63815  -1.10017  -1.01586  -1.00609
 Alpha  occ. eigenvalues --   -0.83013  -0.80426  -0.78109  -0.74894  -0.71304
 Alpha  occ. eigenvalues --   -0.70830  -0.69205  -0.67655  -0.67267  -0.64519
 Alpha  occ. eigenvalues --   -0.61008  -0.59927  -0.56319  -0.52960  -0.51293
 Alpha  occ. eigenvalues --   -0.51217  -0.49187  -0.48562  -0.46146  -0.45259
 Alpha  occ. eigenvalues --   -0.44620  -0.43737  -0.43066  -0.42274  -0.41478
 Alpha  occ. eigenvalues --   -0.40810  -0.40677  -0.40225  -0.40011  -0.39010
 Alpha  occ. eigenvalues --   -0.38860  -0.38308  -0.38008  -0.37795  -0.37617
 Alpha  occ. eigenvalues --   -0.36946  -0.36068  -0.35305  -0.35242  -0.34592
 Alpha  occ. eigenvalues --   -0.33818  -0.32556  -0.31569  -0.30143  -0.29446
 Alpha  occ. eigenvalues --   -0.28528  -0.27620  -0.26446  -0.25679
 Alpha virt. eigenvalues --   -0.00726   0.01351   0.06384   0.07103   0.07799
 Alpha virt. eigenvalues --    0.08983   0.09616   0.10059   0.10662   0.11452
 Alpha virt. eigenvalues --    0.12091   0.13174   0.13746   0.13935   0.14485
 Alpha virt. eigenvalues --    0.15410   0.15671   0.16063   0.16308   0.16864
 Alpha virt. eigenvalues --    0.17403   0.17804   0.17937   0.18313   0.18588
 Alpha virt. eigenvalues --    0.19194   0.19712   0.20801   0.20859   0.21171
 Alpha virt. eigenvalues --    0.21983   0.22416   0.23567   0.23778   0.24053
 Alpha virt. eigenvalues --    0.24342   0.24847   0.26483   0.27224   0.28371
 Alpha virt. eigenvalues --    0.29114   0.30618   0.32156   0.35678   0.36177
 Alpha virt. eigenvalues --    0.37718   0.38212   0.39525   0.40815   0.43944
 Alpha virt. eigenvalues --    0.45587   0.46858   0.48755   0.50258   0.51088
 Alpha virt. eigenvalues --    0.51823   0.52373   0.53363   0.55125   0.55283
 Alpha virt. eigenvalues --    0.57413   0.58110   0.58478   0.59953   0.60664
 Alpha virt. eigenvalues --    0.61395   0.62917   0.63682   0.63926   0.64846
 Alpha virt. eigenvalues --    0.66121   0.66863   0.67373   0.67793   0.68347
 Alpha virt. eigenvalues --    0.69758   0.70518   0.70988   0.72343   0.73858
 Alpha virt. eigenvalues --    0.74128   0.75869   0.75985   0.76574   0.77942
 Alpha virt. eigenvalues --    0.78888   0.80826   0.81178   0.82451   0.82835
 Alpha virt. eigenvalues --    0.83630   0.84271   0.84901   0.85276   0.85973
 Alpha virt. eigenvalues --    0.86694   0.86841   0.87805   0.88433   0.89130
 Alpha virt. eigenvalues --    0.89234   0.89992   0.90428   0.90746   0.91362
 Alpha virt. eigenvalues --    0.91862   0.92397   0.92717   0.93854   0.94435
 Alpha virt. eigenvalues --    0.95192   0.95738   0.97710   0.97984   0.98253
 Alpha virt. eigenvalues --    0.99682   1.00058   1.00411   1.00934   1.01630
 Alpha virt. eigenvalues --    1.03228   1.03675   1.04722   1.06261   1.07903
 Alpha virt. eigenvalues --    1.09811   1.11765   1.12360   1.13737   1.16456
 Alpha virt. eigenvalues --    1.18080   1.18469   1.21219   1.23358   1.24746
 Alpha virt. eigenvalues --    1.27412   1.29839   1.31290   1.31817   1.33836
 Alpha virt. eigenvalues --    1.37215   1.38702   1.39137   1.41446   1.42454
 Alpha virt. eigenvalues --    1.43128   1.44742   1.46914   1.47436   1.48954
 Alpha virt. eigenvalues --    1.49280   1.51618   1.53212   1.53719   1.55027
 Alpha virt. eigenvalues --    1.58679   1.59710   1.62503   1.62694   1.64392
 Alpha virt. eigenvalues --    1.65243   1.67042   1.69153   1.70257   1.73086
 Alpha virt. eigenvalues --    1.73382   1.74418   1.77521   1.78487   1.80063
 Alpha virt. eigenvalues --    1.81118   1.81498   1.82523   1.84173   1.84989
 Alpha virt. eigenvalues --    1.85670   1.87510   1.88381   1.89117   1.90352
 Alpha virt. eigenvalues --    1.91833   1.92290   1.94375   1.96154   1.97510
 Alpha virt. eigenvalues --    1.97783   1.98328   1.99015   2.01809   2.02294
 Alpha virt. eigenvalues --    2.03339   2.04173   2.04901   2.04971   2.05233
 Alpha virt. eigenvalues --    2.06262   2.06962   2.07645   2.08221   2.08952
 Alpha virt. eigenvalues --    2.09951   2.10407   2.10978   2.11991   2.12360
 Alpha virt. eigenvalues --    2.12888   2.13297   2.13566   2.13746   2.15213
 Alpha virt. eigenvalues --    2.15850   2.16262   2.17001   2.17252   2.17866
 Alpha virt. eigenvalues --    2.21555   2.22279   2.23213   2.24168   2.25457
 Alpha virt. eigenvalues --    2.26741   2.28774   2.29052   2.30879   2.31506
 Alpha virt. eigenvalues --    2.32255   2.33881   2.35326   2.35947   2.36430
 Alpha virt. eigenvalues --    2.38447   2.39449   2.40654   2.41500   2.42991
 Alpha virt. eigenvalues --    2.43539   2.45190   2.45968   2.48495   2.50354
 Alpha virt. eigenvalues --    2.50798   2.53675   2.54810   2.56971   2.58680
 Alpha virt. eigenvalues --    2.59230   2.59698   2.63377   2.63912   2.64809
 Alpha virt. eigenvalues --    2.66368   2.67134   2.68300   2.68769   2.69181
 Alpha virt. eigenvalues --    2.70579   2.71412   2.72175   2.73584   2.76044
 Alpha virt. eigenvalues --    2.76844   2.78182   2.79561   2.80659   2.81580
 Alpha virt. eigenvalues --    2.81998   2.83363   2.84449   2.85077   2.85199
 Alpha virt. eigenvalues --    2.85487   2.85630   2.86584   2.87448   2.89445
 Alpha virt. eigenvalues --    2.90411   2.91302   2.92178   2.93476   2.93811
 Alpha virt. eigenvalues --    2.95990   2.97433   3.02058   3.09183   3.10654
 Alpha virt. eigenvalues --    3.16867   3.18628   3.20385   3.21003   3.21262
 Alpha virt. eigenvalues --    3.22085   3.23066   3.26201   3.30481   3.33809
 Alpha virt. eigenvalues --    3.35584   3.36809   3.39650   3.43595   3.43911
 Alpha virt. eigenvalues --    3.44763   3.44806   3.45028   3.45506   3.45619
 Alpha virt. eigenvalues --    3.46805   3.47167   3.48968   3.49414   3.51395
 Alpha virt. eigenvalues --    3.53212   3.55998   3.66075   4.01582   4.15284
 Alpha virt. eigenvalues --    4.20650   4.22667   4.34625   4.39051   4.45977
 Alpha virt. eigenvalues --    4.46812   4.47880   4.52027   4.53718   4.59573
 Alpha virt. eigenvalues --    4.61974   4.66938   4.72549   4.79566   4.80831
          Condensed to atoms (all electrons):
               1          2          3          4          5          6
     1  C    4.817659   0.309226  -0.029432  -0.011953  -0.006991   0.384317
     2  C    0.309226   5.118018   0.353047  -0.049829  -0.016285  -0.051588
     3  C   -0.029432   0.353047   4.834664   0.278473  -0.013811  -0.012791
     4  C   -0.011953  -0.049829   0.278473   5.351654   0.284744   0.001299
     5  C   -0.006991  -0.016285  -0.013811   0.284744   4.364116  -0.002647
     6  H    0.384317  -0.051588  -0.012791   0.001299  -0.002647   0.645354
     7  H   -0.028310   0.368486  -0.030632   0.006112   0.000507  -0.001995
     8  H    0.000570  -0.007161  -0.021841   0.366912  -0.023225  -0.000046
     9  H    0.000065   0.005867  -0.033596   0.357639  -0.021272   0.000075
    10  O    0.165333  -0.034202   0.000353  -0.095536   0.258560  -0.040460
    11  O    0.001684  -0.000137   0.002174  -0.087476   0.576601   0.000242
    12  C    0.383123  -0.038145   0.004871  -0.000487   0.001418  -0.050527
    13  C   -0.040164   0.000069   0.000023   0.000033  -0.000057  -0.001382
    14  C   -0.043616   0.352869  -0.042481  -0.008420  -0.000216   0.006070
    15  O    0.002755  -0.050434   0.186789  -0.026110   0.001504  -0.000009
    16  Si   0.000365  -0.001885  -0.018890   0.003571  -0.000481  -0.000032
    17  C    0.000002  -0.000040  -0.000263  -0.002372   0.000016   0.000000
    18  C    0.000000  -0.000009  -0.001573  -0.000320   0.000069   0.000000
    19  C    0.000000  -0.000011   0.001027  -0.000067   0.000000   0.000000
    20  H    0.000000   0.000001   0.000031   0.000051   0.000000   0.000000
    21  H   -0.000001   0.000020  -0.000159  -0.000180  -0.000013   0.000000
    22  H    0.000000   0.000012  -0.000009  -0.000140  -0.000003   0.000000
    23  H    0.000000  -0.000003  -0.000047   0.000003   0.000000   0.000000
    24  H    0.000000   0.000000  -0.000011   0.000001   0.000000   0.000000
    25  H    0.000000   0.000006  -0.000043  -0.000003   0.000000   0.000000
    26  H    0.000000   0.000001   0.000006   0.000033   0.000000   0.000000
    27  H    0.000000  -0.000006  -0.000461   0.000159   0.000002   0.000000
    28  H    0.000000  -0.000005   0.000450  -0.000916  -0.000021   0.000000
    29  H    0.004437  -0.027149  -0.007003  -0.000436  -0.000038  -0.000133
    30  H   -0.006885  -0.034716  -0.007045   0.003316  -0.000038   0.000218
    31  H   -0.005358  -0.027276   0.004125  -0.000037  -0.000003  -0.000061
    32  H   -0.030197   0.005434  -0.000083   0.000018   0.000009  -0.006892
    33  H   -0.031432  -0.011236  -0.000078   0.000003   0.000120   0.006125
    34  H    0.003987   0.000064  -0.000002   0.000000   0.000000  -0.000137
    35  H   -0.004735  -0.001543  -0.000037  -0.000001   0.000002   0.005454
    36  H   -0.006555   0.002703  -0.000011  -0.000003   0.000003  -0.000257
    37  C    0.000588  -0.059085   0.340499  -0.066371   0.000735   0.004818
    38  C   -0.001605  -0.007175  -0.036113   0.004641   0.000004  -0.000381
    39  C    0.000039   0.000022  -0.001186  -0.000050   0.000002  -0.000054
    40  H   -0.000006   0.004883  -0.024274  -0.005622  -0.000306  -0.000003
    41  H    0.001403  -0.004914  -0.029271  -0.003770   0.004387   0.000582
    42  H   -0.000218   0.002216  -0.004466  -0.000031  -0.000007   0.001310
    43  H    0.000000   0.000002  -0.000036   0.000002   0.000000   0.000000
    44  H   -0.000002   0.000012   0.000075  -0.000018   0.000000   0.000001
               7          8          9         10         11         12
     1  C   -0.028310   0.000570   0.000065   0.165333   0.001684   0.383123
     2  C    0.368486  -0.007161   0.005867  -0.034202  -0.000137  -0.038145
     3  C   -0.030632  -0.021841  -0.033596   0.000353   0.002174   0.004871
     4  C    0.006112   0.366912   0.357639  -0.095536  -0.087476  -0.000487
     5  C    0.000507  -0.023225  -0.021272   0.258560   0.576601   0.001418
     6  H   -0.001995  -0.000046   0.000075  -0.040460   0.000242  -0.050527
     7  H    0.612766  -0.000032  -0.000126   0.002777   0.000004  -0.004965
     8  H   -0.000032   0.537315  -0.027112  -0.000451  -0.000555  -0.000010
     9  H   -0.000126  -0.027112   0.569028   0.003312   0.003650   0.000009
    10  O    0.002777  -0.000451   0.003312   8.331575  -0.075394  -0.039621
    11  O    0.000004  -0.000555   0.003650  -0.075394   8.079199  -0.000082
    12  C   -0.004965  -0.000010   0.000009  -0.039621  -0.000082   4.942290
    13  C    0.002419  -0.000001   0.000000   0.002611   0.000000   0.349010
    14  C   -0.041476   0.002335   0.000069  -0.003602  -0.000005  -0.007853
    15  O    0.000575  -0.001903  -0.000722  -0.000010  -0.000012  -0.000039
    16  Si   0.000606  -0.000046   0.003604  -0.000067  -0.000229  -0.000004
    17  C   -0.000002   0.000079  -0.000205   0.000000   0.000002   0.000000
    18  C    0.000004   0.000243  -0.001238   0.000000   0.000002   0.000000
    19  C   -0.000010  -0.000009   0.000005   0.000000   0.000000   0.000000
    20  H    0.000000   0.000021   0.000031   0.000000   0.000000   0.000000
    21  H    0.000000   0.001571   0.000577   0.000000   0.000001   0.000000
    22  H    0.000001   0.000486   0.000034   0.000000   0.000000   0.000000
    23  H    0.000000   0.000000   0.000000   0.000000   0.000000   0.000000
    24  H    0.000000   0.000000   0.000000   0.000000   0.000000   0.000000
    25  H   -0.000001  -0.000001   0.000000   0.000000   0.000000   0.000000
    26  H    0.000000   0.000000   0.000001   0.000000   0.000000   0.000000
    27  H    0.000000   0.000002  -0.000088   0.000000   0.000000   0.000000
    28  H    0.000000  -0.000065   0.002818   0.000000  -0.000009   0.000000
    29  H   -0.002252   0.000772  -0.000045   0.000028   0.000000   0.000162
    30  H    0.005396   0.001517   0.000047   0.006066  -0.000056  -0.001800
    31  H   -0.005690  -0.000065   0.000000   0.000039   0.000000   0.001925
    32  H   -0.000033   0.000001  -0.000001   0.001844  -0.000009   0.378162
    33  H    0.000112  -0.000012   0.000000   0.000873  -0.000004   0.379727
    34  H   -0.000029   0.000000   0.000000  -0.000051   0.000000  -0.025307
    35  H    0.000251   0.000000   0.000000   0.000010   0.000000  -0.037113
    36  H    0.001509   0.000000   0.000000  -0.000005   0.000000  -0.034999
    37  C   -0.009935   0.004611  -0.007408  -0.002066   0.000006  -0.000089
    38  C    0.005189  -0.000114   0.000066   0.000062   0.000000   0.000047
    39  C    0.000272   0.000001  -0.000001   0.000000   0.000000   0.000001
    40  H    0.000025  -0.000048   0.003889  -0.000005   0.000002  -0.000003
    41  H    0.000273   0.000064   0.000123   0.000342  -0.000185   0.000113
    42  H    0.002235   0.000003   0.000002  -0.000006   0.000000  -0.000135
    43  H    0.000017   0.000000   0.000000   0.000000   0.000000   0.000000
    44  H    0.000000   0.000000   0.000000   0.000000   0.000000   0.000000
              13         14         15         16         17         18
     1  C   -0.040164  -0.043616   0.002755   0.000365   0.000002   0.000000
     2  C    0.000069   0.352869  -0.050434  -0.001885  -0.000040  -0.000009
     3  C    0.000023  -0.042481   0.186789  -0.018890  -0.000263  -0.001573
     4  C    0.000033  -0.008420  -0.026110   0.003571  -0.002372  -0.000320
     5  C   -0.000057  -0.000216   0.001504  -0.000481   0.000016   0.000069
     6  H   -0.001382   0.006070  -0.000009  -0.000032   0.000000   0.000000
     7  H    0.002419  -0.041476   0.000575   0.000606  -0.000002   0.000004
     8  H   -0.000001   0.002335  -0.001903  -0.000046   0.000079   0.000243
     9  H    0.000000   0.000069  -0.000722   0.003604  -0.000205  -0.001238
    10  O    0.002611  -0.003602  -0.000010  -0.000067   0.000000   0.000000
    11  O    0.000000  -0.000005  -0.000012  -0.000229   0.000002   0.000002
    12  C    0.349010  -0.007853  -0.000039  -0.000004   0.000000   0.000000
    13  C    4.936461  -0.002607   0.000000   0.000000   0.000000   0.000000
    14  C   -0.002607   4.978227  -0.007599   0.000395  -0.000001  -0.000108
    15  O    0.000000  -0.007599   8.296603   0.336161  -0.014202  -0.017725
    16  Si   0.000000   0.000395   0.336161  11.857544   0.363333   0.369750
    17  C    0.000000  -0.000001  -0.014202   0.363333   5.155599  -0.035620
    18  C    0.000000  -0.000108  -0.017725   0.369750  -0.035620   5.144861
    19  C    0.000000  -0.000002  -0.019387   0.376541  -0.030621  -0.034011
    20  H    0.000000   0.000002   0.000581  -0.014029  -0.000077   0.369821
    21  H    0.000000  -0.000019  -0.000500  -0.027140  -0.001497   0.375320
    22  H    0.000000   0.000064  -0.000629  -0.027068   0.001331   0.378849
    23  H    0.000000   0.000000  -0.000447  -0.024796  -0.001319   0.001381
    24  H    0.000000   0.000000   0.000486  -0.014546  -0.000742  -0.000480
    25  H    0.000000  -0.000003  -0.000435  -0.024645   0.001402  -0.001285
    26  H    0.000000   0.000000   0.000478  -0.013465   0.370830  -0.000439
    27  H    0.000000   0.000000  -0.000243  -0.027231   0.377635   0.001368
    28  H    0.000000   0.000000  -0.000470  -0.027915   0.374256  -0.001440
    29  H    0.000015   0.382604   0.007886   0.002594   0.000008  -0.000088
    30  H    0.000208   0.383586   0.000011  -0.000134   0.000000  -0.000006
    31  H   -0.000101   0.378692   0.000257  -0.000086   0.000000   0.000001
    32  H   -0.035592   0.000007   0.000000   0.000000   0.000000   0.000000
    33  H   -0.034600   0.005033  -0.000001  -0.000001   0.000000   0.000000
    34  H    0.383042   0.000005   0.000000   0.000000   0.000000   0.000000
    35  H    0.386838   0.000211   0.000000   0.000000   0.000000   0.000000
    36  H    0.387418   0.000031   0.000001  -0.000001   0.000000   0.000000
    37  C   -0.000010   0.005383  -0.052970  -0.007870  -0.000884  -0.000127
    38  C   -0.000066  -0.000056   0.001953   0.005985  -0.000316   0.000007
    39  C    0.000001  -0.000011   0.000010   0.005075  -0.000852   0.000000
    40  H    0.000000  -0.000103  -0.003240  -0.002387   0.001728  -0.000028
    41  H    0.000003  -0.000089   0.003254   0.001178  -0.000029   0.000003
    42  H    0.000202   0.000014  -0.000094  -0.000117  -0.000004   0.000000
    43  H    0.000000   0.000000  -0.000005   0.000000   0.000011   0.000000
    44  H    0.000000   0.000000  -0.000072   0.000013  -0.000250   0.000001
              19         20         21         22         23         24
     1  C    0.000000   0.000000  -0.000001   0.000000   0.000000   0.000000
     2  C   -0.000011   0.000001   0.000020   0.000012  -0.000003   0.000000
     3  C    0.001027   0.000031  -0.000159  -0.000009  -0.000047  -0.000011
     4  C   -0.000067   0.000051  -0.000180  -0.000140   0.000003   0.000001
     5  C    0.000000   0.000000  -0.000013  -0.000003   0.000000   0.000000
     6  H    0.000000   0.000000   0.000000   0.000000   0.000000   0.000000
     7  H   -0.000010   0.000000   0.000000   0.000001   0.000000   0.000000
     8  H   -0.000009   0.000021   0.001571   0.000486   0.000000   0.000000
     9  H    0.000005   0.000031   0.000577   0.000034   0.000000   0.000000
    10  O    0.000000   0.000000   0.000000   0.000000   0.000000   0.000000
    11  O    0.000000   0.000000   0.000001   0.000000   0.000000   0.000000
    12  C    0.000000   0.000000   0.000000   0.000000   0.000000   0.000000
    13  C    0.000000   0.000000   0.000000   0.000000   0.000000   0.000000
    14  C   -0.000002   0.000002  -0.000019   0.000064   0.000000   0.000000
    15  O   -0.019387   0.000581  -0.000500  -0.000629  -0.000447   0.000486
    16  Si   0.376541  -0.014029  -0.027140  -0.027068  -0.024796  -0.014546
    17  C   -0.030621  -0.000077  -0.001497   0.001331  -0.001319  -0.000742
    18  C   -0.034011   0.369821   0.375320   0.378849   0.001381  -0.000480
    19  C    5.120037  -0.000929   0.001424  -0.000997   0.375643   0.372879
    20  H   -0.000929   0.571746  -0.023309  -0.023216   0.000019   0.000038
    21  H    0.001424  -0.023309   0.582997  -0.023190  -0.000027   0.000002
    22  H   -0.000997  -0.023216  -0.023190   0.576069   0.000001  -0.000014
    23  H    0.375643   0.000019  -0.000027   0.000001   0.575386  -0.023681
    24  H    0.372879   0.000038   0.000002  -0.000014  -0.023681   0.569085
    25  H    0.376160  -0.000050   0.000009   0.000538  -0.021936  -0.023821
    26  H   -0.001000   0.000066  -0.000026   0.000020  -0.000025   0.000059
    27  H   -0.001167   0.000000   0.000007  -0.000025   0.000695  -0.000074
    28  H    0.001493  -0.000025   0.000723   0.000001   0.000003  -0.000001
    29  H   -0.000082   0.000001  -0.000021   0.000364  -0.000001   0.000000
    30  H    0.000000   0.000000  -0.000019   0.000029   0.000000   0.000000
    31  H    0.000000   0.000000   0.000000  -0.000001   0.000000   0.000000
    32  H    0.000000   0.000000   0.000000   0.000000   0.000000   0.000000
    33  H    0.000000   0.000000   0.000000   0.000000   0.000000   0.000000
    34  H    0.000000   0.000000   0.000000   0.000000   0.000000   0.000000
    35  H    0.000000   0.000000   0.000000   0.000000   0.000000   0.000000
    36  H    0.000000   0.000000   0.000000   0.000000   0.000000   0.000000
    37  C   -0.000074   0.000001  -0.000025  -0.000001  -0.000013   0.000001
    38  C   -0.000131   0.000000   0.000000   0.000000   0.000044   0.000000
    39  C   -0.000200   0.000000   0.000000   0.000000   0.000210  -0.000001
    40  H   -0.000009   0.000001  -0.000008   0.000000  -0.000008   0.000001
    41  H   -0.000001   0.000000   0.000001   0.000000   0.000000   0.000000
    42  H    0.000000   0.000000   0.000000   0.000000   0.000000   0.000000
    43  H   -0.000001   0.000000   0.000000   0.000000   0.000000   0.000000
    44  H   -0.000015   0.000000   0.000000   0.000000   0.000028   0.000000
              25         26         27         28         29         30
     1  C    0.000000   0.000000   0.000000   0.000000   0.004437  -0.006885
     2  C    0.000006   0.000001  -0.000006  -0.000005  -0.027149  -0.034716
     3  C   -0.000043   0.000006  -0.000461   0.000450  -0.007003  -0.007045
     4  C   -0.000003   0.000033   0.000159  -0.000916  -0.000436   0.003316
     5  C    0.000000   0.000000   0.000002  -0.000021  -0.000038  -0.000038
     6  H    0.000000   0.000000   0.000000   0.000000  -0.000133   0.000218
     7  H   -0.000001   0.000000   0.000000   0.000000  -0.002252   0.005396
     8  H   -0.000001   0.000000   0.000002  -0.000065   0.000772   0.001517
     9  H    0.000000   0.000001  -0.000088   0.002818  -0.000045   0.000047
    10  O    0.000000   0.000000   0.000000   0.000000   0.000028   0.006066
    11  O    0.000000   0.000000   0.000000  -0.000009   0.000000  -0.000056
    12  C    0.000000   0.000000   0.000000   0.000000   0.000162  -0.001800
    13  C    0.000000   0.000000   0.000000   0.000000   0.000015   0.000208
    14  C   -0.000003   0.000000   0.000000   0.000000   0.382604   0.383586
    15  O   -0.000435   0.000478  -0.000243  -0.000470   0.007886   0.000011
    16  Si  -0.024645  -0.013465  -0.027231  -0.027915   0.002594  -0.000134
    17  C    0.001402   0.370830   0.377635   0.374256   0.000008   0.000000
    18  C   -0.001285  -0.000439   0.001368  -0.001440  -0.000088  -0.000006
    19  C    0.376160  -0.001000  -0.001167   0.001493  -0.000082   0.000000
    20  H   -0.000050   0.000066   0.000000  -0.000025   0.000001   0.000000
    21  H    0.000009  -0.000026   0.000007   0.000723  -0.000021  -0.000019
    22  H    0.000538   0.000020  -0.000025   0.000001   0.000364   0.000029
    23  H   -0.021936  -0.000025   0.000695   0.000003  -0.000001   0.000000
    24  H   -0.023821   0.000059  -0.000074  -0.000001   0.000000   0.000000
    25  H    0.576184   0.000010   0.000007  -0.000027   0.000018   0.000000
    26  H    0.000010   0.564137  -0.022560  -0.022656   0.000000   0.000000
    27  H    0.000007  -0.022560   0.571584  -0.023689   0.000000   0.000000
    28  H   -0.000027  -0.022656  -0.023689   0.579186   0.000000   0.000000
    29  H    0.000018   0.000000   0.000000   0.000000   0.566100  -0.029801
    30  H    0.000000   0.000000   0.000000   0.000000  -0.029801   0.601181
    31  H    0.000000   0.000000   0.000000   0.000000  -0.029410  -0.030939
    32  H    0.000000   0.000000   0.000000   0.000000  -0.000002  -0.000038
    33  H    0.000000   0.000000   0.000000   0.000000  -0.000081   0.001194
    34  H    0.000000   0.000000   0.000000   0.000000   0.000000   0.000001
    35  H    0.000000   0.000000   0.000000   0.000000   0.000001  -0.000004
    36  H    0.000000   0.000000   0.000000   0.000000  -0.000062  -0.000021
    37  C    0.000004   0.000119  -0.000836  -0.001360   0.000214  -0.000040
    38  C   -0.000003  -0.000002   0.000166   0.000057  -0.000003   0.000000
    39  C   -0.000001   0.000007  -0.000070  -0.000011   0.000000   0.000000
    40  H    0.000000   0.000065   0.001150   0.001899  -0.000003   0.000001
    41  H    0.000000  -0.000002   0.000020  -0.000024  -0.000006  -0.000007
    42  H    0.000000   0.000000   0.000001   0.000000   0.000002   0.000001
    43  H    0.000000   0.000000  -0.000019   0.000000   0.000000   0.000000
    44  H    0.000000  -0.000002   0.002932  -0.000004   0.000000   0.000000
              31         32         33         34         35         36
     1  C   -0.005358  -0.030197  -0.031432   0.003987  -0.004735  -0.006555
     2  C   -0.027276   0.005434  -0.011236   0.000064  -0.001543   0.002703
     3  C    0.004125  -0.000083  -0.000078  -0.000002  -0.000037  -0.000011
     4  C   -0.000037   0.000018   0.000003   0.000000  -0.000001  -0.000003
     5  C   -0.000003   0.000009   0.000120   0.000000   0.000002   0.000003
     6  H   -0.000061  -0.006892   0.006125  -0.000137   0.005454  -0.000257
     7  H   -0.005690  -0.000033   0.000112  -0.000029   0.000251   0.001509
     8  H   -0.000065   0.000001  -0.000012   0.000000   0.000000   0.000000
     9  H    0.000000  -0.000001   0.000000   0.000000   0.000000   0.000000
    10  O    0.000039   0.001844   0.000873  -0.000051   0.000010  -0.000005
    11  O    0.000000  -0.000009  -0.000004   0.000000   0.000000   0.000000
    12  C    0.001925   0.378162   0.379727  -0.025307  -0.037113  -0.034999
    13  C   -0.000101  -0.035592  -0.034600   0.383042   0.386838   0.387418
    14  C    0.378692   0.000007   0.005033   0.000005   0.000211   0.000031
[...]
    13  C    0.000000   0.000000   0.000000   0.000000   0.000000   0.000000
    14  C   -0.000007   0.000001  -0.000013   0.000050   0.000000   0.000000
    15  O   -0.025524   0.000559  -0.000564  -0.000698  -0.000624   0.000676
    16  Si   0.379316  -0.014075  -0.024782  -0.025533  -0.022245  -0.015013
    17  C   -0.026711  -0.000118  -0.001243   0.001211  -0.001356  -0.000425
    18  C   -0.029943   0.368012   0.376779   0.378810   0.001195  -0.000166
    19  C    5.115208  -0.000637   0.001194  -0.001032   0.376722   0.368192
    20  H   -0.000637   0.574073  -0.023744  -0.023951   0.000012   0.000017
    21  H    0.001194  -0.023744   0.575700  -0.023607  -0.000021   0.000001
    22  H   -0.001032  -0.023951  -0.023607   0.573853   0.000001  -0.000027
    23  H    0.376722   0.000012  -0.000021   0.000001   0.568234  -0.024027
    24  H    0.368192   0.000017   0.000001  -0.000027  -0.024027   0.577763
    25  H    0.377191  -0.000029   0.000008   0.000457  -0.022489  -0.024310
    26  H   -0.000703   0.000090  -0.000032   0.000012  -0.000012   0.000028
    27  H   -0.001137   0.000002   0.000005  -0.000021   0.000538  -0.000072
    28  H    0.001196  -0.000032   0.000545  -0.000001   0.000004  -0.000001
    29  H   -0.000138   0.000000  -0.000018   0.000405  -0.000003   0.000001
    30  H    0.000000   0.000000  -0.000010   0.000021   0.000000   0.000000
    31  H    0.000000   0.000000   0.000000  -0.000001   0.000000   0.000000
    32  H    0.000000   0.000000   0.000000   0.000000   0.000000   0.000000
    33  H    0.000000   0.000000   0.000000   0.000000   0.000000   0.000000
    34  H    0.000000   0.000000   0.000000   0.000000   0.000000   0.000000
    35  H    0.000000   0.000000   0.000000   0.000000   0.000000   0.000000
    36  H    0.000000   0.000000   0.000000   0.000000   0.000000   0.000000
    37  C   -0.000064   0.000001  -0.000022  -0.000002  -0.000016   0.000001
    38  C   -0.000222   0.000000   0.000000   0.000000   0.000101   0.000001
    39  C   -0.000215   0.000000   0.000000   0.000000   0.000272  -0.000002
    40  H   -0.000010   0.000001  -0.000009   0.000001  -0.000007   0.000001
    41  H   -0.000001   0.000000   0.000001   0.000000   0.000000   0.000000
    42  H    0.000000   0.000000   0.000000   0.000000   0.000000   0.000000
    43  H   -0.000002   0.000000   0.000000   0.000000   0.000003   0.000000
    44  H   -0.000005   0.000000   0.000000   0.000000   0.000001   0.000000
              25         26         27         28         29         30
     1  C    0.000000   0.000000   0.000000   0.000000   0.004610  -0.006935
     2  C    0.000010   0.000001  -0.000006  -0.000003  -0.030263  -0.034291
     3  C   -0.000053  -0.000003  -0.000443   0.000317  -0.007686  -0.006498
     4  C   -0.000005   0.000019   0.000105  -0.000474  -0.000787   0.003100
     5  C    0.000000   0.000000   0.000001  -0.000007  -0.000059   0.000385
     6  H    0.000000   0.000000   0.000000   0.000000  -0.000147   0.000214
     7  H   -0.000003   0.000000   0.000000   0.000000  -0.001793   0.005257
     8  H   -0.000002   0.000000   0.000002  -0.000046   0.000982   0.000933
     9  H    0.000000   0.000002  -0.000050   0.001606  -0.000052   0.000050
    10  O    0.000000   0.000000   0.000000   0.000000   0.000011   0.005259
    11  O    0.000000   0.000000   0.000000  -0.000001   0.000000  -0.000115
    12  C    0.000000   0.000000   0.000000   0.000000   0.000218  -0.002066
    13  C    0.000000   0.000000   0.000000   0.000000   0.000003   0.000211
    14  C   -0.000006   0.000000   0.000000   0.000000   0.382440   0.384031
    15  O   -0.000632   0.000506  -0.000366  -0.000544   0.009381   0.000061
    16  Si  -0.023294  -0.014056  -0.024791  -0.024606   0.002876  -0.000110
    17  C    0.001194   0.368077   0.377526   0.376308   0.000010   0.000000
    18  C   -0.001297  -0.000253   0.001227  -0.001187  -0.000102  -0.000007
    19  C    0.377191  -0.000703  -0.001137   0.001196  -0.000138   0.000000
    20  H   -0.000029   0.000090   0.000002  -0.000032   0.000000   0.000000
    21  H    0.000008  -0.000032   0.000005   0.000545  -0.000018  -0.000010
    22  H    0.000457   0.000012  -0.000021  -0.000001   0.000405   0.000021
    23  H   -0.022489  -0.000012   0.000538   0.000004  -0.000003   0.000000
    24  H   -0.024310   0.000028  -0.000072  -0.000001   0.000001   0.000000
    25  H    0.572171   0.000004   0.000001  -0.000021   0.000092   0.000000
    26  H    0.000004   0.571155  -0.022910  -0.023769   0.000000   0.000000
    27  H    0.000001  -0.022910   0.568692  -0.024136   0.000000   0.000000
    28  H   -0.000021  -0.023769  -0.024136   0.574702   0.000000   0.000000
    29  H    0.000092   0.000000   0.000000   0.000000   0.563086  -0.029515
    30  H    0.000000   0.000000   0.000000   0.000000  -0.029515   0.600360
    31  H    0.000000   0.000000   0.000000   0.000000  -0.027194  -0.031839
    32  H    0.000000   0.000000   0.000000   0.000000  -0.000002  -0.000052
    33  H    0.000000   0.000000   0.000000   0.000000  -0.000095   0.001500
    34  H    0.000000   0.000000   0.000000   0.000000   0.000000   0.000001
    35  H    0.000000   0.000000   0.000000   0.000000   0.000001  -0.000003
    36  H    0.000000   0.000000   0.000000   0.000000  -0.000050  -0.000017
    37  C    0.000005   0.000072  -0.000350  -0.000787   0.000286  -0.000052
    38  C   -0.000005  -0.000001   0.000241   0.000037  -0.000004   0.000000
    39  C   -0.000002   0.000008   0.000383  -0.000018   0.000000   0.000000
    40  H    0.000000   0.000032   0.000574   0.001653  -0.000005   0.000001
    41  H    0.000000  -0.000001   0.000018  -0.000021  -0.000010  -0.000010
    42  H    0.000000   0.000000   0.000003   0.000000   0.000003   0.000001
    43  H    0.000000   0.000000  -0.000022   0.000000   0.000000   0.000000
    44  H    0.000000   0.000000   0.002733   0.000024   0.000000   0.000000
              31         32         33         34         35         36
     1  C   -0.004580  -0.032609  -0.032776   0.003911  -0.004788  -0.006248
     2  C   -0.026084   0.005558  -0.012383   0.000032  -0.001242   0.002652
     3  C    0.004005  -0.000085  -0.000066  -0.000002  -0.000029  -0.000015
     4  C    0.000022   0.000019   0.000015   0.000000   0.000000  -0.000003
     5  C   -0.000029   0.000064   0.000134   0.000000   0.000001   0.000004
     6  H   -0.000087  -0.006167   0.006193  -0.000106   0.005497  -0.000285
     7  H   -0.006309  -0.000062   0.000111  -0.000036   0.000225   0.001434
     8  H   -0.000056   0.000001  -0.000015   0.000000   0.000000   0.000000
     9  H    0.000000  -0.000001   0.000001   0.000000   0.000000   0.000000
    10  O    0.000050   0.001836   0.001049  -0.000052   0.000010  -0.000008
    11  O    0.000000  -0.000014  -0.000011   0.000000   0.000000   0.000000
    12  C    0.001452   0.378856   0.380063  -0.024990  -0.035591  -0.033465
    13  C    0.000206  -0.033665  -0.033880   0.382960   0.386279   0.386915
    14  C    0.379305  -0.000009   0.005970   0.000014   0.000173  -0.000142
    15  O    0.000222   0.000000  -0.000001   0.000000   0.000000   0.000001
    16  Si  -0.000086   0.000000  -0.000001   0.000000   0.000000   0.000000
    17  C    0.000000   0.000000   0.000000   0.000000   0.000000   0.000000
    18  C    0.000001   0.000000   0.000000   0.000000   0.000000   0.000000
    19  C    0.000000   0.000000   0.000000   0.000000   0.000000   0.000000
    20  H    0.000000   0.000000   0.000000   0.000000   0.000000   0.000000
    21  H    0.000000   0.000000   0.000000   0.000000   0.000000   0.000000
    22  H   -0.000001   0.000000   0.000000   0.000000   0.000000   0.000000
    23  H    0.000000   0.000000   0.000000   0.000000   0.000000   0.000000
    24  H    0.000000   0.000000   0.000000   0.000000   0.000000   0.000000
    25  H    0.000000   0.000000   0.000000   0.000000   0.000000   0.000000
    26  H    0.000000   0.000000   0.000000   0.000000   0.000000   0.000000
    27  H    0.000000   0.000000   0.000000   0.000000   0.000000   0.000000
    28  H    0.000000   0.000000   0.000000   0.000000   0.000000   0.000000
    29  H   -0.027194  -0.000002  -0.000095   0.000000   0.000001  -0.000050
    30  H   -0.031839  -0.000052   0.001500   0.000001  -0.000003  -0.000017
    31  H    0.595091   0.000035   0.000265  -0.000052  -0.000051   0.002231
    32  H    0.000035   0.609860  -0.035839  -0.004310  -0.004267   0.004985
    33  H    0.000265  -0.035839   0.608028  -0.002730   0.005127  -0.005100
    34  H   -0.000052  -0.004310  -0.002730   0.588288  -0.029971  -0.029780
    35  H   -0.000051  -0.004267   0.005127  -0.029971   0.598611  -0.032810
    36  H    0.002231   0.004985  -0.005100  -0.029780  -0.032810   0.593489
    37  C   -0.000104   0.000006   0.000003   0.000000  -0.000010   0.000007
    38  C    0.000002  -0.000001  -0.000002   0.000001  -0.000043  -0.000019
    39  C    0.000000   0.000000   0.000000   0.000000   0.000000   0.000000
    40  H    0.000002   0.000000   0.000000   0.000000   0.000000   0.000000
    41  H   -0.000002   0.000001  -0.000003   0.000000  -0.000010  -0.000001
    42  H    0.000002   0.000000   0.000003  -0.000002   0.000323   0.000025
    43  H    0.000000   0.000000   0.000000   0.000000   0.000000   0.000000
    44  H    0.000000   0.000000   0.000000   0.000000   0.000000   0.000000
              37         38         39         40         41         42
     1  C    0.000900  -0.001756   0.000034   0.000000   0.001393  -0.000286
     2  C   -0.061146  -0.007453   0.000103   0.005411  -0.005665   0.002092
     3  C    0.341879  -0.035314  -0.000632  -0.025458  -0.031391  -0.004837
     4  C   -0.064933   0.004806  -0.000071  -0.006910  -0.003686  -0.000028
     5  C    0.000552  -0.000021   0.000002  -0.000293   0.003301  -0.000006
     6  H    0.005593  -0.000490  -0.000069   0.000014  -0.000964   0.001239
     7  H   -0.010865   0.004855   0.000151   0.000002   0.000335   0.002909
     8  H    0.004763  -0.000125   0.000001  -0.000047   0.000071   0.000003
     9  H   -0.007151   0.000061  -0.000002   0.004439   0.000038   0.000002
    10  O   -0.002569   0.000079   0.000000  -0.000008   0.001405  -0.000004
    11  O    0.000015   0.000000   0.000000  -0.000006  -0.000258   0.000000
    12  C   -0.000088   0.000046   0.000001  -0.000003   0.000195  -0.000107
    13  C   -0.000004  -0.000048   0.000000   0.000000   0.000000   0.000151
    14  C    0.005585  -0.000070  -0.000010  -0.000116  -0.000118   0.000003
    15  O   -0.058387   0.002891  -0.000219  -0.003349   0.003735  -0.000140
    16  Si  -0.007370   0.006617   0.004675  -0.001583   0.001084  -0.000126
    17  C   -0.000434  -0.000436  -0.000957   0.001686  -0.000033  -0.000004
    18  C   -0.000110   0.000008   0.000000  -0.000041   0.000003   0.000000
    19  C   -0.000064  -0.000222  -0.000215  -0.000010  -0.000001   0.000000
    20  H    0.000001   0.000000   0.000000   0.000001   0.000000   0.000000
    21  H   -0.000022   0.000000   0.000000  -0.000009   0.000001   0.000000
    22  H   -0.000002   0.000000   0.000000   0.000001   0.000000   0.000000
    23  H   -0.000016   0.000101   0.000272  -0.000007   0.000000   0.000000
    24  H    0.000001   0.000001  -0.000002   0.000001   0.000000   0.000000
    25  H    0.000005  -0.000005  -0.000002   0.000000   0.000000   0.000000
    26  H    0.000072  -0.000001   0.000008   0.000032  -0.000001   0.000000
    27  H   -0.000350   0.000241   0.000383   0.000574   0.000018   0.000003
    28  H   -0.000787   0.000037  -0.000018   0.001653  -0.000021   0.000000
    29  H    0.000286  -0.000004   0.000000  -0.000005  -0.000010   0.000003
    30  H   -0.000052   0.000000   0.000000   0.000001  -0.000010   0.000001
    31  H   -0.000104   0.000002   0.000000   0.000002  -0.000002   0.000002
    32  H    0.000006  -0.000001   0.000000   0.000000   0.000001   0.000000
    33  H    0.000003  -0.000002   0.000000   0.000000  -0.000003   0.000003
    34  H    0.000000   0.000001   0.000000   0.000000   0.000000  -0.000002
    35  H   -0.000010  -0.000043   0.000000   0.000000  -0.000010   0.000323
    36  H    0.000007  -0.000019   0.000000   0.000000  -0.000001   0.000025
    37  C    5.075707   0.378846  -0.035023   0.372656   0.359504  -0.053382
    38  C    0.378846   4.741540   0.669163  -0.039026  -0.032996   0.380359
    39  C   -0.035023   0.669163   4.918620  -0.007141  -0.000188  -0.043087
    40  H    0.372656  -0.039026  -0.007141   0.608423  -0.031744   0.005055
    41  H    0.359504  -0.032996  -0.000188  -0.031744   0.621902  -0.001711
    42  H   -0.053382   0.380359  -0.043087   0.005055  -0.001711   0.619619
    43  H    0.004720  -0.024100   0.375261   0.000113  -0.000211  -0.008698
    44  H   -0.012339  -0.035497   0.382245   0.005929   0.000152   0.005857
              43         44
     1  C    0.000000  -0.000002
     2  C    0.000003   0.000008
     3  C   -0.000048   0.000112
     4  C    0.000002  -0.000017
     5  C    0.000000   0.000000
     6  H    0.000000   0.000002
     7  H    0.000016   0.000001
     8  H    0.000000   0.000000
     9  H    0.000000   0.000000
    10  O    0.000000   0.000000
    11  O    0.000000   0.000000
    12  C    0.000000   0.000000
    13  C    0.000000   0.000000
    14  C    0.000000   0.000000
    15  O   -0.000005  -0.000026
    16  Si   0.000018  -0.000125
    17  C    0.000011  -0.000237
    18  C    0.000000   0.000000
    19  C   -0.000002  -0.000005
    20  H    0.000000   0.000000
    21  H    0.000000   0.000000
    22  H    0.000000   0.000000
    23  H    0.000003   0.000001
    24  H    0.000000   0.000000
    25  H    0.000000   0.000000
    26  H    0.000000   0.000000
    27  H   -0.000022   0.002733
    28  H    0.000000   0.000024
    29  H    0.000000   0.000000
    30  H    0.000000   0.000000
    31  H    0.000000   0.000000
    32  H    0.000000   0.000000
    33  H    0.000000   0.000000
    34  H    0.000000   0.000000
    35  H    0.000000   0.000000
    36  H    0.000000   0.000000
    37  C    0.004720  -0.012339
    38  C   -0.024100  -0.035497
    39  C    0.375261   0.382245
    40  H    0.000113   0.005929
    41  H   -0.000211   0.000152
    42  H   -0.008698   0.005857
    43  H    0.589942  -0.043259
    44  H   -0.043259   0.590884
 Mulliken charges:
               1
     1  C    0.172175
     2  C   -0.100137
     3  C    0.321464
     4  C   -0.308589
     5  C    0.591532
     6  H    0.113323
     7  H    0.114159
     8  H    0.163026
     9  H    0.142004
    10  O   -0.490299
    11  O   -0.497994
    12  C   -0.196146
    13  C   -0.336895
    14  C   -0.341354
    15  O   -0.647214
    16  Si   0.908877
    17  C   -0.557518
    18  C   -0.551945
    19  C   -0.533674
    20  H    0.119718
    21  H    0.118238
    22  H    0.119693
    23  H    0.123764
    24  H    0.117376
    25  H    0.121016
    26  H    0.121734
    27  H    0.122253
    28  H    0.119260
    29  H    0.133516
    30  H    0.110135
    31  H    0.113585
    32  H    0.115862
    33  H    0.114439
    34  H    0.116824
    35  H    0.112569
    36  H    0.116198
    37  C   -0.235896
    38  C   -0.012024
    39  C   -0.263284
    40  H    0.109764
    41  H    0.115883
    42  H    0.094766
    43  H    0.106259
    44  H    0.103559
 Sum of Mulliken charges =   0.00000
 Mulliken charges with hydrogens summed into heavy atoms:
               1
     1  C    0.285498
     2  C    0.014022
     3  C    0.321464
     4  C   -0.003559
     5  C    0.591532
    10  O   -0.490299
    11  O   -0.497994
    12  C    0.034154
    13  C    0.008696
    14  C    0.015883
    15  O   -0.647214
    16  Si   0.908877
    17  C   -0.194271
    18  C   -0.194296
    19  C   -0.171518
    37  C   -0.010249
    38  C    0.082742
    39  C   -0.053467
 Electronic spatial extent (au):  <R**2>=           5518.9617
 Charge=              0.0000 electrons
 Dipole moment (field-independent basis, Debye):
    X=             -1.7394    Y=              3.6342    Z=              2.1694  Tot=              4.5759
 Quadrupole moment (field-independent basis, Debye-Ang):
   XX=           -113.7100   YY=           -128.2204   ZZ=           -121.2456
   XY=             12.9369   XZ=              8.5353   YZ=             -8.8652
 Traceless Quadrupole moment (field-independent basis, Debye-Ang):
   XX=              7.3486   YY=             -7.1617   ZZ=             -0.1869
   XY=             12.9369   XZ=              8.5353   YZ=             -8.8652
 Octapole moment (field-independent basis, Debye-Ang**2):
  XXX=             -3.3139  YYY=             36.3809  ZZZ=              9.3900  XYY=            -21.8043
  XXY=             20.9140  XXZ=             16.3133  XZZ=             -3.7726  YZZ=              8.2254
  YYZ=             24.5413  XYZ=            -13.1757
 Hexadecapole moment (field-independent basis, Debye-Ang**3):
 XXXX=          -4229.8578 YYYY=          -1838.3551 ZZZZ=          -1249.8959 XXXY=             70.3845
 XXXZ=             30.8100 YYYX=             33.5260 YYYZ=            -66.9243 ZZZX=              6.5334
 ZZZY=              5.1126 XXYY=          -1077.8363 XXZZ=           -946.1885 YYZZ=           -563.0249
 XXYZ=            -34.6373 YYXZ=             61.9148 ZZXY=             20.6011
 N-N= 1.625903610175D+03 E-N=-5.742076813843D+03  KE= 1.055904839656D+03
 1\1\GINC-CPU-E-611\FOpt\RB3LYP\6-31G(d,p)\C14H26O3Si1\KE291\06-Feb-201
 9\0\\# b3lyp/6-31g(d,p) Opt=(maxcycles=25) scrf=(solvent=chloroform)\\
 P_ng_3ginp008\\0,1\C,-0.1463011916,0.5698816957,-0.3406029173\C,-1.451
 1699377,0.1069420213,0.3252605196\C,-1.6682259268,0.9084424139,1.64205
 64159\C,-1.7717893493,2.3954366929,1.2597617483\C,-0.7138651598,2.9014
 668753,0.2919639428\H,0.6971155527,0.3349783381,0.3191610488\H,-1.3086
 213579,-0.9410799415,0.6085143508\H,-2.7332723182,2.5717150048,0.76566
 83586\H,-1.7433604279,3.0483704325,2.1362174366\O,-0.1059869056,2.0213
 20171,-0.533063639\O,-0.4532474914,4.0812150432,0.1806033265\C,0.16206
 91624,-0.0265606067,-1.714205604\C,0.3860864235,-1.5418783354,-1.68183
 00547\C,-2.6635264432,0.1743407402,-0.6187801777\O,-2.8735381529,0.430
 5862491,2.2257091611\Si,-4.0039984325,1.013106074,3.3267236659\C,-3.21
 56250808,1.7856939743,4.85846368\C,-5.144576854,2.2805381891,2.5158451
 776\C,-4.9846070519,-0.5184782207,3.8047083886\H,-5.9697066657,2.52704
 77645,3.1944621847\H,-4.6276875971,3.2156069015,2.2770570622\H,-5.5822
 09228,1.8905351688,1.590709591\H,-4.3373382015,-1.2718749655,4.2649863
 739\H,-5.7756368719,-0.2693349317,4.5207512422\H,-5.4579712354,-0.9735
 253428,2.9283762516\H,-4.0032484488,2.0885880871,5.5587491078\H,-2.565
 1203934,1.0759316821,5.3788519949\H,-2.6275499676,2.6802068328,4.62703
 05525\H,-3.5814818022,-0.0178351053,-0.0619286463\H,-2.7551783991,1.14
 76184681,-1.1110252715\H,-2.5836097446,-0.5811348322,-1.4046841972\H,1
 .0657725673,0.4704559697,-2.0834453221\H,-0.6400958986,0.2281412222,-2
 .4144082107\H,0.679816881,-1.9034078807,-2.6713493709\H,1.1836042531,-
 1.8121045063,-0.9806826972\H,-0.5165269998,-2.0865298286,-1.3873012425
 \C,-0.5070011901,0.726213596,2.6631042984\C,-0.2343096924,-0.685905779
 ,3.1036604243\C,-0.2585873786,-1.1031419403,4.3703257644\H,-0.74049113
 51,1.3400009977,3.5386029288\H,0.4086163027,1.1558092663,2.2344459361\
 H,0.0306285986,-1.4024741109,2.3268316926\H,-0.0285917729,-2.130615614
 ,4.6365025714\H,-0.4994750369,-0.4298339305,5.1896381532\\Version=ES64
 L-G09RevD.01\State=1-A\HF=-1064.4215989\RMSD=7.631e-09\RMSF=7.729e-06\
 Dipole=-0.5593399,-1.6156143,0.5639414\Quadrupole=2.9759364,-8.1109252
 ,5.1349888,-8.9225981,0.3585762,8.6651655\PG=C01 [X(C14H26O3Si1)]\\@


 I LOVE THOSE WHO LONG FOR THE IMPOSSIBLE.

                                 -- GOETHE
 Job cpu time:       0 days  2 hours 13 minutes 36.3 seconds.
 File lengths (MBytes):  RWF=    364 Int=      0 D2E=      0 Chk=     17 Scr=      1
 Normal termination of Gaussian 09 at Wed Feb  6 11:17:46 2019.
