 Entering Gaussian System, Link 0=/usr/local/Cluster-Apps/gaussian/g09/g09
 Initial command:
 /usr/local/Cluster-Apps/gaussian/g09/l1.exe "/home/ke291/rds/hpc-work/06Feb0927IP1/Gau-382640.inp" -scrdir="/home/ke291/rds/hpc-work/06Feb0927IP1/"
 Entering Link 1 = /usr/local/Cluster-Apps/gaussian/g09/l1.exe PID=    382646.
  
 Copyright (c) 1988,1990,1992,1993,1995,1998,2003,2009,2013,
            Gaussian, Inc.  All Rights Reserved.
  
 This is part of the Gaussian(R) 09 program.  It is based on
 the Gaussian(R) 03 system (copyright 2003, Gaussian, Inc.),
 the Gaussian(R) 98 system (copyright 1998, Gaussian, Inc.),
 the Gaussian(R) 94 system (copyright 1995, Gaussian, Inc.),
 the Gaussian 92(TM) system (copyright 1992, Gaussian, Inc.),
 the Gaussian 90(TM) system (copyright 1990, Gaussian, Inc.),
 the Gaussian 88(TM) system (copyright 1988, Gaussian, Inc.),
 the Gaussian 86(TM) system (copyright 1986, Carnegie Mellon
 University), and the Gaussian 82(TM) system (copyright 1983,
 Carnegie Mellon University). Gaussian is a federally registered
 trademark of Gaussian, Inc.
  
 This software contains proprietary and confidential information,
 including trade secrets, belonging to Gaussian, Inc.
  
 This software is provided under written license and may be
 used, copied, transmitted, or stored only in accord with that
 written license.
  
 The following legend is applicable only to US Government
 contracts under FAR:
  
                    RESTRICTED RIGHTS LEGEND
  
 Use, reproduction and disclosure by the US Government is
 subject to restrictions as set forth in subparagraphs (a)
 and (c) of the Commercial Computer Software - Restricted
 Rights clause in FAR 52.227-19.
  
 Gaussian, Inc.
 340 Quinnipiac St., Bldg. 40, Wallingford CT 06492
  
  
 ---------------------------------------------------------------
 Warning -- This program may not be used in any manner that
 competes with the business of Gaussian, Inc. or will provide
 assistance to any competitor of Gaussian, Inc.  The licensee
 of this program is prohibited from giving any competitor of
 Gaussian, Inc. access to this program.  By using this program,
 the user acknowledges that Gaussian, Inc. is engaged in the
 business of creating and licensing software in the field of
 computational chemistry and represents and warrants to the
 licensee that it is not a competitor of Gaussian, Inc. and that
 it will not use this program in any manner prohibited above.
 ---------------------------------------------------------------
  

 Cite this work as:
 Gaussian 09, Revision D.01,
 M. J. Frisch, G. W. Trucks, H. B. Schlegel, G. E. Scuseria, 
 M. A. Robb, J. R. Cheeseman, G. Scalmani, V. Barone, B. Mennucci, 
 G. A. Petersson, H. Nakatsuji, M. Caricato, X. Li, H. P. Hratchian, 
 A. F. Izmaylov, J. Bloino, G. Zheng, J. L. Sonnenberg, M. Hada, 
 M. Ehara, K. Toyota, R. Fukuda, J. Hasegawa, M. Ishida, T. Nakajima, 
 Y. Honda, O. Kitao, H. Nakai, T. Vreven, J. A. Montgomery, Jr., 
 J. E. Peralta, F. Ogliaro, M. Bearpark, J. J. Heyd, E. Brothers, 
 K. N. Kudin, V. N. Staroverov, T. Keith, R. Kobayashi, J. Normand, 
 K. Raghavachari, A. Rendell, J. C. Burant, S. S. Iyengar, J. Tomasi, 
 M. Cossi, N. Rega, J. M. Millam, M. Klene, J. E. Knox, J. B. Cross, 
 V. Bakken, C. Adamo, J. Jaramillo, R. Gomperts, R. E. Stratmann, 
 O. Yazyev, A. J. Austin, R. Cammi, C. Pomelli, J. W. Ochterski, 
 R. L. Martin, K. Morokuma, V. G. Zakrzewski, G. A. Voth, 
 P. Salvador, J. J. Dannenberg, S. Dapprich, A. D. Daniels, 
 O. Farkas, J. B. Foresman, J. V. Ortiz, J. Cioslowski, 
 and D. J. Fox, Gaussian, Inc., Wallingford CT, 2013.
 
 ******************************************
 Gaussian 09:  ES64L-G09RevD.01 24-Apr-2013
                 6-Feb-2019 
 ******************************************
 %nprocshared=2
 Will use up to    2 processors via shared memory.
 %mem=6000MB
 %chk=/home/ke291/rds/hpc-work/06Feb0927IP1/P_ng_4ginp009.chk
 ---------------------------------------------------------------
 # b3lyp/6-31g(d,p) Opt=(maxcycles=25) scrf=(solvent=chloroform)
 ---------------------------------------------------------------
 1/6=25,14=-1,18=20,19=15,26=3,38=1/1,3;
 2/9=110,12=2,17=6,18=5,40=1/2;
 3/5=1,6=6,7=101,11=2,16=1,25=1,30=1,70=2201,71=1,72=7,74=-5/1,2,3;
 4//1;
 5/5=2,38=5,53=7/2;
 6/7=2,8=2,9=2,10=2,28=1/1;
 7//1,2,3,16;
 1/6=25,14=-1,18=20,19=15,26=3/3(2);
 2/9=110/2;
 99//99;
 2/9=110/2;
 3/5=1,6=6,7=101,11=2,16=1,25=1,30=1,70=2205,71=1,72=7,74=-5/1,2,3;
 4/5=5,16=3,69=1/1;
 5/5=2,38=5,53=7/2;
 7//1,2,3,16;
 1/6=25,14=-1,18=20,19=15,26=3/3(-5);
 2/9=110/2;
 6/7=2,8=2,9=2,10=2,19=2,28=1/1;
 99/9=1/99;
 -------------
 P_ng_4ginp009
 -------------
 Symbolic Z-matrix:
 Charge =  0 Multiplicity = 1
 C                     0.57464   1.90484  -0.12681 
 C                    -0.60379   0.97099   0.2321 
 C                    -1.5761    1.63121   1.25845 
 C                    -1.98558   2.98477   0.66737 
 C                    -0.82514   3.84223   0.25467 
 H                     1.01965   1.49754  -1.04468 
 H                    -1.1591    0.8385   -0.70738 
 H                    -2.6038    2.86083  -0.22977 
 H                    -2.58008   3.55998   1.3812 
 O                     0.12448   3.22768  -0.48552 
 O                    -0.81873   5.05687   0.42699 
 C                     1.713     2.03731   0.90193 
 C                     2.9133    2.78626   0.32885 
 C                    -0.10954  -0.41842   0.65552 
 O                    -0.81017   1.79399   2.46635 
 Si                   -1.3177    2.20211   4.00732 
 C                    -2.01746   0.70358   4.90666 
 C                     0.18792   2.78547   4.99425 
 C                    -2.5852    3.57917   4.06575 
 H                    -0.10048   3.03954   6.01826 
 H                     0.94628   1.99804   5.03029 
 H                     0.62803   3.67051   4.52572 
 H                    -2.82477   3.83223   5.10322 
 H                    -2.20242   4.48196   3.5808 
 H                    -3.51548   3.2861    3.57149 
 H                    -2.96711   0.38713   4.46725 
 H                    -1.31637  -0.13457   4.85505 
 H                    -2.194     0.93957   5.96034 
 H                     0.63983  -0.79377  -0.04986 
 H                     0.33686  -0.4123    1.65444 
 H                    -0.92892  -1.14351   0.66469 
 H                     2.05432   1.05304   1.2359 
 H                     1.38102   2.59647   1.78126 
 H                     3.71205   2.84282   1.07534 
 H                     3.31022   2.27377  -0.55317 
 H                     2.64754   3.80903   0.04421 
 C                    -2.84533   0.74311   1.49495 
 C                    -3.63486   0.34669   0.27364 
 C                    -4.87035   0.78709   0.0029 
 H                    -3.52054   1.26138   2.18728 
 H                    -2.55803  -0.17571   2.02168 
 H                    -3.17743  -0.3681   -0.4076 
 H                    -5.39777   0.45081  -0.88535 
 H                    -5.3879    1.48582   0.65347 
 

 GradGradGradGradGradGradGradGradGradGradGradGradGradGradGradGradGradGrad
 Berny optimization.
 Initialization pass.
                           ----------------------------
                           !    Initial Parameters    !
                           ! (Angstroms and Degrees)  !
 --------------------------                            --------------------------
 ! Name  Definition              Value          Derivative Info.                !
 --------------------------------------------------------------------------------
 ! R1    R(1,2)                  1.5458         estimate D2E/DX2                !
 ! R2    R(1,6)                  1.0984         estimate D2E/DX2                !
 ! R3    R(1,10)                 1.4426         estimate D2E/DX2                !
 ! R4    R(1,12)                 1.54           estimate D2E/DX2                !
 ! R5    R(2,3)                  1.5603         estimate D2E/DX2                !
 ! R6    R(2,7)                  1.0993         estimate D2E/DX2                !
 ! R7    R(2,14)                 1.5343         estimate D2E/DX2                !
 ! R8    R(3,4)                  1.5327         estimate D2E/DX2                !
 ! R9    R(3,15)                 1.4395         estimate D2E/DX2                !
 ! R10   R(3,37)                 1.567          estimate D2E/DX2                !
 ! R11   R(4,5)                  1.5007         estimate D2E/DX2                !
 ! R12   R(4,8)                  1.0965         estimate D2E/DX2                !
 ! R13   R(4,9)                  1.0926         estimate D2E/DX2                !
 ! R14   R(5,10)                 1.3518         estimate D2E/DX2                !
 ! R15   R(5,11)                 1.2268         estimate D2E/DX2                !
 ! R16   R(12,13)                1.5265         estimate D2E/DX2                !
 ! R17   R(12,32)                1.094          estimate D2E/DX2                !
 ! R18   R(12,33)                1.0937         estimate D2E/DX2                !
 ! R19   R(13,34)                1.0947         estimate D2E/DX2                !
 ! R20   R(13,35)                1.0946         estimate D2E/DX2                !
 ! R21   R(13,36)                1.0944         estimate D2E/DX2                !
 ! R22   R(14,29)                1.0954         estimate D2E/DX2                !
 ! R23   R(14,30)                1.0941         estimate D2E/DX2                !
 ! R24   R(14,31)                1.0942         estimate D2E/DX2                !
 ! R25   R(15,16)                1.6729         estimate D2E/DX2                !
 ! R26   R(16,17)                1.8826         estimate D2E/DX2                !
 ! R27   R(16,18)                1.8924         estimate D2E/DX2                !
 ! R28   R(16,19)                1.8725         estimate D2E/DX2                !
 ! R29   R(17,26)                1.0932         estimate D2E/DX2                !
 ! R30   R(17,27)                1.0939         estimate D2E/DX2                !
 ! R31   R(17,28)                1.0941         estimate D2E/DX2                !
 ! R32   R(18,20)                1.0938         estimate D2E/DX2                !
 ! R33   R(18,21)                1.0938         estimate D2E/DX2                !
 ! R34   R(18,22)                1.0939         estimate D2E/DX2                !
 ! R35   R(19,23)                1.0944         estimate D2E/DX2                !
 ! R36   R(19,24)                1.094          estimate D2E/DX2                !
 ! R37   R(19,25)                1.0934         estimate D2E/DX2                !
 ! R38   R(37,38)                1.5073         estimate D2E/DX2                !
 ! R39   R(37,40)                1.0972         estimate D2E/DX2                !
 ! R40   R(37,41)                1.0974         estimate D2E/DX2                !
 ! R41   R(38,39)                1.3393         estimate D2E/DX2                !
 ! R42   R(38,42)                1.0882         estimate D2E/DX2                !
 ! R43   R(39,43)                1.0864         estimate D2E/DX2                !
 ! R44   R(39,44)                1.086          estimate D2E/DX2                !
 ! A1    A(2,1,6)              106.1927         estimate D2E/DX2                !
 ! A2    A(2,1,10)             111.9503         estimate D2E/DX2                !
 ! A3    A(2,1,12)             117.4111         estimate D2E/DX2                !
 ! A4    A(6,1,10)             104.9907         estimate D2E/DX2                !
 ! A5    A(6,1,12)             106.8957         estimate D2E/DX2                !
 ! A6    A(10,1,12)            108.534          estimate D2E/DX2                !
 ! A7    A(1,2,3)              111.8476         estimate D2E/DX2                !
 ! A8    A(1,2,7)              105.0385         estimate D2E/DX2                !
 ! A9    A(1,2,14)             111.4424         estimate D2E/DX2                !
 ! A10   A(3,2,7)              107.3587         estimate D2E/DX2                !
 ! A11   A(3,2,14)             113.7271         estimate D2E/DX2                !
 ! A12   A(7,2,14)             106.8236         estimate D2E/DX2                !
 ! A13   A(2,3,4)              106.6474         estimate D2E/DX2                !
 ! A14   A(2,3,15)             105.559          estimate D2E/DX2                !
 ! A15   A(2,3,37)             111.3573         estimate D2E/DX2                !
 ! A16   A(4,3,15)             111.462          estimate D2E/DX2                !
 ! A17   A(4,3,37)             110.0179         estimate D2E/DX2                !
 ! A18   A(15,3,37)            111.6178         estimate D2E/DX2                !
 ! A19   A(3,4,5)              113.8319         estimate D2E/DX2                !
 ! A20   A(3,4,8)              111.4893         estimate D2E/DX2                !
 ! A21   A(3,4,9)              110.9975         estimate D2E/DX2                !
 ! A22   A(5,4,8)              105.9941         estimate D2E/DX2                !
 ! A23   A(5,4,9)              107.433          estimate D2E/DX2                !
 ! A24   A(8,4,9)              106.6934         estimate D2E/DX2                !
 ! A25   A(4,5,10)             115.7236         estimate D2E/DX2                !
 ! A26   A(4,5,11)             122.0805         estimate D2E/DX2                !
 ! A27   A(10,5,11)            121.5566         estimate D2E/DX2                !
 ! A28   A(1,10,5)             119.9943         estimate D2E/DX2                !
 ! A29   A(1,12,13)            111.88           estimate D2E/DX2                !
 ! A30   A(1,12,32)            110.9254         estimate D2E/DX2                !
 ! A31   A(1,12,33)            110.8971         estimate D2E/DX2                !
 ! A32   A(13,12,32)           108.1019         estimate D2E/DX2                !
 ! A33   A(13,12,33)           106.8393         estimate D2E/DX2                !
 ! A34   A(32,12,33)           108.0139         estimate D2E/DX2                !
 ! A35   A(12,13,34)           110.0649         estimate D2E/DX2                !
 ! A36   A(12,13,35)           110.9741         estimate D2E/DX2                !
 ! A37   A(12,13,36)           111.4214         estimate D2E/DX2                !
 ! A38   A(34,13,35)           108.0033         estimate D2E/DX2                !
 ! A39   A(34,13,36)           107.8329         estimate D2E/DX2                !
 ! A40   A(35,13,36)           108.423          estimate D2E/DX2                !
 ! A41   A(2,14,29)            110.6681         estimate D2E/DX2                !
 ! A42   A(2,14,30)            112.2295         estimate D2E/DX2                !
 ! A43   A(2,14,31)            111.1731         estimate D2E/DX2                !
 ! A44   A(29,14,30)           108.1014         estimate D2E/DX2                !
 ! A45   A(29,14,31)           106.8943         estimate D2E/DX2                !
 ! A46   A(30,14,31)           107.5524         estimate D2E/DX2                !
 ! A47   A(3,15,16)            129.7233         estimate D2E/DX2                !
 ! A48   A(15,16,17)           111.0149         estimate D2E/DX2                !
 ! A49   A(15,16,18)           108.3133         estimate D2E/DX2                !
 ! A50   A(15,16,19)           114.4247         estimate D2E/DX2                !
 ! A51   A(17,16,18)           106.9761         estimate D2E/DX2                !
 ! A52   A(17,16,19)           108.5951         estimate D2E/DX2                !
 ! A53   A(18,16,19)           107.1922         estimate D2E/DX2                !
 ! A54   A(16,17,26)           111.1803         estimate D2E/DX2                !
 ! A55   A(16,17,27)           110.4339         estimate D2E/DX2                !
 ! A56   A(16,17,28)           110.3859         estimate D2E/DX2                !
 ! A57   A(26,17,27)           108.4208         estimate D2E/DX2                !
 ! A58   A(26,17,28)           108.0209         estimate D2E/DX2                !
 ! A59   A(27,17,28)           108.3064         estimate D2E/DX2                !
 ! A60   A(16,18,20)           110.4925         estimate D2E/DX2                !
 ! A61   A(16,18,21)           110.296          estimate D2E/DX2                !
 ! A62   A(16,18,22)           110.2518         estimate D2E/DX2                !
 ! A63   A(20,18,21)           108.6136         estimate D2E/DX2                !
 ! A64   A(20,18,22)           108.612          estimate D2E/DX2                !
 ! A65   A(21,18,22)           108.519          estimate D2E/DX2                !
 ! A66   A(16,19,23)           110.3523         estimate D2E/DX2                !
 ! A67   A(16,19,24)           110.8682         estimate D2E/DX2                !
 ! A68   A(16,19,25)           111.3879         estimate D2E/DX2                !
 ! A69   A(23,19,24)           107.8189         estimate D2E/DX2                !
 ! A70   A(23,19,25)           107.712          estimate D2E/DX2                !
 ! A71   A(24,19,25)           108.573          estimate D2E/DX2                !
 ! A72   A(3,37,38)            116.8085         estimate D2E/DX2                !
 ! A73   A(3,37,40)            109.0239         estimate D2E/DX2                !
 ! A74   A(3,37,41)            109.5673         estimate D2E/DX2                !
 ! A75   A(38,37,40)           108.2495         estimate D2E/DX2                !
 ! A76   A(38,37,41)           107.8089         estimate D2E/DX2                !
 ! A77   A(40,37,41)           104.6991         estimate D2E/DX2                !
 ! A78   A(37,38,39)           124.0904         estimate D2E/DX2                !
 ! A79   A(37,38,42)           117.3728         estimate D2E/DX2                !
 ! A80   A(39,38,42)           118.5035         estimate D2E/DX2                !
 ! A81   A(38,39,43)           120.7539         estimate D2E/DX2                !
 ! A82   A(38,39,44)           122.0137         estimate D2E/DX2                !
 ! A83   A(43,39,44)           117.2321         estimate D2E/DX2                !
 ! D1    D(6,1,2,3)           -163.642          estimate D2E/DX2                !
 ! D2    D(6,1,2,7)            -47.5026         estimate D2E/DX2                !
 ! D3    D(6,1,2,14)            67.8062         estimate D2E/DX2                !
 ! D4    D(10,1,2,3)           -49.5984         estimate D2E/DX2                !
 ! D5    D(10,1,2,7)            66.541          estimate D2E/DX2                !
 ! D6    D(10,1,2,14)         -178.1502         estimate D2E/DX2                !
 ! D7    D(12,1,2,3)            76.9183         estimate D2E/DX2                !
 ! D8    D(12,1,2,7)          -166.9422         estimate D2E/DX2                !
 ! D9    D(12,1,2,14)          -51.6334         estimate D2E/DX2                !
 ! D10   D(2,1,10,5)            44.3019         estimate D2E/DX2                !
 ! D11   D(6,1,10,5)           159.0844         estimate D2E/DX2                !
 ! D12   D(12,1,10,5)          -86.8927         estimate D2E/DX2                !
 ! D13   D(2,1,12,13)          170.0742         estimate D2E/DX2                !
 ! D14   D(2,1,12,32)           49.2752         estimate D2E/DX2                !
 ! D15   D(2,1,12,33)          -70.7504         estimate D2E/DX2                !
 ! D16   D(6,1,12,13)           51.0074         estimate D2E/DX2                !
 ! D17   D(6,1,12,32)          -69.7916         estimate D2E/DX2                !
 ! D18   D(6,1,12,33)          170.1829         estimate D2E/DX2                !
 ! D19   D(10,1,12,13)         -61.7575         estimate D2E/DX2                !
 ! D20   D(10,1,12,32)         177.4436         estimate D2E/DX2                !
 ! D21   D(10,1,12,33)          57.418          estimate D2E/DX2                !
 ! D22   D(1,2,3,4)             53.7379         estimate D2E/DX2                !
 ! D23   D(1,2,3,15)           -64.926          estimate D2E/DX2                !
 ! D24   D(1,2,3,37)           173.775          estimate D2E/DX2                !
 ! D25   D(7,2,3,4)            -60.9839         estimate D2E/DX2                !
 ! D26   D(7,2,3,15)          -179.6479         estimate D2E/DX2                !
 ! D27   D(7,2,3,37)            59.0531         estimate D2E/DX2                !
 ! D28   D(14,2,3,4)          -178.9292         estimate D2E/DX2                !
 ! D29   D(14,2,3,15)           62.4068         estimate D2E/DX2                !
 ! D30   D(14,2,3,37)          -58.8922         estimate D2E/DX2                !
 ! D31   D(1,2,14,29)          -47.0821         estimate D2E/DX2                !
 ! D32   D(1,2,14,30)           73.7755         estimate D2E/DX2                !
 ! D33   D(1,2,14,31)         -165.7151         estimate D2E/DX2                !
 ! D34   D(3,2,14,29)         -174.6249         estimate D2E/DX2                !
 ! D35   D(3,2,14,30)          -53.7673         estimate D2E/DX2                !
 ! D36   D(3,2,14,31)           66.7421         estimate D2E/DX2                !
 ! D37   D(7,2,14,29)           67.1216         estimate D2E/DX2                !
 ! D38   D(7,2,14,30)         -172.0207         estimate D2E/DX2                !
 ! D39   D(7,2,14,31)          -51.5114         estimate D2E/DX2                !
 ! D40   D(2,3,4,5)            -52.2353         estimate D2E/DX2                !
 ! D41   D(2,3,4,8)             67.6078         estimate D2E/DX2                !
 ! D42   D(2,3,4,9)           -173.5909         estimate D2E/DX2                !
 ! D43   D(15,3,4,5)            62.4969         estimate D2E/DX2                !
 ! D44   D(15,3,4,8)          -177.66           estimate D2E/DX2                !
 ! D45   D(15,3,4,9)           -58.8587         estimate D2E/DX2                !
 ! D46   D(37,3,4,5)          -173.1322         estimate D2E/DX2                !
 ! D47   D(37,3,4,8)           -53.2891         estimate D2E/DX2                !
 ! D48   D(37,3,4,9)            65.5122         estimate D2E/DX2                !
 ! D49   D(2,3,15,16)         -168.7546         estimate D2E/DX2                !
 ! D50   D(4,3,15,16)           75.8414         estimate D2E/DX2                !
 ! D51   D(37,3,15,16)         -47.6249         estimate D2E/DX2                !
 ! D52   D(2,3,37,38)          -54.5514         estimate D2E/DX2                !
 ! D53   D(2,3,37,40)         -177.6015         estimate D2E/DX2                !
 ! D54   D(2,3,37,41)           68.3564         estimate D2E/DX2                !
 ! D55   D(4,3,37,38)           63.4729         estimate D2E/DX2                !
 ! D56   D(4,3,37,40)          -59.5771         estimate D2E/DX2                !
 ! D57   D(4,3,37,41)         -173.6192         estimate D2E/DX2                !
 ! D58   D(15,3,37,38)        -172.2462         estimate D2E/DX2                !
 ! D59   D(15,3,37,40)          64.7037         estimate D2E/DX2                !
 ! D60   D(15,3,37,41)         -49.3384         estimate D2E/DX2                !
 ! D61   D(3,4,5,10)            47.8176         estimate D2E/DX2                !
 ! D62   D(3,4,5,11)          -141.2189         estimate D2E/DX2                !
 ! D63   D(8,4,5,10)           -75.0849         estimate D2E/DX2                !
 ! D64   D(8,4,5,11)            95.8786         estimate D2E/DX2                !
 ! D65   D(9,4,5,10)           171.1361         estimate D2E/DX2                !
 ! D66   D(9,4,5,11)           -17.9005         estimate D2E/DX2                !
 ! D67   D(4,5,10,1)           -43.2837         estimate D2E/DX2                !
 ! D68   D(11,5,10,1)          145.7013         estimate D2E/DX2                !
 ! D69   D(1,12,13,34)        -178.6827         estimate D2E/DX2                !
 ! D70   D(1,12,13,35)         -59.1836         estimate D2E/DX2                !
 ! D71   D(1,12,13,36)          61.7449         estimate D2E/DX2                !
 ! D72   D(32,12,13,34)        -56.2578         estimate D2E/DX2                !
 ! D73   D(32,12,13,35)         63.2413         estimate D2E/DX2                !
 ! D74   D(32,12,13,36)       -175.8302         estimate D2E/DX2                !
 ! D75   D(33,12,13,34)         59.7737         estimate D2E/DX2                !
 ! D76   D(33,12,13,35)        179.2727         estimate D2E/DX2                !
 ! D77   D(33,12,13,36)        -59.7988         estimate D2E/DX2                !
 ! D78   D(3,15,16,17)          80.6926         estimate D2E/DX2                !
 ! D79   D(3,15,16,18)        -162.1387         estimate D2E/DX2                !
 ! D80   D(3,15,16,19)         -42.6496         estimate D2E/DX2                !
 ! D81   D(15,16,17,26)        -69.3555         estimate D2E/DX2                !
 ! D82   D(15,16,17,27)         51.0425         estimate D2E/DX2                !
 ! D83   D(15,16,17,28)        170.7808         estimate D2E/DX2                !
 ! D84   D(18,16,17,26)        172.6614         estimate D2E/DX2                !
 ! D85   D(18,16,17,27)        -66.9406         estimate D2E/DX2                !
 ! D86   D(18,16,17,28)         52.7977         estimate D2E/DX2                !
 ! D87   D(19,16,17,26)         57.2717         estimate D2E/DX2                !
 ! D88   D(19,16,17,27)        177.6697         estimate D2E/DX2                !
 ! D89   D(19,16,17,28)        -62.592          estimate D2E/DX2                !
 ! D90   D(15,16,18,20)       -178.6494         estimate D2E/DX2                !
 ! D91   D(15,16,18,21)        -58.5485         estimate D2E/DX2                !
 ! D92   D(15,16,18,22)         61.2804         estimate D2E/DX2                !
 ! D93   D(17,16,18,20)        -58.9143         estimate D2E/DX2                !
 ! D94   D(17,16,18,21)         61.1866         estimate D2E/DX2                !
 ! D95   D(17,16,18,22)       -178.9846         estimate D2E/DX2                !
 ! D96   D(19,16,18,20)         57.41           estimate D2E/DX2                !
 ! D97   D(19,16,18,21)        177.5109         estimate D2E/DX2                !
 ! D98   D(19,16,18,22)        -62.6603         estimate D2E/DX2                !
 ! D99   D(15,16,19,23)       -176.6207         estimate D2E/DX2                !
 ! D100  D(15,16,19,24)        -57.2333         estimate D2E/DX2                !
 ! D101  D(15,16,19,25)         63.7904         estimate D2E/DX2                !
 ! D102  D(17,16,19,23)         58.7444         estimate D2E/DX2                !
 ! D103  D(17,16,19,24)        178.1319         estimate D2E/DX2                !
 ! D104  D(17,16,19,25)        -60.8444         estimate D2E/DX2                !
 ! D105  D(18,16,19,23)        -56.5049         estimate D2E/DX2                !
 ! D106  D(18,16,19,24)         62.8826         estimate D2E/DX2                !
 ! D107  D(18,16,19,25)       -176.0938         estimate D2E/DX2                !
 ! D108  D(3,37,38,39)        -112.0528         estimate D2E/DX2                !
 ! D109  D(3,37,38,42)          70.0795         estimate D2E/DX2                !
 ! D110  D(40,37,38,39)         11.3956         estimate D2E/DX2                !
 ! D111  D(40,37,38,42)       -166.4721         estimate D2E/DX2                !
 ! D112  D(41,37,38,39)        124.1359         estimate D2E/DX2                !
 ! D113  D(41,37,38,42)        -53.7318         estimate D2E/DX2                !
 ! D114  D(37,38,39,43)       -178.8276         estimate D2E/DX2                !
 ! D115  D(37,38,39,44)          0.9753         estimate D2E/DX2                !
 ! D116  D(42,38,39,43)         -0.9824         estimate D2E/DX2                !
 ! D117  D(42,38,39,44)        178.8205         estimate D2E/DX2                !
 --------------------------------------------------------------------------------
 Trust Radius=3.00D-01 FncErr=1.00D-07 GrdErr=1.00D-06
 Number of steps in this run=     25 maximum allowed number of steps=    264.
 GradGradGradGradGradGradGradGradGradGradGradGradGradGradGradGradGradGrad

                          Input orientation:                          
 ---------------------------------------------------------------------
 Center     Atomic      Atomic             Coordinates (Angstroms)
 Number     Number       Type             X           Y           Z
 ---------------------------------------------------------------------
      1          6           0        0.574636    1.904839   -0.126805
      2          6           0       -0.603794    0.970986    0.232097
      3          6           0       -1.576104    1.631208    1.258448
      4          6           0       -1.985580    2.984765    0.667367
      5          6           0       -0.825142    3.842228    0.254673
      6          1           0        1.019653    1.497539   -1.044677
      7          1           0       -1.159098    0.838496   -0.707375
      8          1           0       -2.603796    2.860832   -0.229769
      9          1           0       -2.580080    3.559977    1.381197
     10          8           0        0.124484    3.227681   -0.485517
     11          8           0       -0.818729    5.056870    0.426990
     12          6           0        1.712995    2.037313    0.901925
     13          6           0        2.913299    2.786256    0.328851
     14          6           0       -0.109543   -0.418420    0.655518
     15          8           0       -0.810167    1.793994    2.466352
     16         14           0       -1.317695    2.202111    4.007325
     17          6           0       -2.017458    0.703576    4.906658
     18          6           0        0.187919    2.785469    4.994251
     19          6           0       -2.585197    3.579174    4.065746
     20          1           0       -0.100476    3.039537    6.018260
     21          1           0        0.946276    1.998044    5.030286
     22          1           0        0.628031    3.670509    4.525721
     23          1           0       -2.824769    3.832231    5.103224
     24          1           0       -2.202415    4.481964    3.580795
     25          1           0       -3.515477    3.286096    3.571492
     26          1           0       -2.967108    0.387131    4.467252
     27          1           0       -1.316372   -0.134571    4.855054
     28          1           0       -2.193997    0.939569    5.960336
     29          1           0        0.639825   -0.793769   -0.049858
     30          1           0        0.336858   -0.412298    1.654443
     31          1           0       -0.928919   -1.143510    0.664691
     32          1           0        2.054320    1.053038    1.235900
     33          1           0        1.381022    2.596473    1.781256
     34          1           0        3.712052    2.842820    1.075338
     35          1           0        3.310225    2.273774   -0.553170
     36          1           0        2.647539    3.809033    0.044211
     37          6           0       -2.845333    0.743106    1.494945
     38          6           0       -3.634861    0.346687    0.273636
     39          6           0       -4.870345    0.787089    0.002900
     40          1           0       -3.520540    1.261384    2.187281
     41          1           0       -2.558031   -0.175711    2.021678
     42          1           0       -3.177427   -0.368104   -0.407597
     43          1           0       -5.397768    0.450810   -0.885345
     44          1           0       -5.387896    1.485816    0.653467
 ---------------------------------------------------------------------
                    Distance matrix (angstroms):
                    1          2          3          4          5
     1  C    0.000000
     2  C    1.545830   0.000000
     3  C    2.572835   1.560345   0.000000
     4  C    2.889923   2.480746   1.532698   0.000000
     5  C    2.420409   2.879850   2.541676   1.500725   0.000000
     6  H    1.098373   2.131429   3.472781   3.764885   3.254097
     7  H    2.116597   1.099329   2.160265   2.679451   3.171667
     8  H    3.320686   2.790134   2.186988   1.096542   2.088404
     9  H    3.868564   3.453840   2.177885   1.092636   2.104407
    10  O    1.442644   2.477505   2.912411   2.416717   1.351791
    11  O    3.490481   4.096172   3.605565   2.390176   1.226821
    12  C    1.540031   2.636899   3.333197   3.825198   3.181005
    13  C    2.540445   3.959105   4.727899   4.914572   3.885424
    14  C    2.545125   1.534281   2.591390   3.886042   4.338880
    15  O    2.941841   2.389943   1.439511   2.456802   3.014467
    16  Si   4.556349   4.034559   2.819402   3.494844   4.124923
    17  C    5.787723   4.890958   3.790083   4.814190   5.737048
    18  C    5.210592   5.157254   4.289559   4.846209   4.960507
    19  C    5.510483   5.042367   3.562831   3.501691   4.206099
    20  H    6.285311   6.165380   5.178482   5.673506   5.864161
    21  H    5.171305   5.145890   4.552333   5.348314   5.417141
    22  H    4.976589   5.219198   4.437571   4.710425   4.514759
    23  H    6.528706   6.070200   4.602822   4.593394   5.244717
    24  H    5.300932   5.108457   3.729929   3.282786   3.656396
    25  H    5.684566   4.998919   3.442382   3.296260   4.306794
    26  H    5.996061   4.884944   3.712013   4.706403   5.854190
    27  H    5.705613   4.806429   4.015098   5.264487   6.100799
    28  H    6.756505   5.944952   4.792484   5.678185   6.546280
    29  H    2.700492   2.177257   3.535890   4.656660   4.871482
    30  H    2.932321   2.195762   2.827040   4.231793   4.627158
    31  H    3.489925   2.182645   2.910405   4.261361   5.003645
    32  H    2.184490   2.842521   3.676244   4.513933   4.127189
    33  H    2.183876   2.996931   3.154308   3.567286   2.957959
    34  H    3.488314   4.779262   5.428271   5.713983   4.717885
    35  H    2.793089   4.199220   5.250815   5.480946   4.495989
    36  H    2.819952   4.319835   4.904738   4.746950   3.479211
    37  C    3.959278   2.582869   1.567035   2.539507   3.901795
    38  C    4.506446   3.094970   2.618841   3.136018   4.484829
    39  C    5.560037   4.276658   3.625046   3.686891   5.075523
    40  H    4.747578   3.523419   2.186397   2.763382   4.202487
    41  H    4.331082   2.887310   2.193549   3.485752   4.719009
    42  H    4.395804   2.970851   3.055682   3.717227   4.868135
    43  H    6.193480   4.949894   4.538095   4.524917   5.806054
    44  H    6.027951   4.830138   3.862240   3.717902   5.150771
                    6          7          8          9         10
     6  H    0.000000
     7  H    2.301101   0.000000
     8  H    3.956264   2.530830   0.000000
     9  H    4.805891   3.713190   1.756297   0.000000
    10  O    2.026667   2.721215   2.764688   3.302985   0.000000
    11  O    4.267820   4.381474   2.905233   2.500711   2.251278
    12  C    2.135729   3.503702   4.538017   4.580251   2.421846
    13  C    2.670817   4.631625   5.545805   5.646529   2.938629
    14  C    2.799401   2.130465   4.214086   4.738967   3.827634
    15  O    3.970321   3.332757   3.409445   2.725592   3.412120
    16  Si   5.610913   4.910498   4.476710   3.214648   4.828799
    17  C    6.728507   5.680876   5.601824   4.572138   6.327288
    18  C    6.230505   6.173629   5.923659   4.616908   5.497948
    19  C    6.591250   5.685750   4.355205   2.684623   5.308476
    20  H    7.315567   7.155378   6.733232   5.284094   6.510386
    21  H    6.095988   6.220764   6.404342   5.309489   5.710642
    22  H    5.992036   6.212843   5.806459   4.493576   5.055904
    23  H    7.617549   6.745367   5.425243   3.739984   6.348039
    24  H    6.378362   5.722916   4.160478   2.414730   4.850008
    25  H    6.713818   5.463696   3.932124   2.397367   5.450876
    26  H    6.892650   5.499945   5.321015   4.443026   6.492810
    27  H    6.551917   5.649089   6.040308   5.226311   6.473214
    28  H    7.727165   6.748304   6.494350   5.290001   7.222176
    29  H    2.526663   2.516494   4.889740   5.600965   4.077675
    30  H    3.376231   3.062769   4.786552   4.935804   4.227763
    31  H    3.700542   2.421548   4.431707   5.036120   4.641115
    32  H    2.543452   3.761436   5.207144   5.271007   3.378848
    33  H    3.053546   3.966860   4.471340   4.096183   2.667503
    34  H    3.681475   5.560889   6.449307   6.340251   3.931289
    35  H    2.467963   4.696664   5.951880   6.331808   3.326178
    36  H    3.029636   4.886661   5.343283   5.401626   2.642799
    37  C    4.685826   2.775374   2.741850   2.831618   4.349156
    38  C    4.972616   2.708073   2.763591   3.558720   4.796782
    39  C    6.024470   3.778953   3.080875   3.851483   5.580623
    40  H    5.578053   3.759558   3.039866   2.611085   4.929135
    41  H    5.000212   3.230071   3.780437   3.790259   5.006495
    42  H    4.637022   2.370528   3.284312   4.357342   4.882454
    43  H    6.504177   4.260082   3.747568   4.769014   6.194041
    44  H    6.628764   4.489281   3.228310   3.565889   5.892174
                   11         12         13         14         15
    11  O    0.000000
    12  C    3.968994   0.000000
    13  C    4.369594   1.526453   0.000000
    14  C    5.525755   3.068059   4.417492   0.000000
    15  O    3.847783   2.978755   4.406551   2.943598   0.000000
    16  Si   4.606237   4.342321   5.636817   4.422830   1.672944
    17  C    6.360467   5.633207   7.043170   4.792829   2.932858
    18  C    5.199276   4.430883   5.403115   5.401666   2.893004
    19  C    4.306337   5.555318   6.695264   5.808552   2.982559
    20  H    5.987305   5.519965   6.443319   6.380952   3.830286
    21  H    5.801896   4.199139   5.156932   5.108096   3.114560
    22  H    4.562314   4.120239   4.859843   5.678189   3.135398
    23  H    5.233651   6.439250   7.537515   6.724773   3.894371
    24  H    3.491646   5.336956   6.294529   6.078743   3.225759
    25  H    4.505106   6.001914   7.217598   5.816075   3.281220
    26  H    6.538020   6.110485   7.580327   4.831553   3.261174
    27  H    6.841525   5.433357   6.848931   4.378711   3.111511
    28  H    7.032883   6.485148   7.823576   5.859196   3.853953
    29  H    6.048532   3.173738   4.257779   1.095443   3.889770
    30  H    5.723095   2.908716   4.315784   1.094149   2.615834
    31  H    6.205913   4.141693   5.506223   1.094174   3.448045
    32  H    4.993938   1.094002   2.136499   2.680361   3.204421
    33  H    3.567421   1.093659   2.119757   3.546639   2.432003
    34  H    5.084324   2.162208   1.094737   5.041480   4.846176
    35  H    5.074899   2.173559   1.094600   4.517040   5.130822
    36  H    3.703867   2.178999   1.094404   5.083951   4.677914
    37  C    4.884282   4.775458   6.220617   3.088418   2.487951
    38  C    5.489985   5.643804   6.988057   3.627546   3.857667
    39  C    5.901396   6.761041   8.042887   4.954230   4.854637
    40  H    4.980374   5.444639   6.868281   4.099139   2.776270
    41  H    5.740044   4.938926   6.447819   2.814320   2.670674
    42  H    5.974139   5.605096   6.898499   3.247254   4.305598
    43  H    6.626131   7.501618   8.717936   5.576302   5.838159
    44  H    5.803534   7.126607   8.408707   5.611339   4.933268
                   16         17         18         19         20
    16  Si   0.000000
    17  C    1.882571   0.000000
    18  C    1.892407   3.034080   0.000000
    19  C    1.872505   3.049348   3.030225   0.000000
    20  H    2.495348   3.219813   1.093763   3.205832   0.000000
    21  H    2.492721   3.236456   1.093820   3.987682   1.776651
    22  H    2.492143   3.993296   1.093853   3.247269   1.776660
    23  H    2.475794   3.237108   3.191218   1.094437   2.981179
    24  H    2.482416   4.008533   3.254174   1.093951   3.527035
    25  H    2.489020   3.270495   3.998751   1.093436   4.208289
    26  H    2.495245   1.093184   3.997993   3.239784   4.202197
    27  H    2.485705   1.093926   3.287689   4.003102   3.592550
    28  H    2.485190   1.094119   3.164521   3.272617   2.965814
    29  H    5.409983   5.819815   6.201468   6.816274   7.215562
    30  H    3.886995   4.167119   4.626253   5.503148   5.581158
    31  H    4.745264   4.752991   5.952251   6.050965   6.844333
    32  H    4.513496   5.493265   4.539821   5.992872   5.608947
    33  H    3.520508   4.990076   3.432572   4.681398   4.510360
    34  H    5.857082   7.216832   5.270738   7.010000   6.245522
    35  H    6.497761   7.788418   6.386275   7.602266   7.443317
    36  H    5.831942   7.419532   5.621415   6.603568   6.620647
    37  C    3.282442   3.510944   5.061325   3.836661   5.767860
    38  C    4.769936   4.920189   6.545648   5.092236   7.262508
    39  C    5.537060   5.673868   7.381947   5.433632   8.000608
    40  H    3.008331   3.156805   4.894342   3.126603   5.434617
    41  H    3.336954   3.064062   5.014481   4.275291   5.687712
    42  H    5.436556   5.543946   7.102854   5.995210   7.897549
    43  H    6.606986   6.711012   8.439205   6.496962   9.078688
    44  H    5.322403   5.482826   7.184791   4.886811   7.691025
                   21         22         23         24         25
    21  H    0.000000
    22  H    1.775670   0.000000
    23  H    4.194084   3.504496   0.000000
    24  H    4.264404   3.092373   1.768408   0.000000
    25  H    4.867689   4.269307   1.766789   1.776040   0.000000
    26  H    4.269265   4.869190   3.506199   4.258899   3.083357
    27  H    3.114214   4.285767   4.251161   4.870442   4.264335
    28  H    3.441900   4.180908   3.082208   4.267417   3.599871
    29  H    5.804825   6.392640   7.743226   7.006663   6.857551
    30  H    4.192548   4.999833   6.317120   5.840594   5.673947
    31  H    5.695976   6.364466   6.932014   6.463081   5.895862
    32  H    4.064254   4.439412   6.818036   5.947761   6.439268
    33  H    3.332164   3.041815   5.500113   4.431076   5.258919
    34  H    4.899467   4.701212   7.741630   6.629105   7.659272
    35  H    6.069536   5.911021   8.488918   7.235673   8.039144
    36  H    5.570899   4.917472   7.452537   6.040059   7.120249
    37  C    5.333836   5.460728   4.750031   4.329339   3.350812
    38  C    6.807313   6.877519   6.010839   5.485410   4.419302
    39  C    7.782937   7.681286   6.282561   5.794073   4.562406
    40  H    5.345820   5.336930   3.949187   3.748529   2.452657
    41  H    5.104616   5.587006   5.062675   4.924555   3.911871
    42  H    7.223168   7.424926   6.938035   6.354611   5.413003
    43  H    8.811102   8.715294   7.342839   6.812260   5.607608
    44  H    7.716259   7.480549   5.645850   5.262456   3.906639
                   26         27         28         29         30
    26  H    0.000000
    27  H    1.774117   0.000000
    28  H    1.769799   1.773598   0.000000
    29  H    5.899896   5.321598   6.867127   0.000000
    30  H    4.412162   3.613061   5.174310   1.772555   0.000000
    31  H    4.577832   4.327496   5.829537   1.758936   1.765353
    32  H    6.008311   5.086281   6.354634   2.657944   2.296097
    33  H    5.567944   4.917598   5.743762   3.923785   3.187328
    34  H    7.883316   6.959609   7.897277   4.891771   4.724732
    35  H    8.256450   7.513615   8.631473   4.098070   4.574872
    36  H    7.924454   7.376233   8.165466   5.022504   5.074616
    37  C    2.996023   3.794519   4.516919   4.110320   3.389209
    38  C    4.246639   5.157169   5.896283   4.436015   4.272849
    39  C    4.869570   6.084700   6.532774   5.732702   5.592950
    40  H    2.503772   3.731496   4.012384   5.151416   4.238472
    41  H    2.542630   3.093773   4.109671   3.859992   2.927664
    42  H    4.937486   5.586910   6.574779   3.857536   4.074820
    43  H    5.878984   7.067719   7.574060   6.220896   6.330988
    44  H    4.648901   6.070939   6.217896   6.482638   6.113722
                   31         32         33         34         35
    31  H    0.000000
    32  H    3.748442   0.000000
    33  H    4.535418   1.770010   0.000000
    34  H    6.131726   2.444826   2.448001   0.000000
    35  H    5.579548   2.503650   3.045571   1.771247   0.000000
    36  H    6.140336   3.060644   2.468135   1.769174   1.775679
    37  C    2.814478   4.916275   4.623745   6.898128   6.665479
    38  C    3.113797   5.813060   5.700310   7.800675   7.254757
    39  C    4.438470   7.038608   6.746555   8.890090   8.333137
    40  H    3.849454   5.659293   5.096335   7.486504   7.429290
    41  H    2.330677   4.837463   4.822753   7.022893   6.860484
    42  H    2.608993   5.664972   5.861677   7.744291   7.006450
    43  H    4.991501   7.771485   7.593854   9.620541   8.902959
    44  H    5.176481   7.477507   6.951526   9.210238   8.816698
                   36         37         38         39         40
    36  H    0.000000
    37  C    6.455709   0.000000
    38  C    7.176979   1.507348   0.000000
    39  C    8.102619   2.515712   1.339281   0.000000
    40  H    7.009170   1.097199   2.124094   2.611216   0.000000
    41  H    6.847373   1.097367   2.118517   3.217024   1.737553
    42  H    7.182119   2.228170   1.088233   2.090203   3.083237
    43  H    8.767480   3.502305   2.112326   1.086387   3.690806
    44  H    8.386701   2.779268   2.124857   1.085963   2.426927
                   41         42         43         44
    41  H    0.000000
    42  H    2.514367   0.000000
    43  H    4.111863   2.414286   0.000000
    44  H    3.555392   3.073931   1.854529   0.000000
 Stoichiometry    C14H26O3Si
 Framework group  C1[X(C14H26O3Si)]
 Deg. of freedom   126
 Full point group                 C1      NOp   1
 Largest Abelian subgroup         C1      NOp   1
 Largest concise Abelian subgroup C1      NOp   1
                         Standard orientation:                         
 ---------------------------------------------------------------------
 Center     Atomic      Atomic             Coordinates (Angstroms)
 Number     Number       Type             X           Y           Z
 ---------------------------------------------------------------------
      1          6           0        2.295786    0.512641   -0.481900
      2          6           0        1.001176    1.215858   -0.949936
      3          6           0       -0.238833    0.763165   -0.117997
      4          6           0        0.116528    0.985615    1.356248
      5          6           0        1.416483    0.358842    1.767890
      6          1           0        3.128541    1.094181   -0.899933
      7          1           0        1.164566    2.282717   -0.741036
      8          1           0        0.208039    2.052867    1.590771
      9          1           0       -0.661446    0.585941    2.011128
     10          8           0        2.465915    0.592416    0.948455
     11          8           0        1.561964   -0.182993    2.858916
     12          6           0        2.506561   -0.948882   -0.919187
     13          6           0        3.916271   -1.440240   -0.600841
     14          6           0        0.808475    1.084733   -2.466409
     15          8           0       -0.412027   -0.635143   -0.412834
     16         14           0       -1.689846   -1.653322   -0.053347
     17          6           0       -3.093134   -1.437949   -1.289661
     18          6           0       -1.087419   -3.440675   -0.207148
     19          6           0       -2.380257   -1.448762    1.675168
     20          1           0       -1.903948   -4.138942   -0.002158
     21          1           0       -0.712256   -3.629026   -1.217207
     22          1           0       -0.278882   -3.630307    0.504766
     23          1           0       -3.169502   -2.184274    1.859313
     24          1           0       -1.599947   -1.599764    2.426862
     25          1           0       -2.812542   -0.454442    1.816803
     26          1           0       -3.579698   -0.466412   -1.169569
     27          1           0       -2.714704   -1.510826   -2.313456
     28          1           0       -3.849650   -2.215353   -1.146755
     29          1           0        1.736915    1.324007   -2.996259
     30          1           0        0.500331    0.076427   -2.758864
     31          1           0        0.046574    1.780999   -2.829641
     32          1           0        2.341750   -1.062569   -1.994711
     33          1           0        1.813501   -1.615682   -0.398480
     34          1           0        4.040855   -2.472185   -0.944378
     35          1           0        4.668752   -0.823523   -1.102420
     36          1           0        4.113351   -1.419207    0.475467
     37          6           0       -1.512777    1.594577   -0.494056
     38          6           0       -1.396745    3.094715   -0.403385
     39          6           0       -2.046317    3.844869    0.496057
     40          1           0       -2.348461    1.275565    0.141325
     41          1           0       -1.827450    1.343381   -1.514887
     42          1           0       -0.769892    3.593499   -1.139945
     43          1           0       -1.937228    4.925757    0.500541
     44          1           0       -2.701327    3.408411    1.244243
 ---------------------------------------------------------------------
 Rotational constants (GHZ):      0.3974493      0.3409227      0.2687614
 Standard basis: 6-31G(d,p) (6D, 7F)
 There are   404 symmetry adapted cartesian basis functions of A   symmetry.
 There are   404 symmetry adapted basis functions of A   symmetry.
   404 basis functions,   710 primitive gaussians,   404 cartesian basis functions
    74 alpha electrons       74 beta electrons
       nuclear repulsion energy      1653.8153471272 Hartrees.
 NAtoms=   44 NActive=   44 NUniq=   44 SFac= 1.00D+00 NAtFMM=   60 NAOKFM=F Big=F
 Integral buffers will be    131072 words long.
 Raffenetti 2 integral format.
 Two-electron integral symmetry is turned on.
 ------------------------------------------------------------------------------
 Polarizable Continuum Model (PCM)
 =================================
 Model                : PCM (using non-symmetric T matrix).
 Atomic radii         : UFF (Universal Force Field).
 Polarization charges : Total charges.
 Charge compensation  : None.
 Solution method      : On-the-fly selection.
 Cavity type          : Scaled VdW (van der Waals Surface) (Alpha=1.100).
 Cavity algorithm     : GePol (No added spheres)
                        Default sphere list used, NSphG=   44.
                        Lebedev-Laikov grids with approx.  5.0 points / Ang**2.
                        Smoothing algorithm: Karplus/York (Gamma=1.0000).
                        Polarization charges: spherical gaussians, with
                                              point-specific exponents (IZeta= 3).
                        Self-potential: point-specific (ISelfS= 7).
                        Self-field    : sphere-specific E.n sum rule (ISelfD= 2).
 1st derivatives      : Analytical E(r).r(x)/FMM algorithm (CHGder, D1EAlg=3).
                        Cavity 1st derivative terms included.
 Solvent              : Chloroform, Eps=   4.711300 Eps(inf)=   2.090627
 ------------------------------------------------------------------------------
 One-electron integrals computed using PRISM.
 NBasis=   404 RedAO= T EigKep=  2.22D-03  NBF=   404
 NBsUse=   404 1.00D-06 EigRej= -1.00D+00 NBFU=   404
 ExpMin= 7.78D-02 ExpMax= 1.61D+04 ExpMxC= 2.43D+03 IAcc=2 IRadAn=         4 AccDes= 0.00D+00
 Harris functional with IExCor=  402 and IRadAn=       4 diagonalized for initial guess.
 HarFok:  IExCor=  402 AccDes= 0.00D+00 IRadAn=         4 IDoV= 1 UseB2=F ITyADJ=14
 ICtDFT=  3500011 ScaDFX=  1.000000  1.000000  1.000000  1.000000
 FoFCou: FMM=F IPFlag=           0 FMFlag=      100000 FMFlg1=           0
         NFxFlg=           0 DoJE=T BraDBF=F KetDBF=T FulRan=T
         wScrn=  0.000000 ICntrl=     500 IOpCl=  0 I1Cent=   200000004 NGrid=           0
         NMat0=    1 NMatS0=      1 NMatT0=    0 NMatD0=    1 NMtDS0=    0 NMtDT0=    0
 Petite list used in FoFCou.
 Requested convergence on RMS density matrix=1.00D-08 within 128 cycles.
 Requested convergence on MAX density matrix=1.00D-06.
 Requested convergence on             energy=1.00D-06.
 No special actions if energy rises.
 Inv3:  Mode=1 IEnd=    24952368.
 Iteration    1 A*A^-1 deviation from unit magnitude is 3.11D-15 for   2854.
 Iteration    1 A*A^-1 deviation from orthogonality  is 2.42D-15 for   2849   1336.
 Iteration    1 A^-1*A deviation from unit magnitude is 3.22D-15 for   2870.
 Iteration    1 A^-1*A deviation from orthogonality  is 5.46D-13 for   2373   2368.
 Error on total polarization charges =  0.00918
 SCF Done:  E(RB3LYP) =  -1064.41589523     A.U. after   13 cycles
            NFock= 13  Conv=0.44D-08     -V/T= 2.0080

 **********************************************************************

            Population analysis using the SCF density.

 **********************************************************************

 Orbital symmetries:
       Occupied  (A) (A) (A) (A) (A) (A) (A) (A) (A) (A) (A) (A)
                 (A) (A) (A) (A) (A) (A) (A) (A) (A) (A) (A) (A)
                 (A) (A) (A) (A) (A) (A) (A) (A) (A) (A) (A) (A)
                 (A) (A) (A) (A) (A) (A) (A) (A) (A) (A) (A) (A)
                 (A) (A) (A) (A) (A) (A) (A) (A) (A) (A) (A) (A)
                 (A) (A) (A) (A) (A) (A) (A) (A) (A) (A) (A) (A)
                 (A) (A)
       Virtual   (A) (A) (A) (A) (A) (A) (A) (A) (A) (A) (A) (A)
                 (A) (A) (A) (A) (A) (A) (A) (A) (A) (A) (A) (A)
                 (A) (A) (A) (A) (A) (A) (A) (A) (A) (A) (A) (A)
                 (A) (A) (A) (A) (A) (A) (A) (A) (A) (A) (A) (A)
                 (A) (A) (A) (A) (A) (A) (A) (A) (A) (A) (A) (A)
                 (A) (A) (A) (A) (A) (A) (A) (A) (A) (A) (A) (A)
                 (A) (A) (A) (A) (A) (A) (A) (A) (A) (A) (A) (A)
                 (A) (A) (A) (A) (A) (A) (A) (A) (A) (A) (A) (A)
                 (A) (A) (A) (A) (A) (A) (A) (A) (A) (A) (A) (A)
                 (A) (A) (A) (A) (A) (A) (A) (A) (A) (A) (A) (A)
                 (A) (A) (A) (A) (A) (A) (A) (A) (A) (A) (A) (A)
                 (A) (A) (A) (A) (A) (A) (A) (A) (A) (A) (A) (A)
                 (A) (A) (A) (A) (A) (A) (A) (A) (A) (A) (A) (A)
                 (A) (A) (A) (A) (A) (A) (A) (A) (A) (A) (A) (A)
                 (A) (A) (A) (A) (A) (A) (A) (A) (A) (A) (A) (A)
                 (A) (A) (A) (A) (A) (A) (A) (A) (A) (A) (A) (A)
                 (A) (A) (A) (A) (A) (A) (A) (A) (A) (A) (A) (A)
                 (A) (A) (A) (A) (A) (A) (A) (A) (A) (A) (A) (A)
                 (A) (A) (A) (A) (A) (A) (A) (A) (A) (A) (A) (A)
                 (A) (A) (A) (A) (A) (A) (A) (A) (A) (A) (A) (A)
                 (A) (A) (A) (A) (A) (A) (A) (A) (A) (A) (A) (A)
                 (A) (A) (A) (A) (A) (A) (A) (A) (A) (A) (A) (A)
                 (A) (A) (A) (A) (A) (A) (A) (A) (A) (A) (A) (A)
                 (A) (A) (A) (A) (A) (A) (A) (A) (A) (A) (A) (A)
                 (A) (A) (A) (A) (A) (A) (A) (A) (A) (A) (A) (A)
                 (A) (A) (A) (A) (A) (A) (A) (A) (A) (A) (A) (A)
                 (A) (A) (A) (A) (A) (A) (A) (A) (A) (A) (A) (A)
                 (A) (A) (A) (A) (A) (A)
 The electronic state is 1-A.
 Alpha  occ. eigenvalues --  -66.13973 -19.18463 -19.14597 -19.13512 -10.31815
 Alpha  occ. eigenvalues --  -10.26610 -10.24989 -10.19954 -10.19849 -10.19633
 Alpha  occ. eigenvalues --  -10.19567 -10.18695 -10.18034 -10.17839 -10.16837
 Alpha  occ. eigenvalues --  -10.15879 -10.15668 -10.15589  -5.28120  -3.64182
 Alpha  occ. eigenvalues --   -3.63940  -3.63908  -1.09420  -1.01272  -1.00938
 Alpha  occ. eigenvalues --   -0.82698  -0.80037  -0.77664  -0.74949  -0.71157
 Alpha  occ. eigenvalues --   -0.70354  -0.69237  -0.67649  -0.67261  -0.63786
 Alpha  occ. eigenvalues --   -0.61169  -0.59836  -0.56004  -0.53755  -0.51249
 Alpha  occ. eigenvalues --   -0.49361  -0.48191  -0.46882  -0.46457  -0.45624
 Alpha  occ. eigenvalues --   -0.44162  -0.43362  -0.42797  -0.42244  -0.41273
 Alpha  occ. eigenvalues --   -0.40894  -0.40602  -0.40339  -0.39771  -0.39196
 Alpha  occ. eigenvalues --   -0.39131  -0.38506  -0.37953  -0.37698  -0.37024
 Alpha  occ. eigenvalues --   -0.36987  -0.36103  -0.35415  -0.34751  -0.34069
 Alpha  occ. eigenvalues --   -0.33567  -0.32333  -0.31504  -0.29941  -0.28666
 Alpha  occ. eigenvalues --   -0.28167  -0.27524  -0.26862  -0.25438
 Alpha virt. eigenvalues --   -0.00415   0.00931   0.06462   0.07175   0.08685
 Alpha virt. eigenvalues --    0.09553   0.10388   0.10777   0.11646   0.11851
 Alpha virt. eigenvalues --    0.12450   0.12942   0.13829   0.14171   0.14741
 Alpha virt. eigenvalues --    0.15135   0.15539   0.16165   0.16582   0.17065
 Alpha virt. eigenvalues --    0.17176   0.17259   0.17489   0.18428   0.18613
 Alpha virt. eigenvalues --    0.19293   0.19454   0.19893   0.20216   0.21536
 Alpha virt. eigenvalues --    0.21992   0.22844   0.22966   0.23541   0.24183
 Alpha virt. eigenvalues --    0.24581   0.25681   0.26329   0.26959   0.28065
 Alpha virt. eigenvalues --    0.29058   0.29179   0.33488   0.35428   0.36791
 Alpha virt. eigenvalues --    0.37103   0.37760   0.39239   0.40680   0.44037
 Alpha virt. eigenvalues --    0.47360   0.47603   0.48564   0.50047   0.51150
 Alpha virt. eigenvalues --    0.51726   0.53492   0.54145   0.55265   0.55655
 Alpha virt. eigenvalues --    0.56274   0.57109   0.58203   0.60322   0.61441
 Alpha virt. eigenvalues --    0.62216   0.63482   0.64011   0.64792   0.65447
 Alpha virt. eigenvalues --    0.65922   0.66156   0.67032   0.67150   0.68205
 Alpha virt. eigenvalues --    0.69365   0.70167   0.71198   0.73062   0.74573
 Alpha virt. eigenvalues --    0.74670   0.75178   0.75851   0.76241   0.77713
 Alpha virt. eigenvalues --    0.79152   0.79623   0.80780   0.82257   0.83460
 Alpha virt. eigenvalues --    0.83590   0.84607   0.85192   0.85789   0.86568
 Alpha virt. eigenvalues --    0.86895   0.87464   0.87886   0.88261   0.88944
 Alpha virt. eigenvalues --    0.89390   0.89980   0.90640   0.90766   0.91233
 Alpha virt. eigenvalues --    0.91579   0.92152   0.92716   0.93090   0.93599
 Alpha virt. eigenvalues --    0.94182   0.95210   0.96794   0.97414   0.98643
 Alpha virt. eigenvalues --    0.99071   0.99344   1.00251   1.01088   1.02296
 Alpha virt. eigenvalues --    1.02690   1.04040   1.05174   1.06654   1.08015
 Alpha virt. eigenvalues --    1.09935   1.10635   1.13023   1.14376   1.16588
 Alpha virt. eigenvalues --    1.19401   1.20286   1.21660   1.22861   1.26980
 Alpha virt. eigenvalues --    1.28223   1.29847   1.30919   1.31460   1.35386
 Alpha virt. eigenvalues --    1.37094   1.38053   1.39485   1.42191   1.42609
 Alpha virt. eigenvalues --    1.43636   1.43807   1.45767   1.46906   1.47799
 Alpha virt. eigenvalues --    1.49345   1.51283   1.52530   1.56330   1.59207
 Alpha virt. eigenvalues --    1.60042   1.61355   1.61943   1.62785   1.63809
 Alpha virt. eigenvalues --    1.64944   1.66260   1.68715   1.70719   1.71568
 Alpha virt. eigenvalues --    1.72501   1.74242   1.76089   1.79027   1.80473
 Alpha virt. eigenvalues --    1.81167   1.81818   1.82509   1.84010   1.85312
 Alpha virt. eigenvalues --    1.86580   1.87511   1.89121   1.90319   1.92063
 Alpha virt. eigenvalues --    1.93528   1.95035   1.95645   1.96676   1.97634
 Alpha virt. eigenvalues --    1.98256   1.99657   2.00942   2.01886   2.02831
 Alpha virt. eigenvalues --    2.04517   2.04979   2.05201   2.05466   2.06422
 Alpha virt. eigenvalues --    2.07003   2.07352   2.08112   2.08307   2.08966
 Alpha virt. eigenvalues --    2.09742   2.10643   2.10695   2.11177   2.11649
 Alpha virt. eigenvalues --    2.12561   2.12859   2.14052   2.14225   2.14592
 Alpha virt. eigenvalues --    2.15292   2.16163   2.16687   2.17223   2.18065
 Alpha virt. eigenvalues --    2.20362   2.20572   2.23660   2.26071   2.27237
 Alpha virt. eigenvalues --    2.29039   2.29090   2.31587   2.32613   2.33266
 Alpha virt. eigenvalues --    2.33975   2.34233   2.35723   2.36284   2.36772
 Alpha virt. eigenvalues --    2.37035   2.38852   2.39344   2.40248   2.43254
 Alpha virt. eigenvalues --    2.44296   2.45730   2.47584   2.48849   2.51001
 Alpha virt. eigenvalues --    2.51314   2.52840   2.54143   2.55812   2.57626
 Alpha virt. eigenvalues --    2.58816   2.60608   2.61622   2.63281   2.63805
 Alpha virt. eigenvalues --    2.65178   2.65788   2.68397   2.68957   2.70747
 Alpha virt. eigenvalues --    2.72041   2.73315   2.73898   2.74872   2.75770
 Alpha virt. eigenvalues --    2.77181   2.78043   2.80054   2.80860   2.81533
 Alpha virt. eigenvalues --    2.81919   2.82484   2.84551   2.84840   2.85396
 Alpha virt. eigenvalues --    2.85693   2.86396   2.86671   2.87955   2.88586
 Alpha virt. eigenvalues --    2.90700   2.91175   2.92064   2.93798   2.94885
 Alpha virt. eigenvalues --    2.99653   3.00817   3.04283   3.07941   3.11066
 Alpha virt. eigenvalues --    3.15068   3.17202   3.20384   3.20805   3.20965
 Alpha virt. eigenvalues --    3.21702   3.23247   3.25824   3.32583   3.32985
 Alpha virt. eigenvalues --    3.35268   3.36073   3.39687   3.43630   3.43834
 Alpha virt. eigenvalues --    3.44390   3.44585   3.44810   3.45132   3.45652
 Alpha virt. eigenvalues --    3.46262   3.46991   3.49026   3.50357   3.51037
 Alpha virt. eigenvalues --    3.52827   3.58502   3.65789   4.00904   4.09273
 Alpha virt. eigenvalues --    4.23570   4.24580   4.35867   4.37509   4.45682
 Alpha virt. eigenvalues --    4.46036   4.48440   4.52642   4.53475   4.56489
 Alpha virt. eigenvalues --    4.65146   4.66430   4.72929   4.81047   4.83553
          Condensed to atoms (all electrons):
               1          2          3          4          5          6
     1  C    4.781444   0.348837  -0.020488  -0.014326  -0.011110   0.390215
     2  C    0.348837   5.069933   0.344686  -0.050894  -0.023736  -0.041913
     3  C   -0.020488   0.344686   4.816756   0.302971  -0.012334   0.005623
     4  C   -0.014326  -0.050894   0.302971   5.310401   0.311149  -0.000685
     5  C   -0.011110  -0.023736  -0.012334   0.311149   4.347143   0.001824
     6  H    0.390215  -0.041913   0.005623  -0.000685   0.001824   0.635000
     7  H   -0.038594   0.369786  -0.042358  -0.000732   0.000315  -0.010254
     8  H   -0.000416  -0.001714  -0.022366   0.353920  -0.025964  -0.000007
     9  H    0.000163   0.005272  -0.027927   0.355213  -0.027154   0.000018
    10  O    0.188367  -0.030118  -0.000223  -0.099441   0.254302  -0.035551
    11  O    0.001510   0.000234   0.001266  -0.085667   0.572835  -0.000118
    12  C    0.369182  -0.043208  -0.013614   0.001124  -0.001909  -0.058701
    13  C   -0.039987   0.004949   0.000063   0.000031  -0.000467  -0.008493
    14  C   -0.039744   0.349957  -0.035935   0.005150   0.000521  -0.002939
    15  O   -0.002472  -0.057040   0.192035  -0.053518   0.005319  -0.000080
    16  Si  -0.000251  -0.000776  -0.016315  -0.007960   0.003142   0.000003
    17  C    0.000005  -0.000037  -0.001743  -0.000144   0.000005   0.000000
    18  C   -0.000004  -0.000005   0.001041  -0.000095  -0.000060   0.000000
    19  C   -0.000009  -0.000045  -0.000498  -0.000504  -0.000323   0.000000
    20  H    0.000000   0.000000  -0.000011   0.000001   0.000000   0.000000
    21  H    0.000000   0.000006  -0.000031   0.000004  -0.000001   0.000000
    22  H    0.000003  -0.000002  -0.000040  -0.000007   0.000002   0.000000
    23  H    0.000000   0.000001  -0.000002   0.000141  -0.000003   0.000000
    24  H   -0.000001  -0.000008  -0.000355  -0.001874   0.000551   0.000000
    25  H    0.000000  -0.000002   0.000465  -0.001246   0.000026   0.000000
    26  H    0.000000   0.000008  -0.000178  -0.000027   0.000000   0.000000
    27  H    0.000000   0.000013   0.000026   0.000000   0.000000   0.000000
    28  H    0.000000   0.000001   0.000032   0.000002   0.000000   0.000000
    29  H   -0.004119  -0.032169   0.004470  -0.000149   0.000000   0.004621
    30  H   -0.005679  -0.029852  -0.008470   0.000311  -0.000008  -0.000241
    31  H    0.003844  -0.025269  -0.005042  -0.000011  -0.000019  -0.000181
    32  H   -0.028709  -0.005277   0.000349  -0.000063   0.000062   0.000147
    33  H   -0.027490  -0.003619   0.001594  -0.000702   0.003360   0.005588
    34  H    0.004040  -0.000135  -0.000002   0.000002  -0.000008   0.000020
    35  H   -0.005246   0.000031   0.000004  -0.000002   0.000018   0.006684
    36  H   -0.007392   0.000104  -0.000002   0.000081   0.001046  -0.000279
    37  C    0.004748  -0.055583   0.343984  -0.058799   0.003014  -0.000140
    38  C    0.000077  -0.003450  -0.036102  -0.004995   0.000177  -0.000001
    39  C   -0.000010  -0.000267  -0.002618  -0.000390   0.000022   0.000000
    40  H   -0.000105   0.005328  -0.027090  -0.008068   0.000084   0.000002
    41  H   -0.000038  -0.010160  -0.027309   0.005208  -0.000077  -0.000001
    42  H    0.000015   0.001494  -0.003200  -0.000093   0.000013   0.000003
    43  H    0.000000   0.000008  -0.000002  -0.000049   0.000000   0.000000
    44  H    0.000000   0.000022  -0.000073   0.000151   0.000004   0.000000
               7          8          9         10         11         12
     1  C   -0.038594  -0.000416   0.000163   0.188367   0.001510   0.369182
     2  C    0.369786  -0.001714   0.005272  -0.030118   0.000234  -0.043208
     3  C   -0.042358  -0.022366  -0.027927  -0.000223   0.001266  -0.013614
     4  C   -0.000732   0.353920   0.355213  -0.099441  -0.085667   0.001124
     5  C    0.000315  -0.025964  -0.027154   0.254302   0.572835  -0.001909
     6  H   -0.010254  -0.000007   0.000018  -0.035551  -0.000118  -0.058701
     7  H    0.647002   0.001960   0.000060   0.001224   0.000005   0.006007
     8  H    0.001960   0.554808  -0.023066   0.000572  -0.000147   0.000043
     9  H    0.000060  -0.023066   0.581549   0.003765   0.003491   0.000012
    10  O    0.001224   0.000572   0.003765   8.320906  -0.074906  -0.053690
    11  O    0.000005  -0.000147   0.003491  -0.074906   8.081806   0.000242
    12  C    0.006007   0.000043   0.000012  -0.053690   0.000242   4.960580
    13  C   -0.000144  -0.000002  -0.000001  -0.001978  -0.000069   0.351504
    14  C   -0.039774  -0.000003  -0.000128   0.002439   0.000002  -0.003388
    15  O    0.003791   0.003093  -0.002995  -0.000856  -0.000083   0.000681
    16  Si   0.000193   0.000887  -0.001194  -0.000433   0.001415   0.000794
    17  C    0.000000   0.000002  -0.000031   0.000000   0.000000  -0.000006
    18  C    0.000000   0.000000  -0.000015   0.000001  -0.000007  -0.000200
    19  C    0.000001  -0.000032   0.001710   0.000000  -0.000406   0.000010
    20  H    0.000000   0.000000   0.000001   0.000000   0.000000   0.000004
    21  H    0.000000   0.000000   0.000000   0.000000   0.000000   0.000032
    22  H    0.000000   0.000000  -0.000007   0.000000  -0.000002  -0.000067
    23  H    0.000000  -0.000002   0.000034   0.000000   0.000000   0.000000
    24  H    0.000000   0.000026   0.002142   0.000006   0.001122   0.000001
    25  H    0.000000  -0.000030   0.002089   0.000000  -0.000008   0.000000
    26  H    0.000000   0.000001  -0.000007   0.000000   0.000000   0.000000
    27  H    0.000000   0.000000   0.000000   0.000000   0.000000  -0.000001
    28  H    0.000000   0.000000   0.000002   0.000000   0.000000   0.000000
    29  H   -0.002738  -0.000003   0.000003   0.000027   0.000000  -0.001594
    30  H    0.005403  -0.000006   0.000001  -0.000020   0.000000   0.001793
    31  H   -0.006191  -0.000010  -0.000002  -0.000049   0.000000   0.000228
    32  H    0.000003   0.000001  -0.000002   0.003187  -0.000002   0.374744
    33  H   -0.000117   0.000006   0.000020  -0.003159  -0.000251   0.384849
    34  H    0.000003   0.000000   0.000000   0.000100   0.000000  -0.028752
    35  H   -0.000009   0.000000   0.000000  -0.000207  -0.000001  -0.036448
    36  H   -0.000003   0.000000  -0.000001   0.007529   0.000255  -0.033512
    37  C   -0.006948  -0.006635  -0.005165  -0.000128  -0.000084  -0.000031
    38  C    0.005270   0.008167  -0.000055  -0.000017   0.000001  -0.000004
    39  C    0.000289   0.004369   0.000255   0.000001   0.000000   0.000000
    40  H    0.000015  -0.000009   0.002942   0.000001   0.000000  -0.000003
    41  H    0.000383   0.000259  -0.000022   0.000003   0.000000   0.000002
    42  H    0.000987  -0.000044   0.000004  -0.000001   0.000000  -0.000001
    43  H    0.000007   0.000005   0.000004   0.000000   0.000000   0.000000
    44  H    0.000005   0.000084   0.000076   0.000000   0.000000   0.000000
              13         14         15         16         17         18
     1  C   -0.039987  -0.039744  -0.002472  -0.000251   0.000005  -0.000004
     2  C    0.004949   0.349957  -0.057040  -0.000776  -0.000037  -0.000005
     3  C    0.000063  -0.035935   0.192035  -0.016315  -0.001743   0.001041
     4  C    0.000031   0.005150  -0.053518  -0.007960  -0.000144  -0.000095
     5  C   -0.000467   0.000521   0.005319   0.003142   0.000005  -0.000060
     6  H   -0.008493  -0.002939  -0.000080   0.000003   0.000000   0.000000
     7  H   -0.000144  -0.039774   0.003791   0.000193   0.000000   0.000000
     8  H   -0.000002  -0.000003   0.003093   0.000887   0.000002   0.000000
     9  H   -0.000001  -0.000128  -0.002995  -0.001194  -0.000031  -0.000015
    10  O   -0.001978   0.002439  -0.000856  -0.000433   0.000000   0.000001
    11  O   -0.000069   0.000002  -0.000083   0.001415   0.000000  -0.000007
    12  C    0.351504  -0.003388   0.000681   0.000794  -0.000006  -0.000200
    13  C    4.956924  -0.000014   0.000273  -0.000015   0.000000   0.000000
    14  C   -0.000014   4.968652  -0.004860   0.000469  -0.000047  -0.000004
    15  O    0.000273  -0.004860   8.305749   0.323011  -0.017352  -0.018811
    16  Si  -0.000015   0.000469   0.323011  11.849241   0.372579   0.377694
    17  C    0.000000  -0.000047  -0.017352   0.372579   5.139808  -0.033673
    18  C    0.000000  -0.000004  -0.018811   0.377694  -0.033673   5.120075
    19  C    0.000000   0.000001  -0.014356   0.367955  -0.035378  -0.030995
    20  H    0.000000   0.000000   0.000484  -0.014445  -0.000477   0.372719
    21  H   -0.000002  -0.000002  -0.000322  -0.024990  -0.001332   0.376124
    22  H   -0.000001   0.000000  -0.000369  -0.026266   0.001364   0.376811
    23  H    0.000000   0.000000   0.000485  -0.013670  -0.000555  -0.000912
    24  H    0.000000   0.000000  -0.000346  -0.025692   0.001347  -0.001208
    25  H    0.000000   0.000000  -0.000453  -0.029137  -0.001578   0.001514
    26  H    0.000000  -0.000006  -0.000426  -0.026218   0.374860   0.001448
    27  H    0.000000   0.000005  -0.000556  -0.026205   0.378623  -0.001092
    28  H    0.000000   0.000000   0.000582  -0.013790   0.369181  -0.000755
    29  H   -0.000102   0.378774   0.000115  -0.000063   0.000000   0.000000
    30  H   -0.000024   0.386042   0.007570   0.001916  -0.000060  -0.000035
    31  H   -0.000001   0.376205  -0.000032  -0.000095  -0.000002   0.000000
    32  H   -0.039393   0.002390  -0.000408   0.000009   0.000000   0.000005
    33  H   -0.042538  -0.000153   0.002565   0.002010   0.000003   0.000443
    34  H    0.380425   0.000000  -0.000001  -0.000001   0.000000   0.000000
    35  H    0.380963  -0.000011  -0.000005   0.000002   0.000000   0.000000
    36  H    0.387902  -0.000006   0.000001   0.000010   0.000000   0.000000
    37  C    0.000003  -0.007038  -0.035479   0.003772  -0.000641  -0.000048
    38  C    0.000000  -0.001401   0.002576  -0.000584   0.000110   0.000000
    39  C    0.000000   0.000067  -0.000025  -0.000051   0.000002   0.000000
    40  H    0.000000   0.000028  -0.001613   0.007773  -0.002249   0.000010
    41  H    0.000000   0.003421  -0.000535   0.001136  -0.000355  -0.000008
    42  H    0.000000   0.000156  -0.000021   0.000065  -0.000002   0.000000
    43  H    0.000000   0.000000   0.000000   0.000002   0.000000   0.000000
    44  H    0.000000  -0.000002  -0.000004  -0.000091   0.000000   0.000000
              19         20         21         22         23         24
     1  C   -0.000009   0.000000   0.000000   0.000003   0.000000  -0.000001
     2  C   -0.000045   0.000000   0.000006  -0.000002   0.000001  -0.000008
     3  C   -0.000498  -0.000011  -0.000031  -0.000040  -0.000002  -0.000355
     4  C   -0.000504   0.000001   0.000004  -0.000007   0.000141  -0.001874
     5  C   -0.000323   0.000000  -0.000001   0.000002  -0.000003   0.000551
     6  H    0.000000   0.000000   0.000000   0.000000   0.000000   0.000000
     7  H    0.000001   0.000000   0.000000   0.000000   0.000000   0.000000
     8  H   -0.000032   0.000000   0.000000   0.000000  -0.000002   0.000026
     9  H    0.001710   0.000001   0.000000  -0.000007   0.000034   0.002142
    10  O    0.000000   0.000000   0.000000   0.000000   0.000000   0.000006
    11  O   -0.000406   0.000000   0.000000  -0.000002   0.000000   0.001122
    12  C    0.000010   0.000004   0.000032  -0.000067   0.000000   0.000001
    13  C    0.000000   0.000000  -0.000002  -0.000001   0.000000   0.000000
    14  C    0.000001   0.000000  -0.000002   0.000000   0.000000   0.000000
    15  O   -0.014356   0.000484  -0.000322  -0.000369   0.000485  -0.000346
    16  Si   0.367955  -0.014445  -0.024990  -0.026266  -0.013670  -0.025692
    17  C   -0.035378  -0.000477  -0.001332   0.001364  -0.000555   0.001347
    18  C   -0.030995   0.372719   0.376124   0.376811  -0.000912  -0.001208
    19  C    5.152627  -0.000757   0.001390  -0.001212   0.370954   0.376147
    20  H   -0.000757   0.567436  -0.023693  -0.023168   0.000091  -0.000077
    21  H    0.001390  -0.023693   0.577323  -0.021922   0.000013   0.000004
    22  H   -0.001212  -0.023168  -0.021922   0.573348  -0.000034   0.000625
    23  H    0.370954   0.000091   0.000013  -0.000034   0.563799  -0.022291
    24  H    0.376147  -0.000077   0.000004   0.000625  -0.022291   0.564323
    25  H    0.374074   0.000000  -0.000028   0.000002  -0.022607  -0.023698
    26  H   -0.001622   0.000003   0.000008  -0.000027  -0.000022   0.000009
    27  H    0.001329  -0.000022   0.000554   0.000002   0.000017  -0.000024
    28  H   -0.000196   0.000045  -0.000045   0.000017   0.000054   0.000005
    29  H    0.000000   0.000000   0.000000   0.000000   0.000000   0.000000
    30  H    0.000005   0.000000   0.000004  -0.000001   0.000000   0.000000
    31  H    0.000000   0.000000   0.000000   0.000000   0.000000   0.000000
    32  H    0.000000   0.000000   0.000018  -0.000007   0.000000   0.000000
    33  H   -0.000063   0.000005   0.000127   0.000784   0.000001  -0.000012
    34  H    0.000000   0.000000   0.000001   0.000002   0.000000   0.000000
    35  H    0.000000   0.000000   0.000000   0.000000   0.000000   0.000000
    36  H    0.000000   0.000000   0.000000  -0.000001   0.000000   0.000000
    37  C   -0.002475   0.000001  -0.000004   0.000003   0.000034   0.000128
    38  C    0.000007   0.000000   0.000000   0.000000   0.000000   0.000002
    39  C   -0.000003   0.000000   0.000000   0.000000   0.000000   0.000000
    40  H   -0.000618   0.000001   0.000001   0.000000  -0.000009  -0.000069
    41  H    0.000098   0.000000  -0.000001   0.000000  -0.000001   0.000000
    42  H   -0.000001   0.000000   0.000000   0.000000   0.000000   0.000000
    43  H    0.000000   0.000000   0.000000   0.000000   0.000000   0.000000
    44  H   -0.000007   0.000000   0.000000   0.000000   0.000000   0.000000
              25         26         27         28         29         30
     1  C    0.000000   0.000000   0.000000   0.000000  -0.004119  -0.005679
     2  C   -0.000002   0.000008   0.000013   0.000001  -0.032169  -0.029852
     3  C    0.000465  -0.000178   0.000026   0.000032   0.004470  -0.008470
     4  C   -0.001246  -0.000027   0.000000   0.000002  -0.000149   0.000311
     5  C    0.000026   0.000000   0.000000   0.000000   0.000000  -0.000008
     6  H    0.000000   0.000000   0.000000   0.000000   0.004621  -0.000241
     7  H    0.000000   0.000000   0.000000   0.000000  -0.002738   0.005403
     8  H   -0.000030   0.000001   0.000000   0.000000  -0.000003  -0.000006
     9  H    0.002089  -0.000007   0.000000   0.000002   0.000003   0.000001
    10  O    0.000000   0.000000   0.000000   0.000000   0.000027  -0.000020
    11  O   -0.000008   0.000000   0.000000   0.000000   0.000000   0.000000
    12  C    0.000000   0.000000  -0.000001   0.000000  -0.001594   0.001793
    13  C    0.000000   0.000000   0.000000   0.000000  -0.000102  -0.000024
    14  C    0.000000  -0.000006   0.000005   0.000000   0.378774   0.386042
    15  O   -0.000453  -0.000426  -0.000556   0.000582   0.000115   0.007570
    16  Si  -0.029137  -0.026218  -0.026205  -0.013790  -0.000063   0.001916
    17  C   -0.001578   0.374860   0.378623   0.369181   0.000000  -0.000060
    18  C    0.001514   0.001448  -0.001092  -0.000755   0.000000  -0.000035
    19  C    0.374074  -0.001622   0.001329  -0.000196   0.000000   0.000005
    20  H    0.000000   0.000003  -0.000022   0.000045   0.000000   0.000000
    21  H   -0.000028   0.000008   0.000554  -0.000045   0.000000   0.000004
    22  H    0.000002  -0.000027   0.000002   0.000017   0.000000  -0.000001
    23  H   -0.022607  -0.000022   0.000017   0.000054   0.000000   0.000000
    24  H   -0.023698   0.000009  -0.000024   0.000005   0.000000   0.000000
    25  H    0.581785   0.000611   0.000005  -0.000018   0.000000   0.000000
    26  H    0.000611   0.583516  -0.022948  -0.023689   0.000000  -0.000011
    27  H    0.000005  -0.022948   0.576830  -0.023450   0.000000   0.000139
    28  H   -0.000018  -0.023689  -0.023450   0.573283   0.000000   0.000000
    29  H    0.000000   0.000000   0.000000   0.000000   0.604432  -0.031060
    30  H    0.000000  -0.000011   0.000139   0.000000  -0.031060   0.568776
    31  H    0.000000  -0.000007   0.000001   0.000000  -0.030171  -0.029938
    32  H    0.000000   0.000000   0.000000   0.000000   0.000934   0.001260
    33  H    0.000001   0.000000  -0.000004   0.000000   0.000112  -0.000012
    34  H    0.000000   0.000000   0.000000   0.000000   0.000001   0.000005
    35  H    0.000000   0.000000   0.000000   0.000000   0.000030   0.000002
    36  H    0.000000   0.000000   0.000000   0.000000  -0.000002  -0.000001
    37  C   -0.000914   0.000021  -0.000210   0.000044   0.000032  -0.000853
    38  C   -0.000001  -0.000006  -0.000005  -0.000001   0.000016   0.000051
    39  C   -0.000002  -0.000003   0.000000   0.000000   0.000000  -0.000001
    40  H    0.002790   0.001081   0.000042   0.000047  -0.000001  -0.000025
    41  H   -0.000015   0.001005   0.000466   0.000044  -0.000062   0.000760
    42  H    0.000001   0.000001   0.000000   0.000000  -0.000006  -0.000034
    43  H    0.000000   0.000000   0.000000   0.000000   0.000000   0.000000
    44  H    0.000071   0.000000   0.000000   0.000000   0.000000   0.000000
              31         32         33         34         35         36
     1  C    0.003844  -0.028709  -0.027490   0.004040  -0.005246  -0.007392
     2  C   -0.025269  -0.005277  -0.003619  -0.000135   0.000031   0.000104
     3  C   -0.005042   0.000349   0.001594  -0.000002   0.000004  -0.000002
     4  C   -0.000011  -0.000063  -0.000702   0.000002  -0.000002   0.000081
     5  C   -0.000019   0.000062   0.003360  -0.000008   0.000018   0.001046
     6  H   -0.000181   0.000147   0.005588   0.000020   0.006684  -0.000279
     7  H   -0.006191   0.000003  -0.000117   0.000003  -0.000009  -0.000003
     8  H   -0.000010   0.000001   0.000006   0.000000   0.000000   0.000000
     9  H   -0.000002  -0.000002   0.000020   0.000000   0.000000  -0.000001
    10  O   -0.000049   0.003187  -0.003159   0.000100  -0.000207   0.007529
    11  O    0.000000  -0.000002  -0.000251   0.000000  -0.000001   0.000255
    12  C    0.000228   0.374744   0.384849  -0.028752  -0.036448  -0.033512
    13  C   -0.000001  -0.039393  -0.042538   0.380425   0.380963   0.387902
    14  C    0.376205   0.002390  -0.000153   0.000000  -0.000011  -0.000006
[...]
    12  C    0.000006   0.000010   0.000082  -0.000090   0.000000   0.000001
    13  C    0.000000   0.000000  -0.000008   0.000004   0.000000   0.000000
    14  C    0.000001   0.000000  -0.000003   0.000000   0.000000   0.000000
    15  O   -0.016155   0.000643  -0.000594  -0.000532   0.000509  -0.000493
    16  Si   0.365377  -0.014844  -0.023992  -0.024250  -0.014189  -0.024508
    17  C   -0.033060  -0.000231  -0.001285   0.001186  -0.000414   0.001191
    18  C   -0.027466   0.367639   0.377143   0.378174  -0.000625  -0.001128
    19  C    5.149461  -0.000468   0.001201  -0.001316   0.368223   0.377872
    20  H   -0.000468   0.576494  -0.024046  -0.023807   0.000065  -0.000059
    21  H    0.001201  -0.024046   0.572802  -0.022547   0.000008  -0.000002
    22  H   -0.001316  -0.023807  -0.022547   0.567765  -0.000030   0.000502
    23  H    0.368223   0.000065   0.000008  -0.000030   0.570333  -0.022928
    24  H    0.377872  -0.000059  -0.000002   0.000502  -0.022928   0.563352
    25  H    0.375765  -0.000004  -0.000021   0.000006  -0.023548  -0.023960
    26  H   -0.001361   0.000003   0.000005  -0.000021  -0.000031   0.000005
    27  H    0.001194  -0.000036   0.000434   0.000001   0.000008  -0.000020
    28  H   -0.000226   0.000033  -0.000021   0.000010   0.000073   0.000003
    29  H    0.000000   0.000000   0.000000   0.000000   0.000000   0.000000
    30  H    0.000005   0.000000   0.000018  -0.000001   0.000000   0.000000
    31  H    0.000000   0.000000   0.000000   0.000000   0.000000   0.000000
    32  H    0.000000   0.000000   0.000039  -0.000004   0.000000   0.000000
    33  H   -0.000044   0.000013   0.000568   0.000989   0.000001  -0.000011
    34  H    0.000000   0.000000   0.000004   0.000004   0.000000   0.000000
    35  H    0.000000   0.000000   0.000000   0.000000   0.000000   0.000000
    36  H    0.000000   0.000000   0.000000   0.000001   0.000000   0.000000
    37  C   -0.001944   0.000002  -0.000006   0.000003   0.000028   0.000104
    38  C    0.000003   0.000000   0.000000   0.000000   0.000000   0.000001
    39  C   -0.000002   0.000000   0.000000   0.000000   0.000000   0.000000
    40  H   -0.000231   0.000001   0.000001   0.000000  -0.000010  -0.000068
    41  H    0.000062   0.000000  -0.000002   0.000000  -0.000001   0.000001
    42  H    0.000000   0.000000   0.000000   0.000000   0.000000   0.000000
    43  H    0.000000   0.000000   0.000000   0.000000   0.000000   0.000000
    44  H   -0.000004   0.000000   0.000000   0.000000   0.000000   0.000000
              25         26         27         28         29         30
     1  C    0.000000   0.000000   0.000000   0.000000  -0.003654  -0.005931
     2  C   -0.000002   0.000006   0.000009   0.000001  -0.032195  -0.030918
     3  C    0.000304  -0.000107   0.000002   0.000018   0.004421  -0.008434
     4  C   -0.000626  -0.000024  -0.000001   0.000001  -0.000156   0.000328
     5  C    0.000016   0.000000   0.000000   0.000000   0.000002  -0.000008
     6  H    0.000000   0.000000   0.000000   0.000000   0.004199  -0.000202
     7  H    0.000000   0.000000   0.000000   0.000000  -0.002447   0.005476
     8  H   -0.000025   0.000001   0.000000   0.000000  -0.000001  -0.000009
     9  H    0.001474  -0.000007   0.000000   0.000001   0.000002   0.000002
    10  O    0.000000   0.000000   0.000000   0.000000   0.000021  -0.000021
    11  O   -0.000001   0.000000   0.000000   0.000000   0.000000   0.000000
    12  C    0.000000   0.000000   0.000000   0.000000  -0.002437   0.002117
    13  C    0.000000   0.000000   0.000000   0.000000  -0.000104   0.000000
    14  C    0.000000  -0.000004  -0.000002   0.000000   0.379812   0.385353
    15  O   -0.000499  -0.000522  -0.000679   0.000556   0.000071   0.007514
    16  Si  -0.025823  -0.023689  -0.024791  -0.013647  -0.000061   0.002034
    17  C   -0.001248   0.376415   0.378722   0.367623   0.000000  -0.000065
    18  C    0.001238   0.001229  -0.001124  -0.000542   0.000000  -0.000049
    19  C    0.375765  -0.001361   0.001194  -0.000226   0.000000   0.000005
    20  H   -0.000004   0.000003  -0.000036   0.000033   0.000000   0.000000
    21  H   -0.000021   0.000005   0.000434  -0.000021   0.000000   0.000018
    22  H    0.000006  -0.000021   0.000001   0.000010   0.000000  -0.000001
    23  H   -0.023548  -0.000031   0.000008   0.000073   0.000000   0.000000
    24  H   -0.023960   0.000005  -0.000020   0.000003   0.000000   0.000000
    25  H    0.576217   0.000464   0.000002  -0.000031   0.000000   0.000000
    26  H    0.000464   0.575815  -0.023456  -0.024059   0.000000  -0.000011
    27  H    0.000002  -0.023456   0.574288  -0.024211   0.000000   0.000154
    28  H   -0.000031  -0.024059  -0.024211   0.574739   0.000000   0.000000
    29  H    0.000000   0.000000   0.000000   0.000000   0.600126  -0.031018
    30  H    0.000000  -0.000011   0.000154   0.000000  -0.031018   0.569972
    31  H    0.000000  -0.000003   0.000000   0.000000  -0.029773  -0.029547
    32  H    0.000000   0.000000   0.000000   0.000000   0.001369   0.000681
    33  H    0.000001   0.000001  -0.000007   0.000000   0.000180   0.000058
    34  H    0.000000   0.000000   0.000000   0.000000   0.000001   0.000004
    35  H    0.000000   0.000000   0.000000   0.000000   0.000028   0.000002
    36  H    0.000000   0.000000   0.000000   0.000000  -0.000002  -0.000001
    37  C   -0.000655   0.000205  -0.000167   0.000038   0.000066  -0.001236
    38  C    0.000000  -0.000018  -0.000004  -0.000001   0.000014   0.000086
    39  C   -0.000002  -0.000001   0.000000   0.000000   0.000000  -0.000002
    40  H    0.002098   0.000678   0.000040   0.000032  -0.000001  -0.000023
    41  H   -0.000015   0.000746   0.000401   0.000034  -0.000065   0.001017
    42  H    0.000000   0.000001   0.000000   0.000000  -0.000002  -0.000044
    43  H    0.000000   0.000000   0.000000   0.000000   0.000000   0.000000
    44  H    0.000031   0.000000   0.000000   0.000000   0.000000   0.000000
              31         32         33         34         35         36
     1  C    0.003921  -0.030759  -0.030138   0.003843  -0.004422  -0.008022
     2  C   -0.025253  -0.006402  -0.004470  -0.000121   0.000035   0.000078
     3  C   -0.005101   0.000409   0.001860  -0.000002   0.000003   0.000006
     4  C   -0.000033  -0.000064  -0.000530   0.000002  -0.000001   0.000055
     5  C   -0.000016   0.000032   0.001580  -0.000006  -0.000003   0.000750
     6  H   -0.000191  -0.000370   0.005941   0.000000   0.006199  -0.000127
     7  H   -0.006536  -0.000025  -0.000111   0.000002  -0.000008  -0.000005
     8  H   -0.000016   0.000001   0.000004   0.000000   0.000000   0.000000
     9  H   -0.000002  -0.000001   0.000002   0.000000   0.000000  -0.000001
    10  O   -0.000042   0.003410  -0.001692   0.000129  -0.000197   0.008700
    11  O    0.000000   0.000000  -0.000136   0.000000   0.000000   0.000056
    12  C    0.000287   0.370510   0.382643  -0.028058  -0.035434  -0.033524
    13  C   -0.000002  -0.037254  -0.036599   0.380286   0.381963   0.387841
    14  C    0.376386   0.002988  -0.000383   0.000000  -0.000013  -0.000005
    15  O   -0.000001  -0.000226   0.004932  -0.000001  -0.000003   0.000003
    16  Si  -0.000112   0.000013   0.001279  -0.000002   0.000000   0.000017
    17  C   -0.000001   0.000001  -0.000002   0.000000   0.000000   0.000000
    18  C    0.000000   0.000001   0.000782   0.000002   0.000000  -0.000001
    19  C    0.000000   0.000000  -0.000044   0.000000   0.000000   0.000000
    20  H    0.000000   0.000000   0.000013   0.000000   0.000000   0.000000
    21  H    0.000000   0.000039   0.000568   0.000004   0.000000   0.000000
    22  H    0.000000  -0.000004   0.000989   0.000004   0.000000   0.000001
    23  H    0.000000   0.000000   0.000001   0.000000   0.000000   0.000000
    24  H    0.000000   0.000000  -0.000011   0.000000   0.000000   0.000000
    25  H    0.000000   0.000000   0.000001   0.000000   0.000000   0.000000
    26  H   -0.000003   0.000000   0.000001   0.000000   0.000000   0.000000
    27  H    0.000000   0.000000  -0.000007   0.000000   0.000000   0.000000
    28  H    0.000000   0.000000   0.000000   0.000000   0.000000   0.000000
    29  H   -0.029773   0.001369   0.000180   0.000001   0.000028  -0.000002
    30  H   -0.029547   0.000681   0.000058   0.000004   0.000002  -0.000001
    31  H    0.599885   0.000072  -0.000030   0.000000   0.000000   0.000000
    32  H    0.000072   0.627401  -0.030998  -0.003312  -0.004316   0.005144
    33  H   -0.000030  -0.030998   0.573273  -0.002917   0.004772  -0.003882
    34  H    0.000000  -0.003312  -0.002917   0.609582  -0.031868  -0.030261
    35  H    0.000000  -0.004316   0.004772  -0.031868   0.614090  -0.031545
    36  H    0.000000   0.005144  -0.003882  -0.030261  -0.031545   0.582177
    37  C    0.002429   0.000015   0.000004   0.000000   0.000000   0.000000
    38  C   -0.000371  -0.000001  -0.000002   0.000000   0.000000   0.000000
    39  C   -0.000038   0.000000   0.000000   0.000000   0.000000   0.000000
    40  H    0.000043   0.000000   0.000002   0.000000   0.000000   0.000000
    41  H    0.000524  -0.000005  -0.000003   0.000000   0.000000   0.000000
    42  H    0.002790   0.000000   0.000000   0.000000   0.000000   0.000000
    43  H   -0.000001   0.000000   0.000000   0.000000   0.000000   0.000000
    44  H    0.000002   0.000000   0.000000   0.000000   0.000000   0.000000
              37         38         39         40         41         42
     1  C    0.005157   0.000037  -0.000011  -0.000106  -0.000072   0.000026
     2  C   -0.058036  -0.002692  -0.000359   0.005646  -0.011061   0.002030
     3  C    0.351384  -0.038765  -0.002497  -0.027833  -0.029404  -0.003880
     4  C   -0.057302  -0.006025  -0.001057  -0.008993   0.005369  -0.000058
     5  C    0.003003   0.000157   0.000020   0.000097  -0.000082   0.000015
     6  H   -0.000128  -0.000002   0.000000   0.000003  -0.000002   0.000003
     7  H   -0.006779   0.005605   0.000323  -0.000007   0.000443   0.000779
     8  H   -0.007061   0.009031   0.005214   0.000100   0.000301  -0.000063
     9  H   -0.004847   0.000077   0.000204   0.003189  -0.000042   0.000003
    10  O   -0.000083  -0.000009   0.000001   0.000000   0.000003   0.000000
    11  O   -0.000075   0.000001   0.000000  -0.000001   0.000000   0.000000
    12  C   -0.000051  -0.000003   0.000000  -0.000003   0.000002  -0.000001
    13  C    0.000002   0.000000   0.000000   0.000000   0.000000   0.000000
    14  C   -0.007021  -0.001894   0.000107  -0.000008   0.004174  -0.000195
    15  O   -0.039022   0.003005  -0.000029  -0.001768  -0.000998  -0.000024
    16  Si   0.002622  -0.000384  -0.000047   0.007306   0.001697   0.000056
    17  C   -0.000306   0.000065   0.000002  -0.001702  -0.000110  -0.000002
    18  C   -0.000052   0.000000   0.000000   0.000012  -0.000017   0.000000
    19  C   -0.001944   0.000003  -0.000002  -0.000231   0.000062   0.000000
    20  H    0.000002   0.000000   0.000000   0.000001   0.000000   0.000000
    21  H   -0.000006   0.000000   0.000000   0.000001  -0.000002   0.000000
    22  H    0.000003   0.000000   0.000000   0.000000   0.000000   0.000000
    23  H    0.000028   0.000000   0.000000  -0.000010  -0.000001   0.000000
    24  H    0.000104   0.000001   0.000000  -0.000068   0.000001   0.000000
    25  H   -0.000655   0.000000  -0.000002   0.002098  -0.000015   0.000000
    26  H    0.000205  -0.000018  -0.000001   0.000678   0.000746   0.000001
    27  H   -0.000167  -0.000004   0.000000   0.000040   0.000401   0.000000
    28  H    0.000038  -0.000001   0.000000   0.000032   0.000034   0.000000
    29  H    0.000066   0.000014   0.000000  -0.000001  -0.000065  -0.000002
    30  H   -0.001236   0.000086  -0.000002  -0.000023   0.001017  -0.000044
    31  H    0.002429  -0.000371  -0.000038   0.000043   0.000524   0.002790
    32  H    0.000015  -0.000001   0.000000   0.000000  -0.000005   0.000000
    33  H    0.000004  -0.000002   0.000000   0.000002  -0.000003   0.000000
    34  H    0.000000   0.000000   0.000000   0.000000   0.000000   0.000000
    35  H    0.000000   0.000000   0.000000   0.000000   0.000000   0.000000
    36  H    0.000000   0.000000   0.000000   0.000000   0.000000   0.000000
    37  C    5.058495   0.359913  -0.036027   0.371810   0.370566  -0.049580
    38  C    0.359913   4.799187   0.660345  -0.037211  -0.030863   0.382199
    39  C   -0.036027   0.660345   4.919891  -0.007504   0.002063  -0.044307
    40  H    0.371810  -0.037211  -0.007504   0.607375  -0.036701   0.005027
    41  H    0.370566  -0.030863   0.002063  -0.036701   0.599555  -0.004017
    42  H   -0.049580   0.382199  -0.044307   0.005027  -0.004017   0.610372
    43  H    0.004328  -0.024359   0.376370   0.000112  -0.000197  -0.008258
    44  H   -0.011852  -0.035491   0.382784   0.006530   0.000084   0.005766
              43         44
     1  C    0.000000   0.000000
     2  C    0.000009   0.000026
     3  C   -0.000007  -0.000082
     4  C   -0.000045   0.000163
     5  C    0.000000   0.000004
     6  H    0.000000   0.000000
     7  H    0.000007   0.000005
     8  H    0.000007   0.000104
     9  H    0.000003   0.000063
    10  O    0.000000   0.000000
    11  O    0.000000   0.000000
    12  C    0.000000   0.000000
    13  C    0.000000   0.000000
    14  C    0.000000  -0.000003
    15  O    0.000000  -0.000005
    16  Si   0.000001  -0.000068
    17  C    0.000000   0.000000
    18  C    0.000000   0.000000
    19  C    0.000000  -0.000004
    20  H    0.000000   0.000000
    21  H    0.000000   0.000000
    22  H    0.000000   0.000000
    23  H    0.000000   0.000000
    24  H    0.000000   0.000000
    25  H    0.000000   0.000031
    26  H    0.000000   0.000000
    27  H    0.000000   0.000000
    28  H    0.000000   0.000000
    29  H    0.000000   0.000000
    30  H    0.000000   0.000000
    31  H   -0.000001   0.000002
    32  H    0.000000   0.000000
    33  H    0.000000   0.000000
    34  H    0.000000   0.000000
    35  H    0.000000   0.000000
    36  H    0.000000   0.000000
    37  C    0.004328  -0.011852
    38  C   -0.024359  -0.035491
    39  C    0.376370   0.382784
    40  H    0.000112   0.006530
    41  H   -0.000197   0.000084
    42  H   -0.008258   0.005766
    43  H    0.583949  -0.042399
    44  H   -0.042399   0.588396
 Mulliken charges:
               1
     1  C    0.164301
     2  C   -0.092584
     3  C    0.298337
     4  C   -0.272284
     5  C    0.594989
     6  H    0.109377
     7  H    0.106131
     8  H    0.148682
     9  H    0.133267
    10  O   -0.482538
    11  O   -0.505857
    12  C   -0.181849
    13  C   -0.329785
    14  C   -0.342782
    15  O   -0.639049
    16  Si   0.915788
    17  C   -0.546077
    18  C   -0.536779
    19  C   -0.558171
    20  H    0.118603
    21  H    0.120240
    22  H    0.123996
    23  H    0.122438
    24  H    0.129045
    25  H    0.118845
    26  H    0.117741
    27  H    0.119242
    28  H    0.119575
    29  H    0.111603
    30  H    0.132702
    31  H    0.110733
    32  H    0.101650
    33  H    0.133071
    34  H    0.102691
    35  H    0.100718
    36  H    0.122547
    37  C   -0.247945
    38  C   -0.041634
    39  C   -0.255442
    40  H    0.112066
    41  H    0.126613
    42  H    0.101363
    43  H    0.110480
    44  H    0.105944
 Sum of Mulliken charges =   0.00000
 Mulliken charges with hydrogens summed into heavy atoms:
               1
     1  C    0.273678
     2  C    0.013547
     3  C    0.298337
     4  C    0.009665
     5  C    0.594989
    10  O   -0.482538
    11  O   -0.505857
    12  C    0.052872
    13  C   -0.003829
    14  C    0.012255
    15  O   -0.639049
    16  Si   0.915788
    17  C   -0.189519
    18  C   -0.173941
    19  C   -0.187843
    37  C   -0.009266
    38  C    0.059729
    39  C   -0.039017
 Electronic spatial extent (au):  <R**2>=           5099.2309
 Charge=              0.0000 electrons
 Dipole moment (field-independent basis, Debye):
    X=             -3.2551    Y=              1.2141    Z=             -4.6797  Tot=              5.8283
 Quadrupole moment (field-independent basis, Debye-Ang):
   XX=           -119.8015   YY=           -110.0169   ZZ=           -129.7277
   XY=              1.9985   XZ=            -13.0296   YZ=             -1.1803
 Traceless Quadrupole moment (field-independent basis, Debye-Ang):
   XX=              0.0472   YY=              9.8318   ZZ=             -9.8790
   XY=              1.9985   XZ=            -13.0296   YZ=             -1.1803
 Octapole moment (field-independent basis, Debye-Ang**2):
  XXX=             -3.3037  YYY=             12.8413  ZZZ=            -42.1183  XYY=             -2.3158
  XXY=             -5.5158  XXZ=            -14.4448  XZZ=            -19.9747  YZZ=              0.0620
  YYZ=              6.0697  XYZ=             -5.7986
 Hexadecapole moment (field-independent basis, Debye-Ang**3):
 XXXX=          -3028.9694 YYYY=          -2425.1844 ZZZZ=          -1494.1782 XXXY=             40.7814
 XXXZ=            -57.3192 YYYX=             16.3026 YYYZ=              6.7563 ZZZX=            -63.2118
 ZZZY=             -3.6406 XXYY=           -897.0757 XXZZ=           -769.0321 YYZZ=           -634.4532
 XXYZ=              4.3768 YYXZ=            -11.7193 ZZXY=             -2.8477
 N-N= 1.646942103309D+03 E-N=-5.784453253917D+03  KE= 1.055898724634D+03
 1\1\GINC-CPU-E-1146\FOpt\RB3LYP\6-31G(d,p)\C14H26O3Si1\KE291\06-Feb-20
 19\0\\# b3lyp/6-31g(d,p) Opt=(maxcycles=25) scrf=(solvent=chloroform)\
 \P_ng_4ginp009\\0,1\C,0.5940489496,1.9218337586,-0.0625578136\C,-0.612
 208695,1.0026488386,0.2381458475\C,-1.6086925991,1.6394446336,1.238070
 3881\C,-2.0371184265,2.9920336432,0.6511346973\C,-0.9108634083,3.88207
 59135,0.1721783717\H,1.0093278807,1.5942735916,-1.0233974525\H,-1.1602
 864348,0.9238546723,-0.7096838161\H,-2.6801608179,2.8128935141,-0.2197
 411337\H,-2.629478497,3.5671220084,1.3642888142\O,0.2016296413,3.30573
 94265,-0.3264773815\O,-1.0091315377,5.0920884482,0.1340377835\C,1.7422
 208008,1.9566156169,0.9540859999\C,2.9486468015,2.7593688875,0.4560297
 666\C,-0.1491250352,-0.4080872528,0.6270060978\O,-0.9166899502,1.84364
 67757,2.4699814708\Si,-1.3478201045,2.227427206,4.0533032718\C,-1.9994
 832346,0.7095540457,4.9668881223\C,0.2703106346,2.7856397524,4.8331834
 085\C,-2.6177448745,3.6214636371,4.1488521959\H,0.1293627707,3.0199137
 034,5.8943116513\H,1.0354923658,2.0056088484,4.7621395222\H,0.65859906
 38,3.6831309436,4.3406800953\H,-2.7826370818,3.8878779317,5.1997136934
 \H,-2.269416254,4.5218133235,3.6320504397\H,-3.5903960335,3.3428900073
 ,3.7298024196\H,-2.9654985145,0.3682041267,4.5822469319\H,-1.294825812
 3,-0.1261935534,4.8985755448\H,-2.1317570034,0.9445013814,6.0296138003
 \H,0.6395868305,-0.7586617176,-0.046587669\H,0.2377102004,-0.431886538
 1,1.64833946\H,-0.9716086476,-1.125082876,0.5605314553\H,2.0514848895,
 0.9253573359,1.1546729202\H,1.3711399692,2.3633128573,1.8970486221\H,3
 .7510692409,2.7512780108,1.2002124409\H,3.3519380837,2.3387473726,-0.4
 727023844\H,2.6768312381,3.800002823,0.2614724463\C,-2.8604389023,0.74
 82744073,1.4816950145\C,-3.6129535433,0.31573653,0.2516747588\C,-4.841
 3571797,0.725566004,-0.0713264426\H,-3.5402880584,1.3041018813,2.13797
 35516\H,-2.5282703669,-0.134202426,2.0401978434\H,-3.1105372552,-0.394
 8666201,-0.4040069162\H,-5.3430809663,0.3717407961,-0.9670496224\H,-5.
 3925131265,1.4252403301,0.5528427844\\Version=ES64L-G09RevD.01\State=1
 -A\HF=-1064.4231828\RMSD=7.262e-09\RMSF=7.734e-06\Dipole=-0.5736775,-2
 .1274666,0.6346089\Quadrupole=4.9367831,-9.1738484,4.2370653,-2.510979
 1,0.8521888,8.9574264\PG=C01 [X(C14H26O3Si1)]\\@


 E PUR SI MUOVE    -- GALILEO GALILEI
 Job cpu time:       0 days  1 hours 57 minutes 13.4 seconds.
 File lengths (MBytes):  RWF=    372 Int=      0 D2E=      0 Chk=     17 Scr=      1
 Normal termination of Gaussian 09 at Wed Feb  6 11:09:31 2019.
