 Entering Gaussian System, Link 0=/usr/local/Cluster-Apps/gaussian/g09/g09
 Initial command:
 /usr/local/Cluster-Apps/gaussian/g09/l1.exe "/home/ke291/rds/hpc-work/06Feb0927IP1/Gau-173013.inp" -scrdir="/home/ke291/rds/hpc-work/06Feb0927IP1/"
 Entering Link 1 = /usr/local/Cluster-Apps/gaussian/g09/l1.exe PID=    173018.
  
 Copyright (c) 1988,1990,1992,1993,1995,1998,2003,2009,2013,
            Gaussian, Inc.  All Rights Reserved.
  
 This is part of the Gaussian(R) 09 program.  It is based on
 the Gaussian(R) 03 system (copyright 2003, Gaussian, Inc.),
 the Gaussian(R) 98 system (copyright 1998, Gaussian, Inc.),
 the Gaussian(R) 94 system (copyright 1995, Gaussian, Inc.),
 the Gaussian 92(TM) system (copyright 1992, Gaussian, Inc.),
 the Gaussian 90(TM) system (copyright 1990, Gaussian, Inc.),
 the Gaussian 88(TM) system (copyright 1988, Gaussian, Inc.),
 the Gaussian 86(TM) system (copyright 1986, Carnegie Mellon
 University), and the Gaussian 82(TM) system (copyright 1983,
 Carnegie Mellon University). Gaussian is a federally registered
 trademark of Gaussian, Inc.
  
 This software contains proprietary and confidential information,
 including trade secrets, belonging to Gaussian, Inc.
  
 This software is provided under written license and may be
 used, copied, transmitted, or stored only in accord with that
 written license.
  
 The following legend is applicable only to US Government
 contracts under FAR:
  
                    RESTRICTED RIGHTS LEGEND
  
 Use, reproduction and disclosure by the US Government is
 subject to restrictions as set forth in subparagraphs (a)
 and (c) of the Commercial Computer Software - Restricted
 Rights clause in FAR 52.227-19.
  
 Gaussian, Inc.
 340 Quinnipiac St., Bldg. 40, Wallingford CT 06492
  
  
 ---------------------------------------------------------------
 Warning -- This program may not be used in any manner that
 competes with the business of Gaussian, Inc. or will provide
 assistance to any competitor of Gaussian, Inc.  The licensee
 of this program is prohibited from giving any competitor of
 Gaussian, Inc. access to this program.  By using this program,
 the user acknowledges that Gaussian, Inc. is engaged in the
 business of creating and licensing software in the field of
 computational chemistry and represents and warrants to the
 licensee that it is not a competitor of Gaussian, Inc. and that
 it will not use this program in any manner prohibited above.
 ---------------------------------------------------------------
  

 Cite this work as:
 Gaussian 09, Revision D.01,
 M. J. Frisch, G. W. Trucks, H. B. Schlegel, G. E. Scuseria, 
 M. A. Robb, J. R. Cheeseman, G. Scalmani, V. Barone, B. Mennucci, 
 G. A. Petersson, H. Nakatsuji, M. Caricato, X. Li, H. P. Hratchian, 
 A. F. Izmaylov, J. Bloino, G. Zheng, J. L. Sonnenberg, M. Hada, 
 M. Ehara, K. Toyota, R. Fukuda, J. Hasegawa, M. Ishida, T. Nakajima, 
 Y. Honda, O. Kitao, H. Nakai, T. Vreven, J. A. Montgomery, Jr., 
 J. E. Peralta, F. Ogliaro, M. Bearpark, J. J. Heyd, E. Brothers, 
 K. N. Kudin, V. N. Staroverov, T. Keith, R. Kobayashi, J. Normand, 
 K. Raghavachari, A. Rendell, J. C. Burant, S. S. Iyengar, J. Tomasi, 
 M. Cossi, N. Rega, J. M. Millam, M. Klene, J. E. Knox, J. B. Cross, 
 V. Bakken, C. Adamo, J. Jaramillo, R. Gomperts, R. E. Stratmann, 
 O. Yazyev, A. J. Austin, R. Cammi, C. Pomelli, J. W. Ochterski, 
 R. L. Martin, K. Morokuma, V. G. Zakrzewski, G. A. Voth, 
 P. Salvador, J. J. Dannenberg, S. Dapprich, A. D. Daniels, 
 O. Farkas, J. B. Foresman, J. V. Ortiz, J. Cioslowski, 
 and D. J. Fox, Gaussian, Inc., Wallingford CT, 2013.
 
 ******************************************
 Gaussian 09:  ES64L-G09RevD.01 24-Apr-2013
                 6-Feb-2019 
 ******************************************
 %nprocshared=2
 Will use up to    2 processors via shared memory.
 %mem=6000MB
 %chk=/home/ke291/rds/hpc-work/06Feb0927IP1/P_ng_correct1ginp003.chk
 ---------------------------------------------------------------
 # b3lyp/6-31g(d,p) Opt=(maxcycles=25) scrf=(solvent=chloroform)
 ---------------------------------------------------------------
 1/6=25,14=-1,18=20,19=15,26=3,38=1/1,3;
 2/9=110,12=2,17=6,18=5,40=1/2;
 3/5=1,6=6,7=101,11=2,16=1,25=1,30=1,70=2201,71=1,72=7,74=-5/1,2,3;
 4//1;
 5/5=2,38=5,53=7/2;
 6/7=2,8=2,9=2,10=2,28=1/1;
 7//1,2,3,16;
 1/6=25,14=-1,18=20,19=15,26=3/3(2);
 2/9=110/2;
 99//99;
 2/9=110/2;
 3/5=1,6=6,7=101,11=2,16=1,25=1,30=1,70=2205,71=1,72=7,74=-5/1,2,3;
 4/5=5,16=3,69=1/1;
 5/5=2,38=5,53=7/2;
 7//1,2,3,16;
 1/6=25,14=-1,18=20,19=15,26=3/3(-5);
 2/9=110/2;
 6/7=2,8=2,9=2,10=2,19=2,28=1/1;
 99/9=1/99;
 --------------------
 P_ng_correct1ginp003
 --------------------
 Symbolic Z-matrix:
 Charge =  0 Multiplicity = 1
 C                     1.05136  -0.23205   0.77054 
 C                    -0.46459  -0.47455   0.74937 
 C                    -1.23272   0.82062   1.16443 
 C                    -0.83902   1.86802   0.11349 
 C                     0.6392    2.07301  -0.02188 
 H                     1.40314  -0.1523    1.80622 
 H                    -0.76054  -0.67879  -0.29181 
 H                    -1.22021   1.5923   -0.87754 
 H                    -1.28029   2.83998   0.36351 
 O                     1.43636   0.99771   0.11447 
 O                     1.10235   3.16544  -0.33665 
 C                     1.84301  -1.36677   0.09452 
 C                     3.35037  -1.14204   0.14436 
 C                    -0.85562  -1.74121   1.52589 
 O                    -2.63068   0.46332   1.07828 
 Si                   -3.97145   1.45501   0.94862 
 C                    -3.9455    2.93707   2.0946 
 C                    -4.19769   2.06813  -0.81605 
 C                    -5.50888   0.44155   1.3857 
 H                    -3.41296   2.77814  -1.09045 
 H                    -4.16795   1.23063  -1.51913 
 H                    -5.16257   2.5727   -0.92364 
 H                    -6.41013   1.05435   1.29291 
 H                    -5.60064  -0.41755   0.71493 
 H                    -5.44093   0.07447   2.41386 
 H                    -3.81997   2.62379   3.13506 
 H                    -3.13494   3.62413   1.83668 
 H                    -4.88677   3.49068   2.0218 
 H                    -0.56715  -2.63693   0.96507 
 H                    -0.35555  -1.79777   2.49609 
 H                    -1.93539  -1.81298   1.68557 
 H                     1.54484  -1.44721  -0.95784 
 H                     1.62713  -2.32626   0.57499 
 H                     3.87188  -1.99337  -0.30475 
 H                     3.64137  -0.24376  -0.40876 
 H                     3.69627  -1.03926   1.17777 
 C                    -0.87593   1.35414   2.59215 
 C                    -1.2486    0.46759   3.74898 
 C                    -0.40569   0.11692   4.72899 
 H                    -1.39339   2.30496   2.75765 
 H                     0.19093   1.60139   2.64822 
 H                    -2.27626   0.11021   3.78683 
 H                    -0.73869  -0.51968   5.54365 
 H                     0.62585   0.45469   4.74934 
 

 GradGradGradGradGradGradGradGradGradGradGradGradGradGradGradGradGradGrad
 Berny optimization.
 Initialization pass.
                           ----------------------------
                           !    Initial Parameters    !
                           ! (Angstroms and Degrees)  !
 --------------------------                            --------------------------
 ! Name  Definition              Value          Derivative Info.                !
 --------------------------------------------------------------------------------
 ! R1    R(1,2)                  1.5354         estimate D2E/DX2                !
 ! R2    R(1,6)                  1.0967         estimate D2E/DX2                !
 ! R3    R(1,10)                 1.446          estimate D2E/DX2                !
 ! R4    R(1,12)                 1.5399         estimate D2E/DX2                !
 ! R5    R(2,3)                  1.562          estimate D2E/DX2                !
 ! R6    R(2,7)                  1.1015         estimate D2E/DX2                !
 ! R7    R(2,14)                 1.5363         estimate D2E/DX2                !
 ! R8    R(3,4)                  1.5351         estimate D2E/DX2                !
 ! R9    R(3,15)                 1.4455         estimate D2E/DX2                !
 ! R10   R(3,37)                 1.5654         estimate D2E/DX2                !
 ! R11   R(4,5)                  1.4985         estimate D2E/DX2                !
 ! R12   R(4,8)                  1.097          estimate D2E/DX2                !
 ! R13   R(4,9)                  1.0963         estimate D2E/DX2                !
 ! R14   R(5,10)                 1.3455         estimate D2E/DX2                !
 ! R15   R(5,11)                 1.2276         estimate D2E/DX2                !
 ! R16   R(12,13)                1.5248         estimate D2E/DX2                !
 ! R17   R(12,32)                1.0967         estimate D2E/DX2                !
 ! R18   R(12,33)                1.0946         estimate D2E/DX2                !
 ! R19   R(13,34)                1.0947         estimate D2E/DX2                !
 ! R20   R(13,35)                1.0943         estimate D2E/DX2                !
 ! R21   R(13,36)                1.0946         estimate D2E/DX2                !
 ! R22   R(14,29)                1.0955         estimate D2E/DX2                !
 ! R23   R(14,30)                1.093          estimate D2E/DX2                !
 ! R24   R(14,31)                1.0939         estimate D2E/DX2                !
 ! R25   R(15,16)                1.6727         estimate D2E/DX2                !
 ! R26   R(16,17)                1.8736         estimate D2E/DX2                !
 ! R27   R(16,18)                1.8818         estimate D2E/DX2                !
 ! R28   R(16,19)                1.8926         estimate D2E/DX2                !
 ! R29   R(17,26)                1.0938         estimate D2E/DX2                !
 ! R30   R(17,27)                1.0934         estimate D2E/DX2                !
 ! R31   R(17,28)                1.0944         estimate D2E/DX2                !
 ! R32   R(18,20)                1.0933         estimate D2E/DX2                !
 ! R33   R(18,21)                1.0939         estimate D2E/DX2                !
 ! R34   R(18,22)                1.0941         estimate D2E/DX2                !
 ! R35   R(19,23)                1.0938         estimate D2E/DX2                !
 ! R36   R(19,24)                1.0938         estimate D2E/DX2                !
 ! R37   R(19,25)                1.0938         estimate D2E/DX2                !
 ! R38   R(37,38)                1.5044         estimate D2E/DX2                !
 ! R39   R(37,40)                1.0951         estimate D2E/DX2                !
 ! R40   R(37,41)                1.0966         estimate D2E/DX2                !
 ! R41   R(38,39)                1.3394         estimate D2E/DX2                !
 ! R42   R(38,42)                1.0887         estimate D2E/DX2                !
 ! R43   R(39,43)                1.0862         estimate D2E/DX2                !
 ! R44   R(39,44)                1.0856         estimate D2E/DX2                !
 ! A1    A(2,1,6)              109.9508         estimate D2E/DX2                !
 ! A2    A(2,1,10)             113.0139         estimate D2E/DX2                !
 ! A3    A(2,1,12)             112.653          estimate D2E/DX2                !
 ! A4    A(6,1,10)             106.3331         estimate D2E/DX2                !
 ! A5    A(6,1,12)             107.6532         estimate D2E/DX2                !
 ! A6    A(10,1,12)            106.895          estimate D2E/DX2                !
 ! A7    A(1,2,3)              110.5431         estimate D2E/DX2                !
 ! A8    A(1,2,7)              107.9139         estimate D2E/DX2                !
 ! A9    A(1,2,14)             111.997          estimate D2E/DX2                !
 ! A10   A(3,2,7)              105.8304         estimate D2E/DX2                !
 ! A11   A(3,2,14)             115.0982         estimate D2E/DX2                !
 ! A12   A(7,2,14)             104.8624         estimate D2E/DX2                !
 ! A13   A(2,3,4)              104.9349         estimate D2E/DX2                !
 ! A14   A(2,3,15)             104.7617         estimate D2E/DX2                !
 ! A15   A(2,3,37)             114.3861         estimate D2E/DX2                !
 ! A16   A(4,3,15)             112.0792         estimate D2E/DX2                !
 ! A17   A(4,3,37)             109.4763         estimate D2E/DX2                !
 ! A18   A(15,3,37)            111.0415         estimate D2E/DX2                !
 ! A19   A(3,4,5)              114.0901         estimate D2E/DX2                !
 ! A20   A(3,4,8)              110.9688         estimate D2E/DX2                !
 ! A21   A(3,4,9)              110.215          estimate D2E/DX2                !
 ! A22   A(5,4,8)              107.1911         estimate D2E/DX2                !
 ! A23   A(5,4,9)              107.2402         estimate D2E/DX2                !
 ! A24   A(8,4,9)              106.7968         estimate D2E/DX2                !
 ! A25   A(4,5,10)             117.7733         estimate D2E/DX2                !
 ! A26   A(4,5,11)             121.136          estimate D2E/DX2                !
 ! A27   A(10,5,11)            120.9077         estimate D2E/DX2                !
 ! A28   A(1,10,5)             124.604          estimate D2E/DX2                !
 ! A29   A(1,12,13)            112.6593         estimate D2E/DX2                !
 ! A30   A(1,12,32)            109.6039         estimate D2E/DX2                !
 ! A31   A(1,12,33)            110.6003         estimate D2E/DX2                !
 ! A32   A(13,12,32)           108.1151         estimate D2E/DX2                !
 ! A33   A(13,12,33)           108.0479         estimate D2E/DX2                !
 ! A34   A(32,12,33)           107.6549         estimate D2E/DX2                !
 ! A35   A(12,13,34)           110.0539         estimate D2E/DX2                !
 ! A36   A(12,13,35)           111.551          estimate D2E/DX2                !
 ! A37   A(12,13,36)           110.9214         estimate D2E/DX2                !
 ! A38   A(34,13,35)           107.7168         estimate D2E/DX2                !
 ! A39   A(34,13,36)           108.0463         estimate D2E/DX2                !
 ! A40   A(35,13,36)           108.4264         estimate D2E/DX2                !
 ! A41   A(2,14,29)            110.3869         estimate D2E/DX2                !
 ! A42   A(2,14,30)            112.0168         estimate D2E/DX2                !
 ! A43   A(2,14,31)            112.2794         estimate D2E/DX2                !
 ! A44   A(29,14,30)           106.9566         estimate D2E/DX2                !
 ! A45   A(29,14,31)           106.3208         estimate D2E/DX2                !
 ! A46   A(30,14,31)           108.5821         estimate D2E/DX2                !
 ! A47   A(3,15,16)            129.293          estimate D2E/DX2                !
 ! A48   A(15,16,17)           114.2333         estimate D2E/DX2                !
 ! A49   A(15,16,18)           111.2369         estimate D2E/DX2                !
 ! A50   A(15,16,19)           108.4073         estimate D2E/DX2                !
 ! A51   A(17,16,18)           108.5123         estimate D2E/DX2                !
 ! A52   A(17,16,19)           107.0724         estimate D2E/DX2                !
 ! A53   A(18,16,19)           107.0603         estimate D2E/DX2                !
 ! A54   A(16,17,26)           110.9063         estimate D2E/DX2                !
 ! A55   A(16,17,27)           111.2867         estimate D2E/DX2                !
 ! A56   A(16,17,28)           110.3366         estimate D2E/DX2                !
 ! A57   A(26,17,27)           108.6182         estimate D2E/DX2                !
 ! A58   A(26,17,28)           107.8694         estimate D2E/DX2                !
 ! A59   A(27,17,28)           107.6992         estimate D2E/DX2                !
 ! A60   A(16,18,20)           111.1416         estimate D2E/DX2                !
 ! A61   A(16,18,21)           110.4874         estimate D2E/DX2                !
 ! A62   A(16,18,22)           110.3944         estimate D2E/DX2                !
 ! A63   A(20,18,21)           108.4446         estimate D2E/DX2                !
 ! A64   A(20,18,22)           107.9877         estimate D2E/DX2                !
 ! A65   A(21,18,22)           108.2912         estimate D2E/DX2                !
 ! A66   A(16,19,23)           110.4719         estimate D2E/DX2                !
 ! A67   A(16,19,24)           110.3103         estimate D2E/DX2                !
 ! A68   A(16,19,25)           110.2619         estimate D2E/DX2                !
 ! A69   A(23,19,24)           108.5958         estimate D2E/DX2                !
 ! A70   A(23,19,25)           108.5992         estimate D2E/DX2                !
 ! A71   A(24,19,25)           108.5458         estimate D2E/DX2                !
 ! A72   A(3,37,38)            116.3627         estimate D2E/DX2                !
 ! A73   A(3,37,40)            109.0296         estimate D2E/DX2                !
 ! A74   A(3,37,41)            110.1964         estimate D2E/DX2                !
 ! A75   A(38,37,40)           106.1656         estimate D2E/DX2                !
 ! A76   A(38,37,41)           109.5469         estimate D2E/DX2                !
 ! A77   A(40,37,41)           104.8459         estimate D2E/DX2                !
 ! A78   A(37,38,39)           124.1287         estimate D2E/DX2                !
 ! A79   A(37,38,42)           117.0026         estimate D2E/DX2                !
 ! A80   A(39,38,42)           118.8603         estimate D2E/DX2                !
 ! A81   A(38,39,43)           120.6171         estimate D2E/DX2                !
 ! A82   A(38,39,44)           122.0218         estimate D2E/DX2                !
 ! A83   A(43,39,44)           117.3603         estimate D2E/DX2                !
 ! D1    D(6,1,2,3)             71.9158         estimate D2E/DX2                !
 ! D2    D(6,1,2,7)           -172.7881         estimate D2E/DX2                !
 ! D3    D(6,1,2,14)           -57.8704         estimate D2E/DX2                !
 ! D4    D(10,1,2,3)           -46.7196         estimate D2E/DX2                !
 ! D5    D(10,1,2,7)            68.5766         estimate D2E/DX2                !
 ! D6    D(10,1,2,14)         -176.5057         estimate D2E/DX2                !
 ! D7    D(12,1,2,3)          -168.0127         estimate D2E/DX2                !
 ! D8    D(12,1,2,7)           -52.7166         estimate D2E/DX2                !
 ! D9    D(12,1,2,14)           62.2012         estimate D2E/DX2                !
 ! D10   D(2,1,10,5)            25.7833         estimate D2E/DX2                !
 ! D11   D(6,1,10,5)           -94.9328         estimate D2E/DX2                !
 ! D12   D(12,1,10,5)          150.2788         estimate D2E/DX2                !
 ! D13   D(2,1,12,13)         -178.6536         estimate D2E/DX2                !
 ! D14   D(2,1,12,32)           60.9251         estimate D2E/DX2                !
 ! D15   D(2,1,12,33)          -57.6174         estimate D2E/DX2                !
 ! D16   D(6,1,12,13)          -57.2661         estimate D2E/DX2                !
 ! D17   D(6,1,12,32)         -177.6873         estimate D2E/DX2                !
 ! D18   D(6,1,12,33)           63.7701         estimate D2E/DX2                !
 ! D19   D(10,1,12,13)          56.6307         estimate D2E/DX2                !
 ! D20   D(10,1,12,32)         -63.7906         estimate D2E/DX2                !
 ! D21   D(10,1,12,33)         177.6669         estimate D2E/DX2                !
 ! D22   D(1,2,3,4)             60.7576         estimate D2E/DX2                !
 ! D23   D(1,2,3,15)           178.9603         estimate D2E/DX2                !
 ! D24   D(1,2,3,37)           -59.2286         estimate D2E/DX2                !
 ! D25   D(7,2,3,4)            -55.8374         estimate D2E/DX2                !
 ! D26   D(7,2,3,15)            62.3652         estimate D2E/DX2                !
 ! D27   D(7,2,3,37)          -175.8236         estimate D2E/DX2                !
 ! D28   D(14,2,3,4)          -171.1285         estimate D2E/DX2                !
 ! D29   D(14,2,3,15)          -52.9259         estimate D2E/DX2                !
 ! D30   D(14,2,3,37)           68.8853         estimate D2E/DX2                !
 ! D31   D(1,2,14,29)          -72.9887         estimate D2E/DX2                !
 ! D32   D(1,2,14,30)           46.0822         estimate D2E/DX2                !
 ! D33   D(1,2,14,31)          168.571          estimate D2E/DX2                !
 ! D34   D(3,2,14,29)          159.6285         estimate D2E/DX2                !
 ! D35   D(3,2,14,30)          -81.3007         estimate D2E/DX2                !
 ! D36   D(3,2,14,31)           41.1882         estimate D2E/DX2                !
 ! D37   D(7,2,14,29)           43.7821         estimate D2E/DX2                !
 ! D38   D(7,2,14,30)          162.8529         estimate D2E/DX2                !
 ! D39   D(7,2,14,31)          -74.6582         estimate D2E/DX2                !
 ! D40   D(2,3,4,5)            -55.3998         estimate D2E/DX2                !
 ! D41   D(2,3,4,8)             65.8031         estimate D2E/DX2                !
 ! D42   D(2,3,4,9)           -176.1038         estimate D2E/DX2                !
 ! D43   D(15,3,4,5)          -168.5269         estimate D2E/DX2                !
 ! D44   D(15,3,4,8)           -47.3241         estimate D2E/DX2                !
 ! D45   D(15,3,4,9)            70.7691         estimate D2E/DX2                !
 ! D46   D(37,3,4,5)            67.8016         estimate D2E/DX2                !
 ! D47   D(37,3,4,8)          -170.9955         estimate D2E/DX2                !
 ! D48   D(37,3,4,9)           -52.9024         estimate D2E/DX2                !
 ! D49   D(2,3,15,16)         -160.1302         estimate D2E/DX2                !
 ! D50   D(4,3,15,16)          -46.8959         estimate D2E/DX2                !
 ! D51   D(37,3,15,16)          75.8936         estimate D2E/DX2                !
 ! D52   D(2,3,37,38)          -64.926          estimate D2E/DX2                !
 ! D53   D(2,3,37,40)          175.0986         estimate D2E/DX2                !
 ! D54   D(2,3,37,41)           60.5375         estimate D2E/DX2                !
 ! D55   D(4,3,37,38)          177.6571         estimate D2E/DX2                !
 ! D56   D(4,3,37,40)           57.6818         estimate D2E/DX2                !
 ! D57   D(4,3,37,41)          -56.8794         estimate D2E/DX2                !
 ! D58   D(15,3,37,38)          53.3772         estimate D2E/DX2                !
 ! D59   D(15,3,37,40)         -66.5981         estimate D2E/DX2                !
 ! D60   D(15,3,37,41)         178.8408         estimate D2E/DX2                !
 ! D61   D(3,4,5,10)            36.0672         estimate D2E/DX2                !
 ! D62   D(3,4,5,11)          -148.8069         estimate D2E/DX2                !
 ! D63   D(8,4,5,10)           -87.208          estimate D2E/DX2                !
 ! D64   D(8,4,5,11)            87.9179         estimate D2E/DX2                !
 ! D65   D(9,4,5,10)           158.4155         estimate D2E/DX2                !
 ! D66   D(9,4,5,11)           -26.4585         estimate D2E/DX2                !
 ! D67   D(4,5,10,1)           -19.9437         estimate D2E/DX2                !
 ! D68   D(11,5,10,1)          164.9187         estimate D2E/DX2                !
 ! D69   D(1,12,13,34)         177.3566         estimate D2E/DX2                !
 ! D70   D(1,12,13,35)         -63.1403         estimate D2E/DX2                !
 ! D71   D(1,12,13,36)          57.8446         estimate D2E/DX2                !
 ! D72   D(32,12,13,34)        -61.3706         estimate D2E/DX2                !
 ! D73   D(32,12,13,35)         58.1325         estimate D2E/DX2                !
 ! D74   D(32,12,13,36)        179.1175         estimate D2E/DX2                !
 ! D75   D(33,12,13,34)         54.8744         estimate D2E/DX2                !
 ! D76   D(33,12,13,35)        174.3775         estimate D2E/DX2                !
 ! D77   D(33,12,13,36)        -64.6376         estimate D2E/DX2                !
 ! D78   D(3,15,16,17)         -44.2728         estimate D2E/DX2                !
 ! D79   D(3,15,16,18)          78.99           estimate D2E/DX2                !
 ! D80   D(3,15,16,19)        -163.5548         estimate D2E/DX2                !
 ! D81   D(15,16,17,26)        -55.5412         estimate D2E/DX2                !
 ! D82   D(15,16,17,27)         65.4972         estimate D2E/DX2                !
 ! D83   D(15,16,17,28)       -175.006          estimate D2E/DX2                !
 ! D84   D(18,16,17,26)        179.7352         estimate D2E/DX2                !
 ! D85   D(18,16,17,27)        -59.2264         estimate D2E/DX2                !
 ! D86   D(18,16,17,28)         60.2704         estimate D2E/DX2                !
 ! D87   D(19,16,17,26)         64.4908         estimate D2E/DX2                !
 ! D88   D(19,16,17,27)       -174.4708         estimate D2E/DX2                !
 ! D89   D(19,16,17,28)        -54.974          estimate D2E/DX2                !
 ! D90   D(15,16,18,20)        -69.7071         estimate D2E/DX2                !
 ! D91   D(15,16,18,21)         50.7312         estimate D2E/DX2                !
 ! D92   D(15,16,18,22)        170.4904         estimate D2E/DX2                !
 ! D93   D(17,16,18,20)         56.7705         estimate D2E/DX2                !
 ! D94   D(17,16,18,21)        177.2088         estimate D2E/DX2                !
 ! D95   D(17,16,18,22)        -63.032          estimate D2E/DX2                !
 ! D96   D(19,16,18,20)        172.0227         estimate D2E/DX2                !
 ! D97   D(19,16,18,21)        -67.5389         estimate D2E/DX2                !
 ! D98   D(19,16,18,22)         52.2202         estimate D2E/DX2                !
 ! D99   D(15,16,19,23)       -178.9108         estimate D2E/DX2                !
 ! D100  D(15,16,19,24)        -58.8362         estimate D2E/DX2                !
 ! D101  D(15,16,19,25)         61.0416         estimate D2E/DX2                !
 ! D102  D(17,16,19,23)         57.3968         estimate D2E/DX2                !
 ! D103  D(17,16,19,24)        177.4714         estimate D2E/DX2                !
 ! D104  D(17,16,19,25)        -62.6508         estimate D2E/DX2                !
 ! D105  D(18,16,19,23)        -58.8143         estimate D2E/DX2                !
 ! D106  D(18,16,19,24)         61.2603         estimate D2E/DX2                !
 ! D107  D(18,16,19,25)       -178.8619         estimate D2E/DX2                !
 ! D108  D(3,37,38,39)         129.567          estimate D2E/DX2                !
 ! D109  D(3,37,38,42)         -51.5025         estimate D2E/DX2                !
 ! D110  D(40,37,38,39)       -108.9299         estimate D2E/DX2                !
 ! D111  D(40,37,38,42)         70.0005         estimate D2E/DX2                !
 ! D112  D(41,37,38,39)          3.7759         estimate D2E/DX2                !
 ! D113  D(41,37,38,42)       -177.2936         estimate D2E/DX2                !
 ! D114  D(37,38,39,43)        179.404          estimate D2E/DX2                !
 ! D115  D(37,38,39,44)         -0.2682         estimate D2E/DX2                !
 ! D116  D(42,38,39,43)          0.492          estimate D2E/DX2                !
 ! D117  D(42,38,39,44)       -179.1801         estimate D2E/DX2                !
 --------------------------------------------------------------------------------
 Trust Radius=3.00D-01 FncErr=1.00D-07 GrdErr=1.00D-06
 Number of steps in this run=     25 maximum allowed number of steps=    264.
 GradGradGradGradGradGradGradGradGradGradGradGradGradGradGradGradGradGrad

                          Input orientation:                          
 ---------------------------------------------------------------------
 Center     Atomic      Atomic             Coordinates (Angstroms)
 Number     Number       Type             X           Y           Z
 ---------------------------------------------------------------------
      1          6           0        1.051355   -0.232045    0.770538
      2          6           0       -0.464592   -0.474553    0.749372
      3          6           0       -1.232715    0.820622    1.164427
      4          6           0       -0.839018    1.868020    0.113485
      5          6           0        0.639203    2.073010   -0.021875
      6          1           0        1.403139   -0.152297    1.806221
      7          1           0       -0.760539   -0.678793   -0.291811
      8          1           0       -1.220212    1.592302   -0.877539
      9          1           0       -1.280294    2.839984    0.363509
     10          8           0        1.436358    0.997714    0.114466
     11          8           0        1.102345    3.165436   -0.336648
     12          6           0        1.843008   -1.366768    0.094520
     13          6           0        3.350367   -1.142037    0.144359
     14          6           0       -0.855620   -1.741206    1.525889
     15          8           0       -2.630684    0.463319    1.078277
     16         14           0       -3.971451    1.455006    0.948618
     17          6           0       -3.945499    2.937067    2.094597
     18          6           0       -4.197690    2.068130   -0.816054
     19          6           0       -5.508884    0.441548    1.385698
     20          1           0       -3.412955    2.778144   -1.090455
     21          1           0       -4.167948    1.230627   -1.519130
     22          1           0       -5.162566    2.572701   -0.923638
     23          1           0       -6.410134    1.054346    1.292906
     24          1           0       -5.600637   -0.417546    0.714926
     25          1           0       -5.440926    0.074471    2.413858
     26          1           0       -3.819968    2.623794    3.135061
     27          1           0       -3.134939    3.624130    1.836679
     28          1           0       -4.886768    3.490678    2.021799
     29          1           0       -0.567151   -2.636934    0.965066
     30          1           0       -0.355547   -1.797765    2.496087
     31          1           0       -1.935388   -1.812982    1.685572
     32          1           0        1.544838   -1.447209   -0.957837
     33          1           0        1.627131   -2.326255    0.574990
     34          1           0        3.871884   -1.993373   -0.304749
     35          1           0        3.641366   -0.243762   -0.408762
     36          1           0        3.696273   -1.039259    1.177767
     37          6           0       -0.875925    1.354135    2.592154
     38          6           0       -1.248599    0.467590    3.748978
     39          6           0       -0.405691    0.116924    4.728989
     40          1           0       -1.393386    2.304963    2.757645
     41          1           0        0.190927    1.601390    2.648223
     42          1           0       -2.276261    0.110207    3.786826
     43          1           0       -0.738686   -0.519682    5.543654
     44          1           0        0.625847    0.454693    4.749340
 ---------------------------------------------------------------------
                    Distance matrix (angstroms):
                    1          2          3          4          5
     1  C    0.000000
     2  C    1.535368   0.000000
     3  C    2.545630   1.561974   0.000000
     4  C    2.900948   2.456053   1.535096   0.000000
     5  C    2.472057   2.881538   2.545558   1.498493   0.000000
     6  H    1.096700   2.170069   2.882047   3.460391   2.979517
     7  H    2.147354   1.101527   2.142854   2.580054   3.099123
     8  H    3.347300   2.736730   2.182950   1.097022   2.102538
     9  H    3.878095   3.435173   2.172914   1.096335   2.102674
    10  O    1.446017   2.486823   2.873627   2.436138   1.345476
    11  O    3.573701   4.109045   3.633715   2.377982   1.227590
    12  C    1.539906   2.559277   3.922939   4.202080   3.646199
    13  C    2.550616   3.919884   5.088930   5.158715   4.208868
    14  C    2.546503   1.536324   2.614540   3.875780   4.379305
    15  O    3.759740   2.383220   1.445477   2.472666   3.807046
    16  Si   5.301550   4.007612   2.819520   3.268052   4.752043
    17  C    6.063411   5.056233   3.564232   3.836390   5.123040
    18  C    5.946474   4.780357   3.777520   3.490668   4.901661
    19  C    6.623359   5.166143   4.298637   5.045889   6.514745
    20  H    5.696894   4.760026   3.697274   2.983781   4.249595
    21  H    5.884141   4.665682   3.998146   3.762111   5.104908
    22  H    7.024930   5.844286   4.782627   4.501696   5.892656
    23  H    7.589564   6.162989   5.184284   5.752428   7.242892
    24  H    6.654810   5.136477   4.562220   5.315878   6.758798
    25  H    6.704041   5.275968   4.452736   5.448494   6.847987
    26  H    6.121811   5.152651   3.718697   4.311285   5.491249
    27  H    5.790665   5.011207   3.453988   3.365200   4.483787
    28  H    7.119384   6.074353   4.606125   4.760143   6.059929
    29  H    2.905322   2.175531   3.526672   4.592789   4.961140
    30  H    2.721832   2.194036   3.065729   4.398695   4.723617
    31  H    3.501040   2.197977   2.775106   4.150092   4.964356
    32  H    2.169661   2.810415   4.166757   4.221521   3.753417
    33  H    2.180705   2.799020   4.292900   4.887415   4.548162
    34  H    3.494839   4.714129   6.011154   6.105561   5.202472
    35  H    2.845882   4.272403   5.231109   4.980583   3.811836
    36  H    2.795178   4.220807   5.268231   5.491250   4.524493
    37  C    3.090091   2.628524   1.565356   2.531648   3.105727
    38  C    3.827582   3.240361   2.608599   3.917368   4.512261
    39  C    4.232505   4.023763   3.726293   4.955501   5.242975
    40  H    4.044968   3.552679   2.183444   2.736754   3.451225
    41  H    2.761797   2.888751   2.199547   2.748959   2.748236
    42  H    4.504238   3.584720   2.910439   4.318450   5.182541
    43  H    5.105842   4.802323   4.606312   5.932784   6.292515
    44  H    4.059992   4.248800   4.054597   5.063050   5.038216
                    6          7          8          9         10
     6  H    0.000000
     7  H    3.059483   0.000000
     8  H    4.138619   2.390031   0.000000
     9  H    4.270360   3.616819   1.760829   0.000000
    10  O    2.045889   2.793223   2.897408   3.291835   0.000000
    11  O    3.961025   4.272054   2.856849   2.504617   2.239216
    12  C    2.144375   2.720481   4.368559   5.246345   2.399278
    13  C    2.744643   4.159854   5.423198   6.111263   2.871038
    14  C    2.775826   2.107557   4.125733   4.745395   3.840177
    15  O    4.144950   2.584377   2.662565   2.825417   4.213709
    16  Si   5.674956   4.049903   3.304999   3.082668   5.490840
    17  C    6.183467   5.377114   4.250785   3.179530   6.053626
    18  C    6.570838   4.431075   3.015886   3.240112   5.809833
    19  C    6.950220   5.159068   4.983892   4.967730   7.082495
    20  H    6.338216   4.429848   2.501935   2.581875   5.304489
    21  H    6.633811   4.094219   3.038354   3.804327   5.842185
    22  H    7.614869   5.509016   4.062692   4.098808   6.863238
    23  H    7.922545   6.118253   5.651152   5.510675   7.934694
    24  H    7.093247   4.950588   5.075781   5.422210   7.202972
    25  H    6.874727   5.458395   5.563410   5.400264   7.310035
    26  H    6.062454   5.657794   4.891182   3.765393   6.276710
    27  H    5.903938   5.355688   3.893775   2.494959   5.546245
    28  H    7.271910   6.305795   5.045159   4.022435   7.059370
    29  H    3.280702   2.334835   4.659197   5.555814   4.236536
    30  H    2.505286   3.031253   4.860201   5.187655   4.086287
    31  H    3.730710   2.564507   4.321686   4.881300   4.662302
    32  H    3.055633   2.519686   4.109815   5.301637   2.671938
    33  H    2.508425   3.027613   5.056905   5.931936   3.361138
    34  H    3.733692   4.815354   6.254166   7.095974   3.879965
    35  H    3.150266   4.424895   5.217837   5.859064   2.584007
    36  H    2.537739   4.706673   5.943166   6.362214   3.222900
    37  C    2.842738   3.530349   3.494857   2.708896   3.407730
    38  C    3.345187   4.228519   4.761349   4.134085   4.549693
    39  C    3.447741   5.095833   5.854344   5.218946   5.046064
    40  H    3.842380   4.313059   3.708428   2.455794   4.086899
    41  H    2.292126   3.840354   3.797683   2.986390   2.887118
    42  H    4.186847   4.422128   5.006810   4.490293   5.296927
    43  H    4.323285   5.837675   6.776730   6.197951   6.042300
    44  H    3.103960   5.349772   6.030245   5.344015   4.736439
                   11         12         13         14         15
    11  O    0.000000
    12  C    4.612522   0.000000
    13  C    4.882550   1.524834   0.000000
    14  C    5.601590   3.077599   4.467433   0.000000
    15  O    4.820680   4.932638   6.262774   2.865509   0.000000
    16  Si   5.506440   6.519189   7.810281   4.500824   1.672696
    17  C    5.607480   7.485327   8.583250   5.635337   2.980113
    18  C    5.433625   7.008402   8.258373   5.582577   2.935884
    19  C    7.354889   7.680330   9.084877   5.141686   2.894653
    20  H    4.594143   6.797765   7.914235   5.814615   3.267072
    21  H    5.737398   6.744028   8.057406   5.392166   3.114236
    22  H    6.320206   8.101489   9.349327   6.569609   3.855850
    23  H    7.971793   8.684024  10.070285   6.222702   3.831399
    24  H    7.672909   7.529527   8.998384   4.992487   3.119065
    25  H    7.741689   7.778958   9.160641   5.011008   3.135672
    26  H    6.047752   7.565631   8.633625   5.516341   3.211294
    27  H    4.784175   7.261139   8.224323   5.837698   3.289403
    28  H    6.444962   8.520509   9.635207   6.623344   3.891664
    29  H    6.176502   2.860077   4.272613   1.095475   3.725930
    30  H    5.897728   3.284346   4.437838   1.092957   3.506984
    31  H    6.172669   4.123934   5.546595   1.093869   2.456377
    32  H    4.675272   1.096737   2.137265   3.466631   5.023033
    33  H    5.591525   1.094564   2.134797   2.722231   5.115077
    34  H    5.855312   2.160645   1.094738   5.075837   7.087418
    35  H    4.251407   2.179111   1.094313   5.119384   6.484586
    36  H    5.167337   2.171469   1.094599   4.618836   6.503693
    37  C    3.971429   4.586293   5.484899   3.273907   2.482852
    38  C    5.431174   5.126204   6.060913   3.158376   3.007128
    39  C    6.101498   5.360624   6.059025   3.730272   4.289322
    40  H    4.067399   5.572081   6.419834   4.263555   2.782595
    41  H    3.490899   4.249792   4.876247   3.678022   3.423657
    42  H    6.144301   5.725640   6.818697   3.249275   2.754368
    43  H    7.179655   6.088987   6.801475   4.200980   4.948286
    44  H    5.782945   5.144565   5.583763   4.172212   4.907318
                   16         17         18         19         20
    16  Si   0.000000
    17  C    1.873618   0.000000
    18  C    1.881800   3.048039   0.000000
    19  C    1.892574   3.028915   3.035245   0.000000
    20  H    2.494079   3.233174   1.093263   3.997991   0.000000
    21  H    2.485707   4.002555   1.093897   3.295266   1.774425
    22  H    2.484621   3.274715   1.094144   3.161453   1.769512
    23  H    2.495243   3.203400   3.220307   1.093793   4.199401
    24  H    2.493052   3.987029   3.238942   1.093799   4.272913
    25  H    2.492421   3.245410   3.994076   1.093836   4.868544
    26  H    2.483857   1.093830   4.007836   3.267247   4.247878
    27  H    2.488675   1.093428   3.253854   3.995976   3.059591
    28  H    2.476587   1.094428   3.248366   3.176294   3.516526
    29  H    5.322922   6.615026   6.204098   5.837355   6.453436
    30  H    5.103914   5.955467   6.377890   5.727510   6.568864
    31  H    3.920255   5.174052   5.141904   4.235883   5.564887
    32  H    6.518195   7.660485   6.734563   7.669065   6.515436
    33  H    6.766214   7.814472   7.427931   7.696797   7.364174
    34  H    8.659108   9.548695   9.048495   9.837950   8.743774
    35  H    7.917277   8.599128   8.183003   9.349696   7.704548
    36  H    8.066465   8.663049   8.714691   9.325821   8.382036
    37  C    3.506233   3.489344   4.812462   4.873670   4.693179
    38  C    4.028763   4.013547   5.665544   4.871940   5.783010
    39  C    5.366220   5.236742   6.995281   6.109464   7.070478
    40  H    3.262120   2.711544   4.548795   4.721428   4.371548
    41  H    4.498386   4.381844   5.610617   5.952063   5.324512
    42  H    3.568974   3.693390   5.358345   4.040427   5.674313
    43  H    5.955209   5.841982   7.688131   6.400574   7.876470
    44  H    6.048245   5.840124   7.539449   6.996369   7.470847
                   21         22         23         24         25
    21  H    0.000000
    22  H    1.773426   0.000000
    23  H    3.600836   2.962245   0.000000
    24  H    3.124112   3.437786   1.776461   0.000000
    25  H    4.292501   4.178219   1.776528   1.775939   0.000000
    26  H    4.870677   4.275303   3.544808   4.275229   3.105912
    27  H    4.249402   3.582754   4.198378   4.865505   4.272094
    28  H    4.261773   3.097474   2.964396   4.182313   3.482998
    29  H    5.839092   7.198982   6.919066   5.506744   5.762326
    30  H    6.310905   7.341861   6.800015   5.708635   5.419696
    31  H    4.951565   6.037952   5.329081   4.040228   4.047428
    32  H    6.334176   7.819854   8.637430   7.410543   7.904729
    33  H    7.114751   8.505624   8.748800   7.476856   7.687805
    34  H    8.746873  10.141664  10.842554   9.656688   9.919437
    35  H    8.024470   9.257796  10.276839   9.311686   9.516117
    36  H    8.618098   9.794957  10.321623   9.329163   9.287450
    37  C    5.268332   5.676353   5.692573   5.383841   4.744319
    38  C    6.071061   6.448563   5.746131   5.378585   4.417317
    39  C    7.377934   7.785300   6.981315   6.586792   5.542132
    40  H    5.209913   5.275438   5.373757   5.411628   4.634206
    41  H    6.041861   6.508573   6.760928   6.430859   5.839878
    42  H    5.743430   6.048397   4.919344   4.557035   3.449844
    43  H    8.044025   8.423741   7.260285   6.853146   5.679762
    44  H    7.929455   8.377014   7.862032   7.470368   6.511895
                   26         27         28         29         30
    26  H    0.000000
    27  H    1.776438   0.000000
    28  H    1.768870   1.766631   0.000000
    29  H    6.554766   6.823061   7.571222   0.000000
    30  H    5.653378   6.128359   6.980297   1.758694   0.000000
    31  H    5.033651   5.569914   6.078857   1.752170   1.775687
    32  H    7.880737   7.445006   8.638664   3.094107   3.957770
    33  H    7.792807   7.725041   8.852166   2.250234   2.810859
    34  H    9.608075   9.232422  10.592527   4.661720   5.074851
    35  H    8.743744   8.119169   9.621992   5.032523   5.179613
    36  H    8.587365   8.297398   9.741730   4.557915   4.327880
    37  C    3.251795   3.290405   4.580064   4.321040   3.196012
    38  C    3.411458   4.144745   5.035721   4.225235   2.738450
    39  C    4.525737   5.302334   6.228254   4.666575   2.941836
    40  H    2.476368   2.370946   3.761796   5.321499   4.240035
    41  H    4.167685   3.976363   5.453880   4.622888   3.446162
    42  H    3.020918   4.109508   4.621434   4.293037   2.999251
    43  H    5.017675   6.054327   6.759662   5.047341   3.326854
    44  H    5.203476   5.715981   6.858980   5.030122   3.333744
                   31         32         33         34         35
    31  H    0.000000
    32  H    4.385587   0.000000
    33  H    3.766747   1.768913   0.000000
    34  H    6.141525   2.477895   2.433858   0.000000
    35  H    6.160266   2.478951   3.059688   1.767794   0.000000
    36  H    5.707199   3.058742   2.510189   1.771730   1.775642
    37  C    3.460489   5.129333   4.886667   6.491498   5.653732
    38  C    3.151243   5.798608   5.113667   6.979139   6.457908
    39  C    3.914958   6.212171   5.230411   6.934661   6.550210
    40  H    4.289589   6.042910   5.944383   7.455000   6.470770
    41  H    4.135922   4.912301   4.667695   5.932268   4.965408
    42  H    2.868818   6.287938   5.611480   7.678914   7.262683
    43  H    4.241405   6.952997   5.792100   7.591636   7.395420
    44  H    4.592271   6.085528   5.114825   6.486416   6.015581
                   36         37         38         39         40
    36  H    0.000000
    37  C    5.351058   0.000000
    38  C    5.773515   1.504357   0.000000
    39  C    5.547436   2.513538   1.339359   0.000000
    40  H    6.291619   1.095092   2.092760   3.106325   0.000000
    41  H    4.628468   1.096564   2.137615   2.624725   1.736962
    42  H    6.618128   2.221607   1.088689   2.094457   2.579852
    43  H    6.244981   3.498768   2.110824   1.086201   4.021082
    44  H    4.941209   2.778087   2.124721   1.085621   3.386392
                   41         42         43         44
    41  H    0.000000
    42  H    3.099526   0.000000
    43  H    3.707647   2.418128   0.000000
    44  H    2.432851   3.076903   1.855341   0.000000
 Stoichiometry    C14H26O3Si
 Framework group  C1[X(C14H26O3Si)]
 Deg. of freedom   126
 Full point group                 C1      NOp   1
 Largest Abelian subgroup         C1      NOp   1
 Largest concise Abelian subgroup C1      NOp   1
                         Standard orientation:                         
 ---------------------------------------------------------------------
 Center     Atomic      Atomic             Coordinates (Angstroms)
 Number     Number       Type             X           Y           Z
 ---------------------------------------------------------------------
      1          6           0       -2.402190    0.103103   -0.314574
      2          6           0       -1.028721    0.356129   -0.952472
      3          6           0        0.114789    0.020311    0.057168
      4          6           0       -0.065205   -1.470199    0.377325
      5          6           0       -1.428956   -1.826145    0.886211
      6          1           0       -2.612032    0.871629    0.439140
      7          1           0       -0.908233   -0.350506   -1.788840
      8          1           0        0.121073   -2.087634   -0.510105
      9          1           0        0.658024   -1.784062    1.139152
     10          8           0       -2.482627   -1.168937    0.368368
     11          8           0       -1.589300   -2.748042    1.680802
     12          6           0       -3.548126    0.132247   -1.342821
     13          6           0       -4.915650   -0.086478   -0.704732
     14          6           0       -0.941150    1.748031   -1.596857
     15          8           0        1.336553    0.275775   -0.671829
     16         14           0        2.885117   -0.280977   -0.372019
     17          6           0        3.397645   -0.196497    1.428154
     18          6           0        3.101111   -2.051340   -0.972297
     19          6           0        4.104095    0.788714   -1.347565
     20          1           0        2.528930   -2.749436   -0.355453
     21          1           0        2.763659   -2.148190   -2.008327
     22          1           0        4.154340   -2.344024   -0.925417
     23          1           0        5.129085    0.440655   -1.190610
     24          1           0        3.879473    0.741106   -2.416992
     25          1           0        4.036298    1.831366   -1.023903
     26          1           0        3.291573    0.820412    1.816880
     27          1           0        2.795923   -0.870260    2.044237
     28          1           0        4.445840   -0.490915    1.539407
     29          1           0       -1.527747    1.778059   -2.521555
     30          1           0       -1.337787    2.528263   -0.942279
     31          1           0        0.083317    2.013025   -1.873975
     32          1           0       -3.391236   -0.654134   -2.091034
     33          1           0       -3.569031    1.091770   -1.869081
     34          1           0       -5.700608   -0.010958   -1.464066
     35          1           0       -4.991045   -1.076752   -0.245173
     36          1           0       -5.113530    0.667527    0.063686
     37          6           0        0.068753    0.848541    1.384667
     38          6           0        0.285187    2.331557    1.254622
     39          6           0       -0.521319    3.258304    1.788073
     40          1           0        0.850175    0.484438    2.059971
     41          1           0       -0.871854    0.660236    1.915941
     42          1           0        1.166268    2.656062    0.703590
     43          1           0       -0.305168    4.315827    1.666604
     44          1           0       -1.405932    2.992149    2.358330
 ---------------------------------------------------------------------
 Rotational constants (GHZ):      0.5388449      0.2505161      0.2227833
 Standard basis: 6-31G(d,p) (6D, 7F)
 There are   404 symmetry adapted cartesian basis functions of A   symmetry.
 There are   404 symmetry adapted basis functions of A   symmetry.
   404 basis functions,   710 primitive gaussians,   404 cartesian basis functions
    74 alpha electrons       74 beta electrons
       nuclear repulsion energy      1622.2730396762 Hartrees.
 NAtoms=   44 NActive=   44 NUniq=   44 SFac= 1.00D+00 NAtFMM=   60 NAOKFM=F Big=F
 Integral buffers will be    131072 words long.
 Raffenetti 2 integral format.
 Two-electron integral symmetry is turned on.
 ------------------------------------------------------------------------------
 Polarizable Continuum Model (PCM)
 =================================
 Model                : PCM (using non-symmetric T matrix).
 Atomic radii         : UFF (Universal Force Field).
 Polarization charges : Total charges.
 Charge compensation  : None.
 Solution method      : On-the-fly selection.
 Cavity type          : Scaled VdW (van der Waals Surface) (Alpha=1.100).
 Cavity algorithm     : GePol (No added spheres)
                        Default sphere list used, NSphG=   44.
                        Lebedev-Laikov grids with approx.  5.0 points / Ang**2.
                        Smoothing algorithm: Karplus/York (Gamma=1.0000).
                        Polarization charges: spherical gaussians, with
                                              point-specific exponents (IZeta= 3).
                        Self-potential: point-specific (ISelfS= 7).
                        Self-field    : sphere-specific E.n sum rule (ISelfD= 2).
 1st derivatives      : Analytical E(r).r(x)/FMM algorithm (CHGder, D1EAlg=3).
                        Cavity 1st derivative terms included.
 Solvent              : Chloroform, Eps=   4.711300 Eps(inf)=   2.090627
 ------------------------------------------------------------------------------
 One-electron integrals computed using PRISM.
 NBasis=   404 RedAO= T EigKep=  1.78D-03  NBF=   404
 NBsUse=   404 1.00D-06 EigRej= -1.00D+00 NBFU=   404
 ExpMin= 7.78D-02 ExpMax= 1.61D+04 ExpMxC= 2.43D+03 IAcc=2 IRadAn=         4 AccDes= 0.00D+00
 Harris functional with IExCor=  402 and IRadAn=       4 diagonalized for initial guess.
 HarFok:  IExCor=  402 AccDes= 0.00D+00 IRadAn=         4 IDoV= 1 UseB2=F ITyADJ=14
 ICtDFT=  3500011 ScaDFX=  1.000000  1.000000  1.000000  1.000000
 FoFCou: FMM=F IPFlag=           0 FMFlag=      100000 FMFlg1=           0
         NFxFlg=           0 DoJE=T BraDBF=F KetDBF=T FulRan=T
         wScrn=  0.000000 ICntrl=     500 IOpCl=  0 I1Cent=   200000004 NGrid=           0
         NMat0=    1 NMatS0=      1 NMatT0=    0 NMatD0=    1 NMtDS0=    0 NMtDT0=    0
 Petite list used in FoFCou.
 Requested convergence on RMS density matrix=1.00D-08 within 128 cycles.
 Requested convergence on MAX density matrix=1.00D-06.
 Requested convergence on             energy=1.00D-06.
 No special actions if energy rises.
 Inv3:  Mode=1 IEnd=    24848652.
 Iteration    1 A*A^-1 deviation from unit magnitude is 4.88D-15 for   1414.
 Iteration    1 A*A^-1 deviation from orthogonality  is 3.62D-15 for   2821    845.
 Iteration    1 A^-1*A deviation from unit magnitude is 5.00D-15 for   2854.
 Iteration    1 A^-1*A deviation from orthogonality  is 2.00D-11 for   2877   2749.
 Error on total polarization charges =  0.00933
 SCF Done:  E(RB3LYP) =  -1064.41670204     A.U. after   13 cycles
            NFock= 13  Conv=0.62D-08     -V/T= 2.0081

 **********************************************************************

            Population analysis using the SCF density.

 **********************************************************************

 Orbital symmetries:
       Occupied  (A) (A) (A) (A) (A) (A) (A) (A) (A) (A) (A) (A)
                 (A) (A) (A) (A) (A) (A) (A) (A) (A) (A) (A) (A)
                 (A) (A) (A) (A) (A) (A) (A) (A) (A) (A) (A) (A)
                 (A) (A) (A) (A) (A) (A) (A) (A) (A) (A) (A) (A)
                 (A) (A) (A) (A) (A) (A) (A) (A) (A) (A) (A) (A)
                 (A) (A) (A) (A) (A) (A) (A) (A) (A) (A) (A) (A)
                 (A) (A)
       Virtual   (A) (A) (A) (A) (A) (A) (A) (A) (A) (A) (A) (A)
                 (A) (A) (A) (A) (A) (A) (A) (A) (A) (A) (A) (A)
                 (A) (A) (A) (A) (A) (A) (A) (A) (A) (A) (A) (A)
                 (A) (A) (A) (A) (A) (A) (A) (A) (A) (A) (A) (A)
                 (A) (A) (A) (A) (A) (A) (A) (A) (A) (A) (A) (A)
                 (A) (A) (A) (A) (A) (A) (A) (A) (A) (A) (A) (A)
                 (A) (A) (A) (A) (A) (A) (A) (A) (A) (A) (A) (A)
                 (A) (A) (A) (A) (A) (A) (A) (A) (A) (A) (A) (A)
                 (A) (A) (A) (A) (A) (A) (A) (A) (A) (A) (A) (A)
                 (A) (A) (A) (A) (A) (A) (A) (A) (A) (A) (A) (A)
                 (A) (A) (A) (A) (A) (A) (A) (A) (A) (A) (A) (A)
                 (A) (A) (A) (A) (A) (A) (A) (A) (A) (A) (A) (A)
                 (A) (A) (A) (A) (A) (A) (A) (A) (A) (A) (A) (A)
                 (A) (A) (A) (A) (A) (A) (A) (A) (A) (A) (A) (A)
                 (A) (A) (A) (A) (A) (A) (A) (A) (A) (A) (A) (A)
                 (A) (A) (A) (A) (A) (A) (A) (A) (A) (A) (A) (A)
                 (A) (A) (A) (A) (A) (A) (A) (A) (A) (A) (A) (A)
                 (A) (A) (A) (A) (A) (A) (A) (A) (A) (A) (A) (A)
                 (A) (A) (A) (A) (A) (A) (A) (A) (A) (A) (A) (A)
                 (A) (A) (A) (A) (A) (A) (A) (A) (A) (A) (A) (A)
                 (A) (A) (A) (A) (A) (A) (A) (A) (A) (A) (A) (A)
                 (A) (A) (A) (A) (A) (A) (A) (A) (A) (A) (A) (A)
                 (A) (A) (A) (A) (A) (A) (A) (A) (A) (A) (A) (A)
                 (A) (A) (A) (A) (A) (A) (A) (A) (A) (A) (A) (A)
                 (A) (A) (A) (A) (A) (A) (A) (A) (A) (A) (A) (A)
                 (A) (A) (A) (A) (A) (A) (A) (A) (A) (A) (A) (A)
                 (A) (A) (A) (A) (A) (A) (A) (A) (A) (A) (A) (A)
                 (A) (A) (A) (A) (A) (A)
 The electronic state is 1-A.
 Alpha  occ. eigenvalues --  -66.13988 -19.19404 -19.14541 -19.13452 -10.32392
 Alpha  occ. eigenvalues --  -10.26682 -10.25530 -10.20219 -10.19974 -10.19655
 Alpha  occ. eigenvalues --  -10.19351 -10.18890 -10.18045 -10.17405 -10.17327
 Alpha  occ. eigenvalues --  -10.15996 -10.15784 -10.15651  -5.28149  -3.64207
 Alpha  occ. eigenvalues --   -3.63972  -3.63938  -1.10020  -1.01446  -1.00775
 Alpha  occ. eigenvalues --   -0.82971  -0.80436  -0.78062  -0.75110  -0.71292
 Alpha  occ. eigenvalues --   -0.70264  -0.69238  -0.67689  -0.67381  -0.64110
 Alpha  occ. eigenvalues --   -0.61483  -0.59414  -0.56642  -0.54327  -0.51272
 Alpha  occ. eigenvalues --   -0.50443  -0.48407  -0.46802  -0.46287  -0.45120
 Alpha  occ. eigenvalues --   -0.44835  -0.43488  -0.42793  -0.42405  -0.41920
 Alpha  occ. eigenvalues --   -0.40993  -0.40661  -0.40269  -0.39768  -0.39290
 Alpha  occ. eigenvalues --   -0.39056  -0.38491  -0.38294  -0.37836  -0.37156
 Alpha  occ. eigenvalues --   -0.36468  -0.36084  -0.35135  -0.34808  -0.34258
 Alpha  occ. eigenvalues --   -0.34038  -0.32761  -0.31602  -0.30026  -0.29498
 Alpha  occ. eigenvalues --   -0.28506  -0.27824  -0.26421  -0.25203
 Alpha virt. eigenvalues --   -0.00139   0.01207   0.06367   0.06946   0.08753
 Alpha virt. eigenvalues --    0.09432   0.09927   0.10235   0.11182   0.11793
 Alpha virt. eigenvalues --    0.11966   0.12996   0.13695   0.14103   0.14313
 Alpha virt. eigenvalues --    0.15149   0.16012   0.16102   0.16438   0.16876
 Alpha virt. eigenvalues --    0.16973   0.17539   0.18003   0.18386   0.18661
 Alpha virt. eigenvalues --    0.19106   0.19712   0.19894   0.20753   0.21133
 Alpha virt. eigenvalues --    0.21328   0.21399   0.22479   0.23069   0.23679
 Alpha virt. eigenvalues --    0.24473   0.25201   0.26086   0.27314   0.27703
 Alpha virt. eigenvalues --    0.28957   0.30200   0.32640   0.35279   0.36463
 Alpha virt. eigenvalues --    0.37088   0.38950   0.39814   0.40624   0.44013
 Alpha virt. eigenvalues --    0.45764   0.47153   0.48594   0.49984   0.50675
 Alpha virt. eigenvalues --    0.51384   0.52553   0.53246   0.53827   0.55490
 Alpha virt. eigenvalues --    0.56771   0.57909   0.58896   0.60531   0.60907
 Alpha virt. eigenvalues --    0.61949   0.62784   0.63211   0.64089   0.64750
 Alpha virt. eigenvalues --    0.66112   0.66429   0.67022   0.68491   0.69132
 Alpha virt. eigenvalues --    0.69439   0.70850   0.71281   0.73196   0.74528
 Alpha virt. eigenvalues --    0.75286   0.75605   0.75905   0.76214   0.76876
 Alpha virt. eigenvalues --    0.78457   0.79851   0.80742   0.82594   0.82801
 Alpha virt. eigenvalues --    0.83850   0.84314   0.85696   0.86250   0.86614
 Alpha virt. eigenvalues --    0.86935   0.87403   0.87817   0.88557   0.88936
 Alpha virt. eigenvalues --    0.89697   0.89965   0.90303   0.90615   0.91401
 Alpha virt. eigenvalues --    0.91979   0.92397   0.93120   0.93584   0.93942
 Alpha virt. eigenvalues --    0.94445   0.94634   0.94873   0.96083   0.97384
 Alpha virt. eigenvalues --    0.97816   0.98852   0.99149   1.00680   1.00884
 Alpha virt. eigenvalues --    1.02558   1.03817   1.04768   1.06059   1.08131
 Alpha virt. eigenvalues --    1.10356   1.12162   1.13068   1.14376   1.15970
 Alpha virt. eigenvalues --    1.19503   1.21092   1.22564   1.25624   1.26556
 Alpha virt. eigenvalues --    1.28365   1.30089   1.30498   1.31892   1.33454
 Alpha virt. eigenvalues --    1.34312   1.38248   1.38841   1.41671   1.42994
 Alpha virt. eigenvalues --    1.43861   1.45320   1.46061   1.47107   1.48214
 Alpha virt. eigenvalues --    1.49324   1.52259   1.54331   1.55396   1.56361
 Alpha virt. eigenvalues --    1.57652   1.60085   1.62864   1.64030   1.64923
 Alpha virt. eigenvalues --    1.66140   1.66842   1.69010   1.69369   1.69675
 Alpha virt. eigenvalues --    1.72355   1.76046   1.77311   1.77584   1.79149
 Alpha virt. eigenvalues --    1.79852   1.81622   1.83353   1.84798   1.84933
 Alpha virt. eigenvalues --    1.86176   1.86717   1.88413   1.90795   1.91454
 Alpha virt. eigenvalues --    1.91894   1.92642   1.95708   1.95994   1.97501
 Alpha virt. eigenvalues --    1.97662   1.98875   1.99322   2.01970   2.02398
 Alpha virt. eigenvalues --    2.03720   2.04761   2.04835   2.05337   2.05920
 Alpha virt. eigenvalues --    2.06637   2.07042   2.07558   2.08298   2.08758
 Alpha virt. eigenvalues --    2.09092   2.09781   2.10819   2.11307   2.11660
 Alpha virt. eigenvalues --    2.12449   2.12889   2.13493   2.13823   2.14638
 Alpha virt. eigenvalues --    2.15497   2.16523   2.16693   2.16985   2.17398
 Alpha virt. eigenvalues --    2.20122   2.21944   2.23121   2.24323   2.27275
 Alpha virt. eigenvalues --    2.29514   2.29584   2.30899   2.31265   2.32542
 Alpha virt. eigenvalues --    2.33598   2.34793   2.35153   2.35733   2.36548
 Alpha virt. eigenvalues --    2.37349   2.38406   2.38776   2.39441   2.41080
 Alpha virt. eigenvalues --    2.42957   2.45438   2.47776   2.50072   2.51670
 Alpha virt. eigenvalues --    2.52038   2.53639   2.56431   2.56990   2.58501
 Alpha virt. eigenvalues --    2.59444   2.62908   2.63513   2.64073   2.64944
 Alpha virt. eigenvalues --    2.65899   2.66470   2.67387   2.68399   2.69439
 Alpha virt. eigenvalues --    2.70933   2.71341   2.73324   2.74573   2.76484
 Alpha virt. eigenvalues --    2.77311   2.79169   2.80012   2.81025   2.81263
 Alpha virt. eigenvalues --    2.81721   2.82434   2.84379   2.85051   2.85372
 Alpha virt. eigenvalues --    2.85798   2.86338   2.87210   2.87718   2.89892
 Alpha virt. eigenvalues --    2.91626   2.92386   2.92742   2.93585   2.95387
 Alpha virt. eigenvalues --    2.96744   2.98544   3.02144   3.08589   3.11036
 Alpha virt. eigenvalues --    3.17291   3.18315   3.20343   3.20661   3.21087
 Alpha virt. eigenvalues --    3.21906   3.22797   3.25700   3.29102   3.31841
 Alpha virt. eigenvalues --    3.33873   3.35039   3.40691   3.43393   3.43746
 Alpha virt. eigenvalues --    3.44214   3.44491   3.44699   3.45259   3.45942
 Alpha virt. eigenvalues --    3.46245   3.47634   3.48360   3.49712   3.51203
 Alpha virt. eigenvalues --    3.53823   3.56239   3.66899   4.02200   4.13858
 Alpha virt. eigenvalues --    4.21574   4.25083   4.33104   4.37981   4.44745
 Alpha virt. eigenvalues --    4.45540   4.49655   4.51641   4.54017   4.55775
 Alpha virt. eigenvalues --    4.63113   4.65873   4.75520   4.78309   4.81105
          Condensed to atoms (all electrons):
               1          2          3          4          5          6
     1  C    4.811560   0.322517  -0.029122  -0.008086  -0.008851   0.378086
     2  C    0.322517   5.073933   0.339241  -0.051127  -0.016318  -0.042276
     3  C   -0.029122   0.339241   4.852312   0.289128  -0.015460  -0.012754
     4  C   -0.008086  -0.051127   0.289128   5.347689   0.285539   0.001416
     5  C   -0.008851  -0.016318  -0.015460   0.285539   4.356018  -0.001522
     6  H    0.378086  -0.042276  -0.012754   0.001416  -0.001522   0.634975
     7  H   -0.039800   0.376949  -0.044530  -0.007237  -0.000094   0.006344
     8  H    0.000478  -0.007520  -0.021653   0.364040  -0.023604  -0.000002
     9  H    0.000050   0.006011  -0.033214   0.354299  -0.021219   0.000077
    10  O    0.163009  -0.026052   0.002262  -0.099037   0.264640  -0.041817
    11  O    0.001929  -0.000080   0.001994  -0.088055   0.576781   0.000048
    12  C    0.381158  -0.036184   0.004998  -0.000901   0.001283  -0.051496
    13  C   -0.038859   0.004205  -0.000098  -0.000001   0.000114  -0.006447
    14  C   -0.032189   0.349565  -0.028032   0.004783   0.000552  -0.004369
    15  O    0.002898  -0.044258   0.179976  -0.025316   0.001583  -0.000033
    16  Si   0.000330  -0.001892  -0.014767   0.003856  -0.000515  -0.000029
    17  C    0.000002  -0.000016  -0.000829  -0.002326   0.000003   0.000000
    18  C   -0.000001  -0.000066  -0.001285  -0.000351   0.000085   0.000000
    19  C    0.000000  -0.000004   0.000945  -0.000048   0.000000   0.000000
    20  H   -0.000001   0.000009  -0.000121   0.000113  -0.000014   0.000000
    21  H    0.000000   0.000019   0.000029  -0.000233  -0.000004   0.000000
    22  H    0.000000   0.000001   0.000031   0.000044   0.000000   0.000000
    23  H    0.000000   0.000000  -0.000012   0.000001   0.000000   0.000000
    24  H    0.000000   0.000006  -0.000041  -0.000004   0.000000   0.000000
    25  H    0.000000  -0.000002  -0.000050   0.000003   0.000000   0.000000
    26  H    0.000000  -0.000006  -0.000382   0.000124   0.000003   0.000000
    27  H    0.000000  -0.000005   0.000415  -0.000770  -0.000017   0.000000
    28  H    0.000000   0.000001   0.000007   0.000028   0.000000   0.000000
    29  H   -0.004301  -0.026780   0.003917  -0.000131  -0.000014  -0.000012
    30  H   -0.006527  -0.035588  -0.003887   0.000058  -0.000017   0.006233
    31  H    0.003846  -0.025981  -0.008593   0.000286  -0.000021  -0.000075
    32  H   -0.033556  -0.006302  -0.000101   0.000002   0.000192   0.006143
    33  H   -0.029377  -0.005232  -0.000007   0.000031  -0.000042  -0.000538
    34  H    0.004053  -0.000100   0.000002   0.000001  -0.000003  -0.000054
    35  H   -0.007777   0.000119  -0.000007   0.000040   0.000267   0.000096
    36  H   -0.005074   0.000108   0.000000   0.000000  -0.000019   0.005670
    37  C    0.000694  -0.058910   0.337076  -0.065553   0.000403   0.004118
    38  C   -0.001331  -0.004431  -0.032687   0.004655  -0.000023   0.000402
    39  C   -0.000539   0.001412  -0.000181  -0.000063  -0.000017   0.001318
    40  H   -0.000155   0.005385  -0.031267  -0.006872  -0.000355   0.000052
    41  H    0.002161  -0.006105  -0.023645  -0.004417   0.005161  -0.000470
    42  H    0.000014  -0.000556  -0.004315   0.000081   0.000001   0.000008
    43  H    0.000009  -0.000038  -0.000076   0.000002   0.000000  -0.000011
    44  H   -0.000114  -0.000027   0.000114  -0.000005  -0.000005   0.000701
               7          8          9         10         11         12
     1  C   -0.039800   0.000478   0.000050   0.163009   0.001929   0.381158
     2  C    0.376949  -0.007520   0.006011  -0.026052  -0.000080  -0.036184
     3  C   -0.044530  -0.021653  -0.033214   0.002262   0.001994   0.004998
     4  C   -0.007237   0.364040   0.354299  -0.099037  -0.088055  -0.000901
     5  C   -0.000094  -0.023604  -0.021219   0.264640   0.576781   0.001283
     6  H    0.006344  -0.000002   0.000077  -0.041817   0.000048  -0.051496
     7  H    0.642858   0.004671   0.000206  -0.000605  -0.000030  -0.009911
     8  H    0.004671   0.543762  -0.026403   0.000154  -0.000468  -0.000022
     9  H    0.000206  -0.026403   0.572636   0.003320   0.003574   0.000008
    10  O   -0.000605   0.000154   0.003320   8.328657  -0.075892  -0.045636
    11  O   -0.000030  -0.000468   0.003574  -0.075892   8.085146  -0.000061
    12  C   -0.009911  -0.000022   0.000008  -0.045636  -0.000061   4.934843
    13  C    0.000026   0.000001   0.000000  -0.003336  -0.000008   0.361912
    14  C   -0.043288  -0.000011  -0.000144   0.002412   0.000002  -0.005319
    15  O    0.000261  -0.001741  -0.001156  -0.000009  -0.000013  -0.000041
    16  Si   0.000768  -0.000463   0.004186  -0.000056  -0.000305  -0.000005
    17  C    0.000006   0.000115  -0.000096   0.000000   0.000002   0.000000
    18  C   -0.000058   0.000147  -0.001723   0.000000   0.000003   0.000000
    19  C   -0.000008  -0.000014   0.000005   0.000000   0.000000   0.000000
    20  H   -0.000013   0.000806   0.000917   0.000000  -0.000002   0.000000
    21  H    0.000021   0.000601   0.000043   0.000000   0.000000   0.000000
    22  H    0.000001   0.000031   0.000051   0.000000   0.000000   0.000000
    23  H    0.000000   0.000000   0.000000   0.000000   0.000000   0.000000
    24  H   -0.000001  -0.000002   0.000000   0.000000   0.000000   0.000000
    25  H    0.000000   0.000000   0.000000   0.000000   0.000000   0.000000
    26  H    0.000000   0.000001  -0.000082   0.000000   0.000000   0.000000
    27  H    0.000000  -0.000032   0.002201   0.000000  -0.000006   0.000000
    28  H    0.000000   0.000000   0.000003   0.000000   0.000000   0.000000
    29  H   -0.008914  -0.000010   0.000003  -0.000017   0.000000   0.001251
    30  H    0.005536   0.000000   0.000006   0.000029   0.000000  -0.001202
    31  H   -0.000880   0.000008  -0.000007  -0.000044   0.000000   0.000124
    32  H    0.006307   0.000004   0.000001  -0.000489  -0.000013   0.377249
    33  H    0.000161  -0.000002   0.000000   0.002937   0.000001   0.378564
    34  H   -0.000005   0.000000   0.000000   0.000134   0.000000  -0.028164
    35  H    0.000005  -0.000001   0.000000   0.008260   0.000014  -0.033062
    36  H    0.000013   0.000000   0.000000  -0.000340   0.000000  -0.037589
    37  C    0.006012   0.004845  -0.006771  -0.003076   0.000167  -0.000042
    38  C   -0.000109  -0.000110   0.000016   0.000081   0.000001   0.000015
    39  C   -0.000012   0.000001   0.000002  -0.000001   0.000000   0.000001
    40  H   -0.000146   0.000000   0.004225   0.000027  -0.000007  -0.000001
    41  H   -0.000074   0.000026  -0.000026   0.001629  -0.000334   0.000117
    42  H   -0.000015   0.000003   0.000001  -0.000001   0.000000   0.000001
    43  H    0.000000   0.000000   0.000000   0.000000   0.000000   0.000000
    44  H    0.000000   0.000000   0.000000  -0.000003   0.000000   0.000001
              13         14         15         16         17         18
     1  C   -0.038859  -0.032189   0.002898   0.000330   0.000002  -0.000001
     2  C    0.004205   0.349565  -0.044258  -0.001892  -0.000016  -0.000066
     3  C   -0.000098  -0.028032   0.179976  -0.014767  -0.000829  -0.001285
     4  C   -0.000001   0.004783  -0.025316   0.003856  -0.002326  -0.000351
     5  C    0.000114   0.000552   0.001583  -0.000515   0.000003   0.000085
     6  H   -0.006447  -0.004369  -0.000033  -0.000029   0.000000   0.000000
     7  H    0.000026  -0.043288   0.000261   0.000768   0.000006  -0.000058
     8  H    0.000001  -0.000011  -0.001741  -0.000463   0.000115   0.000147
     9  H    0.000000  -0.000144  -0.001156   0.004186  -0.000096  -0.001723
    10  O   -0.003336   0.002412  -0.000009  -0.000056   0.000000   0.000000
    11  O   -0.000008   0.000002  -0.000013  -0.000305   0.000002   0.000003
    12  C    0.361912  -0.005319  -0.000041  -0.000005   0.000000   0.000000
    13  C    4.933743   0.000108   0.000000   0.000000   0.000000   0.000000
    14  C    0.000108   4.982848  -0.009856   0.000075  -0.000005   0.000002
    15  O    0.000000  -0.009856   8.298195   0.333628  -0.014342  -0.018232
    16  Si   0.000000   0.000075   0.333628  11.857914   0.367021   0.370199
    17  C    0.000000  -0.000005  -0.014342   0.367021   5.148852  -0.035642
    18  C    0.000000   0.000002  -0.018232   0.370199  -0.035642   5.142312
    19  C    0.000000  -0.000008  -0.019227   0.378039  -0.031403  -0.033274
    20  H    0.000000   0.000000  -0.000493  -0.026960  -0.001671   0.375289
    21  H    0.000000   0.000000  -0.000606  -0.025425   0.001319   0.378111
    22  H    0.000000   0.000000   0.000566  -0.013884  -0.000150   0.369998
    23  H    0.000000   0.000000   0.000492  -0.014795  -0.000747  -0.000476
    24  H    0.000000  -0.000003  -0.000426  -0.024849   0.001394  -0.001290
    25  H    0.000000  -0.000001  -0.000317  -0.025512  -0.001197   0.001384
    26  H    0.000000   0.000000  -0.000468  -0.027829   0.377940   0.001343
    27  H    0.000000   0.000000  -0.000420  -0.027907   0.375092  -0.001566
    28  H    0.000000   0.000000   0.000488  -0.014183   0.372093  -0.000384
    29  H   -0.000069   0.373060   0.000080  -0.000039   0.000000   0.000000
    30  H   -0.000042   0.380702   0.000013  -0.000076   0.000000   0.000000
    31  H    0.000000   0.379435   0.010532   0.001226   0.000006  -0.000002
    32  H   -0.041265  -0.000462  -0.000002  -0.000003   0.000000   0.000000
    33  H   -0.036961   0.002128   0.000000   0.000000   0.000000   0.000000
    34  H    0.380389  -0.000003   0.000000   0.000000   0.000000   0.000000
    35  H    0.388827  -0.000005   0.000000   0.000000   0.000000   0.000000
    36  H    0.385846  -0.000019   0.000000   0.000000   0.000000   0.000000
    37  C    0.000000  -0.006324  -0.053425  -0.006435  -0.000997  -0.000139
    38  C    0.000000  -0.004754   0.000923   0.001482  -0.000495   0.000006
    39  C    0.000000  -0.003791   0.000341  -0.000165   0.000002   0.000000
    40  H    0.000000  -0.000109  -0.002118  -0.001798   0.002011  -0.000032
    41  H    0.000001   0.000325   0.002890   0.000464   0.000014   0.000002
    42  H    0.000000   0.000131   0.004032   0.002709  -0.000310   0.000006
    43  H    0.000000   0.000028   0.000003   0.000015   0.000000   0.000000
    44  H    0.000000   0.000008  -0.000002   0.000020  -0.000001   0.000000
              19         20         21         22         23         24
     1  C    0.000000  -0.000001   0.000000   0.000000   0.000000   0.000000
     2  C   -0.000004   0.000009   0.000019   0.000001   0.000000   0.000006
     3  C    0.000945  -0.000121   0.000029   0.000031  -0.000012  -0.000041
     4  C   -0.000048   0.000113  -0.000233   0.000044   0.000001  -0.000004
     5  C    0.000000  -0.000014  -0.000004   0.000000   0.000000   0.000000
     6  H    0.000000   0.000000   0.000000   0.000000   0.000000   0.000000
     7  H   -0.000008  -0.000013   0.000021   0.000001   0.000000  -0.000001
     8  H   -0.000014   0.000806   0.000601   0.000031   0.000000  -0.000002
     9  H    0.000005   0.000917   0.000043   0.000051   0.000000   0.000000
    10  O    0.000000   0.000000   0.000000   0.000000   0.000000   0.000000
    11  O    0.000000  -0.000002   0.000000   0.000000   0.000000   0.000000
    12  C    0.000000   0.000000   0.000000   0.000000   0.000000   0.000000
    13  C    0.000000   0.000000   0.000000   0.000000   0.000000   0.000000
    14  C   -0.000008   0.000000   0.000000   0.000000   0.000000  -0.000003
    15  O   -0.019227  -0.000493  -0.000606   0.000566   0.000492  -0.000426
    16  Si   0.378039  -0.026960  -0.025425  -0.013884  -0.014795  -0.024849
    17  C   -0.031403  -0.001671   0.001319  -0.000150  -0.000747   0.001394
    18  C   -0.033274   0.375289   0.378111   0.369998  -0.000476  -0.001290
    19  C    5.118682   0.001441  -0.001037  -0.000836   0.373418   0.376411
    20  H    0.001441   0.581830  -0.023045  -0.023277   0.000001   0.000008
    21  H   -0.001037  -0.023045   0.574659  -0.023288  -0.000023   0.000550
    22  H   -0.000836  -0.023277  -0.023288   0.570401   0.000006  -0.000052
    23  H    0.373418   0.000001  -0.000023   0.000006   0.566946  -0.023583
    24  H    0.376411   0.000008   0.000550  -0.000052  -0.023583   0.575160
    25  H    0.375463  -0.000027   0.000002   0.000016  -0.023450  -0.022040
    26  H   -0.001062   0.000005  -0.000025   0.000005  -0.000056   0.000002
    27  H    0.001485   0.000702   0.000007  -0.000032   0.000000  -0.000028
    28  H   -0.001070  -0.000026   0.000016   0.000046   0.000114   0.000014
    29  H    0.000000   0.000000   0.000000   0.000000   0.000000   0.000000
    30  H    0.000000   0.000000   0.000000   0.000000   0.000000   0.000000
    31  H   -0.000006   0.000000  -0.000002   0.000000   0.000000   0.000018
    32  H    0.000000   0.000000   0.000000   0.000000   0.000000   0.000000
    33  H    0.000000   0.000000   0.000000   0.000000   0.000000   0.000000
    34  H    0.000000   0.000000   0.000000   0.000000   0.000000   0.000000
    35  H    0.000000   0.000000   0.000000   0.000000   0.000000   0.000000
    36  H    0.000000   0.000000   0.000000   0.000000   0.000000   0.000000
    37  C   -0.000095  -0.000036   0.000000   0.000001   0.000001   0.000003
    38  C   -0.000051   0.000000   0.000000   0.000000   0.000001   0.000000
    39  C    0.000000   0.000000   0.000000   0.000000   0.000000   0.000000
    40  H    0.000001  -0.000011   0.000000   0.000001   0.000000   0.000000
    41  H    0.000000   0.000000   0.000000   0.000000   0.000000   0.000000
    42  H   -0.000082   0.000000   0.000000   0.000000   0.000000  -0.000002
    43  H    0.000000   0.000000   0.000000   0.000000   0.000000   0.000000
    44  H    0.000000   0.000000   0.000000   0.000000   0.000000   0.000000
              25         26         27         28         29         30
     1  C    0.000000   0.000000   0.000000   0.000000  -0.004301  -0.006527
     2  C   -0.000002  -0.000006  -0.000005   0.000001  -0.026780  -0.035588
     3  C   -0.000050  -0.000382   0.000415   0.000007   0.003917  -0.003887
     4  C    0.000003   0.000124  -0.000770   0.000028  -0.000131   0.000058
     5  C    0.000000   0.000003  -0.000017   0.000000  -0.000014  -0.000017
     6  H    0.000000   0.000000   0.000000   0.000000  -0.000012   0.006233
     7  H    0.000000   0.000000   0.000000   0.000000  -0.008914   0.005536
     8  H    0.000000   0.000001  -0.000032   0.000000  -0.000010   0.000000
     9  H    0.000000  -0.000082   0.002201   0.000003   0.000003   0.000006
    10  O    0.000000   0.000000   0.000000   0.000000  -0.000017   0.000029
    11  O    0.000000   0.000000  -0.000006   0.000000   0.000000   0.000000
    12  C    0.000000   0.000000   0.000000   0.000000   0.001251  -0.001202
    13  C    0.000000   0.000000   0.000000   0.000000  -0.000069  -0.000042
    14  C   -0.000001   0.000000   0.000000   0.000000   0.373060   0.380702
    15  O   -0.000317  -0.000468  -0.000420   0.000488   0.000080   0.000013
    16  Si  -0.025512  -0.027829  -0.027907  -0.014183  -0.000039  -0.000076
    17  C   -0.001197   0.377940   0.375092   0.372093   0.000000   0.000000
    18  C    0.001384   0.001343  -0.001566  -0.000384   0.000000   0.000000
    19  C    0.375463  -0.001062   0.001485  -0.001070   0.000000   0.000000
    20  H   -0.000027   0.000005   0.000702  -0.000026   0.000000   0.000000
    21  H    0.000002  -0.000025   0.000007   0.000016   0.000000   0.000000
    22  H    0.000016   0.000005  -0.000032   0.000046   0.000000   0.000000
    23  H   -0.023450  -0.000056   0.000000   0.000114   0.000000   0.000000
    24  H   -0.022040   0.000002  -0.000028   0.000014   0.000000   0.000000
    25  H    0.578585   0.000613   0.000003  -0.000037   0.000000   0.000000
    26  H    0.000613   0.573987  -0.023815  -0.022744   0.000000   0.000000
    27  H    0.000003  -0.023815   0.577016  -0.022566   0.000000   0.000000
    28  H   -0.000037  -0.022744  -0.022566   0.563255   0.000000   0.000000
    29  H    0.000000   0.000000   0.000000   0.000000   0.614757  -0.030981
    30  H    0.000000   0.000000   0.000000   0.000000  -0.030981   0.587009
    31  H    0.000014  -0.000001   0.000000   0.000000  -0.030510  -0.028057
    32  H    0.000000   0.000000   0.000000   0.000000   0.000552   0.000110
    33  H    0.000000   0.000000   0.000000   0.000000   0.001455   0.000972
    34  H    0.000000   0.000000   0.000000   0.000000   0.000004   0.000000
    35  H    0.000000   0.000000   0.000000   0.000000  -0.000001   0.000000
    36  H    0.000000   0.000000   0.000000   0.000000   0.000011   0.000004
    37  C   -0.000013  -0.000912  -0.001579   0.000131  -0.000016   0.001004
    38  C   -0.000039   0.001001  -0.000002  -0.000005   0.000242   0.005685
    39  C   -0.000001   0.000035  -0.000001   0.000000   0.000155   0.004693
    40  H   -0.000005   0.000630   0.002548   0.000068   0.000004   0.000052
    41  H    0.000000   0.000015  -0.000009  -0.000002  -0.000002  -0.000215
    42  H    0.000285   0.000363   0.000005   0.000001   0.000006  -0.000202
    43  H    0.000000   0.000000   0.000000   0.000000  -0.000001   0.000007
    44  H    0.000000   0.000001   0.000000   0.000000   0.000001   0.000011
              31         32         33         34         35         36
     1  C    0.003846  -0.033556  -0.029377   0.004053  -0.007777  -0.005074
     2  C   -0.025981  -0.006302  -0.005232  -0.000100   0.000119   0.000108
     3  C   -0.008593  -0.000101  -0.000007   0.000002  -0.000007   0.000000
     4  C    0.000286   0.000002   0.000031   0.000001   0.000040   0.000000
     5  C   -0.000021   0.000192  -0.000042  -0.000003   0.000267  -0.000019
     6  H   -0.000075   0.006143  -0.000538  -0.000054   0.000096   0.005670
     7  H   -0.000880   0.006307   0.000161  -0.000005   0.000005   0.000013
     8  H    0.000008   0.000004  -0.000002   0.000000  -0.000001   0.000000
     9  H   -0.000007   0.000001   0.000000   0.000000   0.000000   0.000000
    10  O   -0.000044  -0.000489   0.002937   0.000134   0.008260  -0.000340
    11  O    0.000000  -0.000013   0.000001   0.000000   0.000014   0.000000
    12  C    0.000124   0.377249   0.378564  -0.028164  -0.033062  -0.037589
    13  C    0.000000  -0.041265  -0.036961   0.380389   0.388827   0.385846
    14  C    0.379435  -0.000462   0.002128  -0.000003  -0.000005  -0.000019
[...]
    13  C    0.000000   0.000000   0.000000   0.000000   0.000000   0.000000
    14  C   -0.000027   0.000000   0.000000   0.000000   0.000000  -0.000010
    15  O   -0.025193  -0.000459  -0.000663   0.000536   0.000681  -0.000592
    16  Si   0.381201  -0.024322  -0.023879  -0.014129  -0.015168  -0.023446
    17  C   -0.027676  -0.001418   0.001184  -0.000150  -0.000406   0.001173
    18  C   -0.028873   0.376747   0.377915   0.368292  -0.000241  -0.001228
    19  C    5.113063   0.001223  -0.001006  -0.000676   0.368567   0.377465
    20  H    0.001223   0.573754  -0.023611  -0.023633   0.000000   0.000006
    21  H   -0.001006  -0.023611   0.572095  -0.023795  -0.000036   0.000416
    22  H   -0.000676  -0.023633  -0.023795   0.572112   0.000027  -0.000032
    23  H    0.368567   0.000000  -0.000036   0.000027   0.575468  -0.023975
    24  H    0.377465   0.000006   0.000416  -0.000032  -0.023975   0.570489
    25  H    0.377076  -0.000021  -0.000002   0.000010  -0.023991  -0.022443
    26  H   -0.001058   0.000004  -0.000021   0.000002  -0.000054  -0.000002
    27  H    0.001193   0.000532   0.000002  -0.000036  -0.000001  -0.000021
    28  H   -0.000707  -0.000040   0.000009   0.000052   0.000059   0.000006
    29  H    0.000000   0.000000   0.000000   0.000000   0.000000   0.000000
    30  H    0.000000   0.000000   0.000000   0.000000   0.000000   0.000000
    31  H    0.000076   0.000000  -0.000003   0.000000   0.000001   0.000118
    32  H    0.000000   0.000000   0.000000   0.000000   0.000000   0.000000
    33  H    0.000000   0.000000   0.000000   0.000000   0.000000   0.000000
    34  H    0.000000   0.000000   0.000000   0.000000   0.000000   0.000000
    35  H    0.000000   0.000000   0.000000   0.000000   0.000000   0.000000
    36  H    0.000000   0.000000   0.000000   0.000000   0.000000   0.000000
    37  C   -0.000097  -0.000027  -0.000001   0.000001   0.000001   0.000003
    38  C   -0.000070   0.000000   0.000000   0.000000   0.000001   0.000000
    39  C    0.000000   0.000000   0.000000   0.000000   0.000000   0.000000
    40  H   -0.000007  -0.000011   0.000000   0.000001   0.000000   0.000000
    41  H    0.000000   0.000000   0.000000   0.000000   0.000000   0.000000
    42  H   -0.000057   0.000000   0.000000   0.000000   0.000000  -0.000005
    43  H    0.000000   0.000000   0.000000   0.000000   0.000000   0.000000
    44  H    0.000000   0.000000   0.000000   0.000000   0.000000   0.000000
              25         26         27         28         29         30
     1  C    0.000000   0.000000   0.000000   0.000000  -0.004188  -0.006713
     2  C   -0.000002  -0.000005  -0.000003   0.000001  -0.027492  -0.033632
     3  C   -0.000049  -0.000338   0.000273  -0.000004   0.003945  -0.005094
     4  C    0.000003   0.000085  -0.000489   0.000020  -0.000132   0.000072
     5  C    0.000000   0.000001  -0.000008   0.000000  -0.000011  -0.000016
     6  H    0.000000   0.000000   0.000000   0.000000  -0.000021   0.006596
     7  H    0.000000   0.000000   0.000000   0.000000  -0.007172   0.005260
     8  H    0.000000   0.000002  -0.000027   0.000000  -0.000006   0.000000
     9  H    0.000000  -0.000054   0.001443   0.000004   0.000003   0.000006
    10  O    0.000000   0.000000   0.000000   0.000000  -0.000014   0.000027
    11  O    0.000000   0.000000  -0.000001   0.000000   0.000000   0.000000
    12  C    0.000000   0.000000   0.000000   0.000000   0.000787  -0.000771
    13  C    0.000000   0.000000   0.000000   0.000000  -0.000095  -0.000033
    14  C   -0.000003   0.000000   0.000000   0.000000   0.374502   0.379572
    15  O   -0.000402  -0.000579  -0.000534   0.000523   0.000090  -0.000057
    16  Si  -0.023667  -0.025722  -0.024939  -0.014708  -0.000038  -0.000088
    17  C   -0.001268   0.378360   0.376540   0.369193   0.000000   0.000000
    18  C    0.001206   0.001195  -0.001239  -0.000211   0.000000   0.000000
    19  C    0.377076  -0.001058   0.001193  -0.000707   0.000000   0.000000
    20  H   -0.000021   0.000004   0.000532  -0.000040   0.000000   0.000000
    21  H   -0.000002  -0.000021   0.000002   0.000009   0.000000   0.000000
    22  H    0.000010   0.000002  -0.000036   0.000052   0.000000   0.000000
    23  H   -0.023991  -0.000054  -0.000001   0.000059   0.000000   0.000000
    24  H   -0.022443  -0.000002  -0.000021   0.000006   0.000000   0.000000
    25  H    0.572159   0.000467   0.000007  -0.000026   0.000000   0.000000
    26  H    0.000467   0.570824  -0.023842  -0.023364   0.000000   0.000000
    27  H    0.000007  -0.023842   0.572585  -0.023516   0.000000   0.000000
    28  H   -0.000026  -0.023364  -0.023516   0.570040   0.000000   0.000000
    29  H    0.000000   0.000000   0.000000   0.000000   0.606620  -0.029562
    30  H    0.000000   0.000000   0.000000   0.000000  -0.029562   0.583682
    31  H    0.000043  -0.000001   0.000000   0.000000  -0.028409  -0.028511
    32  H    0.000000   0.000000   0.000000   0.000000   0.000433   0.000078
    33  H    0.000000   0.000000   0.000000   0.000000   0.002237   0.000636
    34  H    0.000000   0.000000   0.000000   0.000000   0.000004   0.000000
    35  H    0.000000   0.000000   0.000000   0.000000   0.000000   0.000000
    36  H    0.000000   0.000000   0.000000   0.000000   0.000012   0.000001
    37  C   -0.000013  -0.000243  -0.000713   0.000069  -0.000005   0.001144
    38  C   -0.000053   0.000715  -0.000009  -0.000003   0.000185   0.007648
    39  C   -0.000001   0.000028  -0.000001   0.000000   0.000100   0.004535
    40  H   -0.000004   0.000358   0.001778   0.000029   0.000004   0.000075
    41  H    0.000000   0.000004  -0.000012  -0.000001  -0.000001  -0.000288
    42  H    0.000411   0.000234   0.000003   0.000002   0.000012  -0.000385
    43  H    0.000000   0.000000   0.000000   0.000000   0.000000   0.000012
    44  H    0.000000   0.000000   0.000000   0.000000   0.000001  -0.000019
              31         32         33         34         35         36
     1  C    0.004182  -0.034710  -0.033602   0.003848  -0.008061  -0.004550
     2  C   -0.028724  -0.006815  -0.004675  -0.000095   0.000144   0.000077
     3  C   -0.008941  -0.000122  -0.000009   0.000001  -0.000006   0.000000
     4  C    0.000282   0.000000   0.000040   0.000001   0.000045   0.000000
     5  C   -0.000024   0.000365  -0.000047  -0.000003   0.000341  -0.000013
     6  H   -0.000067   0.006331  -0.000528  -0.000040   0.000101   0.005252
     7  H   -0.001563   0.006690   0.000143  -0.000004   0.000003   0.000012
     8  H    0.000005   0.000003  -0.000003   0.000000  -0.000001   0.000000
     9  H   -0.000007   0.000002   0.000000   0.000000   0.000000   0.000000
    10  O   -0.000046  -0.000552   0.003385   0.000134   0.009193  -0.000262
    11  O    0.000000  -0.000034   0.000001   0.000000   0.000023   0.000000
    12  C    0.000098   0.376280   0.375116  -0.027351  -0.033494  -0.036208
    13  C    0.000001  -0.038378  -0.035164   0.380584   0.388385   0.385423
    14  C    0.378911  -0.000228   0.001639  -0.000002  -0.000007  -0.000014
    15  O    0.011434  -0.000002   0.000000   0.000000   0.000000   0.000000
    16  Si   0.001133  -0.000003   0.000000   0.000000   0.000000   0.000000
    17  C    0.000008   0.000000   0.000000   0.000000   0.000000   0.000000
    18  C   -0.000006   0.000000   0.000000   0.000000   0.000000   0.000000
    19  C    0.000076   0.000000   0.000000   0.000000   0.000000   0.000000
    20  H    0.000000   0.000000   0.000000   0.000000   0.000000   0.000000
    21  H   -0.000003   0.000000   0.000000   0.000000   0.000000   0.000000
    22  H    0.000000   0.000000   0.000000   0.000000   0.000000   0.000000
    23  H    0.000001   0.000000   0.000000   0.000000   0.000000   0.000000
    24  H    0.000118   0.000000   0.000000   0.000000   0.000000   0.000000
    25  H    0.000043   0.000000   0.000000   0.000000   0.000000   0.000000
    26  H   -0.000001   0.000000   0.000000   0.000000   0.000000   0.000000
    27  H    0.000000   0.000000   0.000000   0.000000   0.000000   0.000000
    28  H    0.000000   0.000000   0.000000   0.000000   0.000000   0.000000
    29  H   -0.028409   0.000433   0.002237   0.000004   0.000000   0.000012
    30  H   -0.028511   0.000078   0.000636   0.000000   0.000000   0.000001
    31  H    0.571615  -0.000031  -0.000020   0.000000   0.000000   0.000000
    32  H   -0.000031   0.617267  -0.032362  -0.003101  -0.003786   0.005167
    33  H   -0.000020  -0.032362   0.613345  -0.003512   0.004992  -0.004227
    34  H    0.000000  -0.003101  -0.003512   0.604183  -0.030049  -0.031269
    35  H    0.000000  -0.003786   0.004992  -0.030049   0.577302  -0.030648
    36  H    0.000000   0.005167  -0.004227  -0.031269  -0.030648   0.604833
    37  C   -0.000187   0.000009   0.000001   0.000000   0.000000  -0.000001
    38  C    0.000421  -0.000001  -0.000003   0.000000   0.000000   0.000000
    39  C    0.000011   0.000000   0.000000   0.000000   0.000000   0.000000
    40  H   -0.000036   0.000000   0.000000   0.000000   0.000000   0.000000
    41  H   -0.000008  -0.000003  -0.000003   0.000000  -0.000001  -0.000003
    42  H    0.000415   0.000000   0.000000   0.000000   0.000000   0.000000
    43  H   -0.000002   0.000000   0.000000   0.000000   0.000000   0.000000
    44  H   -0.000001   0.000000   0.000000   0.000000   0.000000   0.000000
              37         38         39         40         41         42
     1  C    0.000721  -0.001228  -0.000384  -0.000167   0.001874   0.000026
     2  C   -0.060334  -0.004398   0.001140   0.006056  -0.005893  -0.000781
     3  C    0.341101  -0.030597   0.000594  -0.033655  -0.025186  -0.005058
     4  C   -0.064826   0.004814  -0.000086  -0.008618  -0.004019   0.000151
     5  C    0.000154  -0.000066  -0.000012  -0.000392   0.003914  -0.000001
     6  H    0.004712   0.000280   0.001102   0.000043  -0.001221   0.000003
     7  H    0.006418  -0.000129  -0.000007  -0.000177  -0.000105  -0.000023
     8  H    0.005082  -0.000123   0.000001   0.000020   0.000024   0.000003
     9  H   -0.006768   0.000016   0.000002   0.004947  -0.000064   0.000002
    10  O   -0.003585   0.000109  -0.000004   0.000031   0.003025  -0.000001
    11  O    0.000128   0.000000   0.000000  -0.000021  -0.000389   0.000000
    12  C   -0.000047   0.000014  -0.000001  -0.000002   0.000151   0.000001
    13  C    0.000000   0.000000   0.000000   0.000000   0.000001   0.000000
    14  C   -0.006665  -0.005161  -0.003129  -0.000140   0.000356   0.000289
    15  O   -0.059387   0.000390   0.000414  -0.002565   0.003359   0.005680
    16  Si  -0.005315   0.001100  -0.000095  -0.000695   0.000386   0.002456
    17  C   -0.000531  -0.000322  -0.000005   0.001767  -0.000003  -0.000294
    18  C   -0.000108   0.000005   0.000000  -0.000042   0.000002   0.000007
    19  C   -0.000097  -0.000070   0.000000  -0.000007   0.000000  -0.000057
    20  H   -0.000027   0.000000   0.000000  -0.000011   0.000000   0.000000
    21  H   -0.000001   0.000000   0.000000   0.000000   0.000000   0.000000
    22  H    0.000001   0.000000   0.000000   0.000001   0.000000   0.000000
    23  H    0.000001   0.000001   0.000000   0.000000   0.000000   0.000000
    24  H    0.000003   0.000000   0.000000   0.000000   0.000000  -0.000005
    25  H   -0.000013  -0.000053  -0.000001  -0.000004   0.000000   0.000411
    26  H   -0.000243   0.000715   0.000028   0.000358   0.000004   0.000234
    27  H   -0.000713  -0.000009  -0.000001   0.001778  -0.000012   0.000003
    28  H    0.000069  -0.000003   0.000000   0.000029  -0.000001   0.000002
    29  H   -0.000005   0.000185   0.000100   0.000004  -0.000001   0.000012
    30  H    0.001144   0.007648   0.004535   0.000075  -0.000288  -0.000385
    31  H   -0.000187   0.000421   0.000011  -0.000036  -0.000008   0.000415
    32  H    0.000009  -0.000001   0.000000   0.000000  -0.000003   0.000000
    33  H    0.000001  -0.000003   0.000000   0.000000  -0.000003   0.000000
    34  H    0.000000   0.000000   0.000000   0.000000   0.000000   0.000000
    35  H    0.000000   0.000000   0.000000   0.000000  -0.000001   0.000000
    36  H   -0.000001   0.000000   0.000000   0.000000  -0.000003   0.000000
    37  C    5.062038   0.385290  -0.040250   0.370084   0.362312  -0.053112
    38  C    0.385290   4.757251   0.651466  -0.037613  -0.036069   0.385477
    39  C   -0.040250   0.651466   4.946043  -0.001574  -0.006080  -0.044224
    40  H    0.370084  -0.037613  -0.001574   0.609344  -0.030856  -0.000797
    41  H    0.362312  -0.036069  -0.006080  -0.030856   0.614526   0.005142
    42  H   -0.053112   0.385477  -0.044224  -0.000797   0.005142   0.600856
    43  H    0.004636  -0.024745   0.376026  -0.000214   0.000081  -0.007899
    44  H   -0.012005  -0.034538   0.381822   0.000250   0.005857   0.005590
              43         44
     1  C    0.000006  -0.000062
     2  C   -0.000027  -0.000024
     3  C   -0.000090   0.000129
     4  C    0.000002  -0.000004
     5  C    0.000000  -0.000004
     6  H   -0.000006   0.000385
     7  H    0.000000   0.000000
     8  H    0.000000   0.000000
     9  H    0.000000   0.000000
    10  O    0.000000  -0.000003
    11  O    0.000000   0.000000
    12  C    0.000000   0.000001
    13  C    0.000000   0.000000
    14  C    0.000016   0.000015
    15  O    0.000003  -0.000002
    16  Si   0.000012   0.000015
    17  C    0.000000   0.000000
    18  C    0.000000   0.000000
    19  C    0.000000   0.000000
    20  H    0.000000   0.000000
    21  H    0.000000   0.000000
    22  H    0.000000   0.000000
    23  H    0.000000   0.000000
    24  H    0.000000   0.000000
    25  H    0.000000   0.000000
    26  H    0.000000   0.000000
    27  H    0.000000   0.000000
    28  H    0.000000   0.000000
    29  H    0.000000   0.000001
    30  H    0.000012  -0.000019
    31  H   -0.000002  -0.000001
    32  H    0.000000   0.000000
    33  H    0.000000   0.000000
    34  H    0.000000   0.000000
    35  H    0.000000   0.000000
    36  H    0.000000   0.000000
    37  C    0.004636  -0.012005
    38  C   -0.024745  -0.034538
    39  C    0.376026   0.381822
    40  H   -0.000214   0.000250
    41  H    0.000081   0.005857
    42  H   -0.007899   0.005590
    43  H    0.591154  -0.043649
    44  H   -0.043649   0.595400
 Mulliken charges:
               1
     1  C    0.174617
     2  C   -0.090723
     3  C    0.308401
     4  C   -0.307744
     5  C    0.592104
     6  H    0.114591
     7  H    0.102253
     8  H    0.158626
     9  H    0.140092
    10  O   -0.486084
    11  O   -0.499661
    12  C   -0.186949
    13  C   -0.328468
    14  C   -0.337966
    15  O   -0.649965
    16  Si   0.909822
    17  C   -0.555632
    18  C   -0.549212
    19  C   -0.535353
    20  H    0.119864
    21  H    0.120879
    22  H    0.121288
    23  H    0.119081
    24  H    0.122131
    25  H    0.120564
    26  H    0.123002
    27  H    0.121036
    28  H    0.122571
    29  H    0.108212
    30  H    0.115827
    31  H    0.127836
    32  H    0.107504
    33  H    0.112623
    34  H    0.106671
    35  H    0.125522
    36  H    0.106420
    37  C   -0.229687
    38  C   -0.020056
    39  C   -0.267434
    40  H    0.122797
    41  H    0.109193
    42  H    0.105876
    43  H    0.104685
    44  H    0.100846
 Sum of Mulliken charges =   0.00000
 Mulliken charges with hydrogens summed into heavy atoms:
               1
     1  C    0.289208
     2  C    0.011530
     3  C    0.308401
     4  C   -0.009026
     5  C    0.592104
    10  O   -0.486084
    11  O   -0.499661
    12  C    0.033178
    13  C    0.010145
    14  C    0.013909
    15  O   -0.649965
    16  Si   0.909822
    17  C   -0.189022
    18  C   -0.187182
    19  C   -0.173577
    37  C    0.002304
    38  C    0.085820
    39  C   -0.061903
 Electronic spatial extent (au):  <R**2>=           5691.3258
 Charge=              0.0000 electrons
 Dipole moment (field-independent basis, Debye):
    X=              2.4423    Y=              2.9951    Z=             -2.4763  Tot=              4.5899
 Quadrupole moment (field-independent basis, Debye-Ang):
   XX=           -115.0590   YY=           -126.7958   ZZ=           -121.0967
   XY=            -11.1755   XZ=              7.6537   YZ=              8.4069
 Traceless Quadrupole moment (field-independent basis, Debye-Ang):
   XX=              5.9248   YY=             -5.8119   ZZ=             -0.1129
   XY=            -11.1755   XZ=              7.6537   YZ=              8.4069
 Octapole moment (field-independent basis, Debye-Ang**2):
  XXX=             19.1432  YYY=             27.9858  ZZZ=            -10.5245  XYY=             20.1681
  XXY=             12.9967  XXZ=            -17.6238  XZZ=             -2.0688  YZZ=              6.9782
  YYZ=            -20.8219  XYZ=            -18.3829
 Hexadecapole moment (field-independent basis, Debye-Ang**3):
 XXXX=          -4634.0750 YYYY=          -1807.9722 ZZZZ=          -1150.1176 XXXY=            -51.9979
 XXXZ=             36.0758 YYYX=            -26.0915 YYYZ=             61.5449 ZZZX=             -3.7113
 ZZZY=             -1.1991 XXYY=          -1126.7922 XXZZ=           -991.2489 YYZZ=           -529.4599
 XXYZ=             30.8825 YYXZ=             34.8280 ZZXY=            -33.4591
 N-N= 1.616954463312D+03 E-N=-5.724177381296D+03  KE= 1.055905298200D+03
 1\1\GINC-CPU-E-609\FOpt\RB3LYP\6-31G(d,p)\C14H26O3Si1\KE291\06-Feb-201
 9\0\\# b3lyp/6-31g(d,p) Opt=(maxcycles=25) scrf=(solvent=chloroform)\\
 P_ng_correct1ginp003\\0,1\C,1.0406342109,-0.2822561397,0.7691764203\C,
 -0.4841346431,-0.4634478524,0.7507818781\C,-1.1998607032,0.8415938285,
 1.2030107244\C,-0.7976680529,1.9078474213,0.1702084864\C,0.697900313,2
 .056124422,-0.0344676177\H,1.386913797,-0.2662700023,1.8107634656\H,-0
 .7930752064,-0.6046153211,-0.2945465953\H,-1.2217153686,1.6342147525,-
 0.8030473657\H,-1.1825324629,2.8985695637,0.4247372157\O,1.4894741354,
 0.9917570953,0.2019235062\O,1.2026154012,3.0813581161,-0.442980258\C,1
 .8064955704,-1.3656594553,0.0060841994\C,3.3289454982,-1.2155767732,0.
 0827705541\C,-0.9043971948,-1.7221108796,1.5247848393\O,-2.59858705,0.
 5805886408,1.1489151676\Si,-3.9939333044,1.5032547567,0.9482722518\C,-
 4.0528721866,2.9906504956,2.1096879223\C,-4.1801743931,2.0896790789,-0
 .8364769479\C,-5.3753118842,0.2970667576,1.364831465\H,-3.4495858765,2
 .8582378671,-1.1073144016\H,-4.0733070032,1.2580184253,-1.541153731\H,
 -5.1777783843,2.5204737542,-0.9826048719\H,-6.3559674637,0.7693135584,
 1.2391905802\H,-5.3409422712,-0.5809661479,0.7114791293\H,-5.301707532
 4,-0.0521180225,2.3999604232\H,-3.9422841017,2.6933450674,3.1577535268
 \H,-3.2801437698,3.7334672723,1.8850369272\H,-5.0228075914,3.491945028
 4,2.0086637364\H,-0.6003694281,-2.6267793322,0.9917624897\H,-0.4695371
 246,-1.7511109419,2.5265743251\H,-1.9910373388,-1.7432168666,1.6240078
 769\H,1.4755803578,-1.3491588939,-1.0400293335\H,1.5164759002,-2.33885
 64144,0.4148710427\H,3.822398988,-2.0234164377,-0.4658940889\H,3.65491
 9582,-0.2643953882,-0.3445798857\H,3.6772811718,-1.2560337327,1.120977
 4258\C,-0.82204403,1.3528043928,2.6215906188\C,-1.225524536,0.49126339
 53,3.7870515224\C,-0.4445740361,0.2181505922,4.8338222269\H,-1.3201283
 132,2.3262593214,2.7284707616\H,0.2532663985,1.5604283977,2.669692978\
 H,-2.2454935894,0.1121622763,3.7663611481\H,-0.8012064551,-0.375062565
 2,5.6707588779\H,0.5791679713,0.5809618889,4.8951193837\\Version=ES64L
 -G09RevD.01\State=1-A\HF=-1064.4233808\RMSD=9.805e-09\RMSF=6.557e-06\D
 ipole=-1.2841956,-1.1323665,0.5740792\Quadrupole=-0.5735629,-1.1437818
 ,1.7173447,-10.6316119,5.0880558,4.2788536\PG=C01 [X(C14H26O3Si1)]\\@


 ERROR IS A HARDY PLANT... IT FLOURISHETH IN EVERY SOIL.
            MARTIN FARQUHAR TUPPER
 Job cpu time:       0 days  2 hours 21 minutes 38.3 seconds.
 File lengths (MBytes):  RWF=    371 Int=      0 D2E=      0 Chk=     17 Scr=      1
 Normal termination of Gaussian 09 at Wed Feb  6 11:21:47 2019.
