 Entering Gaussian System, Link 0=/usr/local/Cluster-Apps/gaussian/g09/g09
 Initial command:
 /usr/local/Cluster-Apps/gaussian/g09/l1.exe "/home/ke291/rds/hpc-work/06Feb0927IP1/Gau-371735.inp" -scrdir="/home/ke291/rds/hpc-work/06Feb0927IP1/"
 Entering Link 1 = /usr/local/Cluster-Apps/gaussian/g09/l1.exe PID=    371743.
  
 Copyright (c) 1988,1990,1992,1993,1995,1998,2003,2009,2013,
            Gaussian, Inc.  All Rights Reserved.
  
 This is part of the Gaussian(R) 09 program.  It is based on
 the Gaussian(R) 03 system (copyright 2003, Gaussian, Inc.),
 the Gaussian(R) 98 system (copyright 1998, Gaussian, Inc.),
 the Gaussian(R) 94 system (copyright 1995, Gaussian, Inc.),
 the Gaussian 92(TM) system (copyright 1992, Gaussian, Inc.),
 the Gaussian 90(TM) system (copyright 1990, Gaussian, Inc.),
 the Gaussian 88(TM) system (copyright 1988, Gaussian, Inc.),
 the Gaussian 86(TM) system (copyright 1986, Carnegie Mellon
 University), and the Gaussian 82(TM) system (copyright 1983,
 Carnegie Mellon University). Gaussian is a federally registered
 trademark of Gaussian, Inc.
  
 This software contains proprietary and confidential information,
 including trade secrets, belonging to Gaussian, Inc.
  
 This software is provided under written license and may be
 used, copied, transmitted, or stored only in accord with that
 written license.
  
 The following legend is applicable only to US Government
 contracts under FAR:
  
                    RESTRICTED RIGHTS LEGEND
  
 Use, reproduction and disclosure by the US Government is
 subject to restrictions as set forth in subparagraphs (a)
 and (c) of the Commercial Computer Software - Restricted
 Rights clause in FAR 52.227-19.
  
 Gaussian, Inc.
 340 Quinnipiac St., Bldg. 40, Wallingford CT 06492
  
  
 ---------------------------------------------------------------
 Warning -- This program may not be used in any manner that
 competes with the business of Gaussian, Inc. or will provide
 assistance to any competitor of Gaussian, Inc.  The licensee
 of this program is prohibited from giving any competitor of
 Gaussian, Inc. access to this program.  By using this program,
 the user acknowledges that Gaussian, Inc. is engaged in the
 business of creating and licensing software in the field of
 computational chemistry and represents and warrants to the
 licensee that it is not a competitor of Gaussian, Inc. and that
 it will not use this program in any manner prohibited above.
 ---------------------------------------------------------------
  

 Cite this work as:
 Gaussian 09, Revision D.01,
 M. J. Frisch, G. W. Trucks, H. B. Schlegel, G. E. Scuseria, 
 M. A. Robb, J. R. Cheeseman, G. Scalmani, V. Barone, B. Mennucci, 
 G. A. Petersson, H. Nakatsuji, M. Caricato, X. Li, H. P. Hratchian, 
 A. F. Izmaylov, J. Bloino, G. Zheng, J. L. Sonnenberg, M. Hada, 
 M. Ehara, K. Toyota, R. Fukuda, J. Hasegawa, M. Ishida, T. Nakajima, 
 Y. Honda, O. Kitao, H. Nakai, T. Vreven, J. A. Montgomery, Jr., 
 J. E. Peralta, F. Ogliaro, M. Bearpark, J. J. Heyd, E. Brothers, 
 K. N. Kudin, V. N. Staroverov, T. Keith, R. Kobayashi, J. Normand, 
 K. Raghavachari, A. Rendell, J. C. Burant, S. S. Iyengar, J. Tomasi, 
 M. Cossi, N. Rega, J. M. Millam, M. Klene, J. E. Knox, J. B. Cross, 
 V. Bakken, C. Adamo, J. Jaramillo, R. Gomperts, R. E. Stratmann, 
 O. Yazyev, A. J. Austin, R. Cammi, C. Pomelli, J. W. Ochterski, 
 R. L. Martin, K. Morokuma, V. G. Zakrzewski, G. A. Voth, 
 P. Salvador, J. J. Dannenberg, S. Dapprich, A. D. Daniels, 
 O. Farkas, J. B. Foresman, J. V. Ortiz, J. Cioslowski, 
 and D. J. Fox, Gaussian, Inc., Wallingford CT, 2013.
 
 ******************************************
 Gaussian 09:  ES64L-G09RevD.01 24-Apr-2013
                 6-Feb-2019 
 ******************************************
 %nprocshared=2
 Will use up to    2 processors via shared memory.
 %mem=6000MB
 %chk=/home/ke291/rds/hpc-work/06Feb0927IP1/P_ng_correct1ginp005.chk
 ---------------------------------------------------------------
 # b3lyp/6-31g(d,p) Opt=(maxcycles=25) scrf=(solvent=chloroform)
 ---------------------------------------------------------------
 1/6=25,14=-1,18=20,19=15,26=3,38=1/1,3;
 2/9=110,12=2,17=6,18=5,40=1/2;
 3/5=1,6=6,7=101,11=2,16=1,25=1,30=1,70=2201,71=1,72=7,74=-5/1,2,3;
 4//1;
 5/5=2,38=5,53=7/2;
 6/7=2,8=2,9=2,10=2,28=1/1;
 7//1,2,3,16;
 1/6=25,14=-1,18=20,19=15,26=3/3(2);
 2/9=110/2;
 99//99;
 2/9=110/2;
 3/5=1,6=6,7=101,11=2,16=1,25=1,30=1,70=2205,71=1,72=7,74=-5/1,2,3;
 4/5=5,16=3,69=1/1;
 5/5=2,38=5,53=7/2;
 7//1,2,3,16;
 1/6=25,14=-1,18=20,19=15,26=3/3(-5);
 2/9=110/2;
 6/7=2,8=2,9=2,10=2,19=2,28=1/1;
 99/9=1/99;
 --------------------
 P_ng_correct1ginp005
 --------------------
 Symbolic Z-matrix:
 Charge =  0 Multiplicity = 1
 C                     0.86515  -0.26176   0.40271 
 C                    -0.60356  -0.55753   0.75102 
 C                    -1.09974   0.4989    1.79978 
 C                    -0.33625   1.83493   1.65792 
 C                     0.2069    2.06413   0.27867 
 H                     1.48971  -0.21497   1.30354 
 H                    -1.17776  -0.40556  -0.16924 
 H                    -0.95333   2.68919   1.94827 
 H                     0.54988   1.86135   2.30666 
 O                     0.9056    1.02987  -0.24807 
 O                     0.09392   3.13282  -0.3094 
 C                     1.48852  -1.27563  -0.56839 
 C                     2.92126  -0.91602  -0.9454 
 C                    -0.87656  -2.01168   1.14832 
 O                    -2.53883   0.59206   1.73719 
 Si                   -3.50735   1.44681   0.67485 
 C                    -5.29696   0.8584    0.91944 
 C                    -3.50359   3.29227   1.02832 
 C                    -3.10002   1.17172  -1.13348 
 H                    -3.61923   3.47911   2.09993 
 H                    -2.57472   3.75987   0.69201 
 H                    -4.33074   3.78158   0.50496 
 H                    -2.09513   1.52489  -1.37674 
 H                    -3.16629   0.11035  -1.39016 
 H                    -3.80691   1.71446  -1.76872 
 H                    -5.61333   1.03236   1.95186 
 H                    -5.97043   1.40066   0.24965 
 H                    -5.37448  -0.21125   0.70475 
 H                    -0.73951  -2.6815    0.29284 
 H                    -0.20457  -2.34927   1.94358 
 H                    -1.91104  -2.14051   1.48349 
 H                     0.89415  -1.3228   -1.48885 
 H                     1.49519  -2.27556  -0.12204 
 H                     3.34191  -1.6858   -1.60029 
 H                     2.96837   0.03827  -1.47897 
 H                     3.55389  -0.84556  -0.05489 
 C                    -0.83368  -0.01937   3.26384 
 C                    -1.19733   0.96419   4.35163 
 C                    -0.34122   1.42781   5.27085 
 H                     0.21745  -0.3163    3.3685 
 H                    -1.44346  -0.91043   3.45928 
 H                    -2.23537   1.29294   4.37981 
 H                    -0.6734    2.1282    6.03184 
 H                     0.70001   1.12247   5.29385 
 

 GradGradGradGradGradGradGradGradGradGradGradGradGradGradGradGradGradGrad
 Berny optimization.
 Initialization pass.
                           ----------------------------
                           !    Initial Parameters    !
                           ! (Angstroms and Degrees)  !
 --------------------------                            --------------------------
 ! Name  Definition              Value          Derivative Info.                !
 --------------------------------------------------------------------------------
 ! R1    R(1,2)                  1.5381         estimate D2E/DX2                !
 ! R2    R(1,6)                  1.0972         estimate D2E/DX2                !
 ! R3    R(1,10)                 1.4469         estimate D2E/DX2                !
 ! R4    R(1,12)                 1.5361         estimate D2E/DX2                !
 ! R5    R(2,3)                  1.5691         estimate D2E/DX2                !
 ! R6    R(2,7)                  1.0953         estimate D2E/DX2                !
 ! R7    R(2,14)                 1.532          estimate D2E/DX2                !
 ! R8    R(3,4)                  1.5453         estimate D2E/DX2                !
 ! R9    R(3,15)                 1.4435         estimate D2E/DX2                !
 ! R10   R(3,37)                 1.5757         estimate D2E/DX2                !
 ! R11   R(4,5)                  1.5            estimate D2E/DX2                !
 ! R12   R(4,8)                  1.0931         estimate D2E/DX2                !
 ! R13   R(4,9)                  1.0985         estimate D2E/DX2                !
 ! R14   R(5,10)                 1.3547         estimate D2E/DX2                !
 ! R15   R(5,11)                 1.225          estimate D2E/DX2                !
 ! R16   R(12,13)                1.5245         estimate D2E/DX2                !
 ! R17   R(12,32)                1.0967         estimate D2E/DX2                !
 ! R18   R(12,33)                1.095          estimate D2E/DX2                !
 ! R19   R(13,34)                1.0947         estimate D2E/DX2                !
 ! R20   R(13,35)                1.0943         estimate D2E/DX2                !
 ! R21   R(13,36)                1.0946         estimate D2E/DX2                !
 ! R22   R(14,29)                1.0951         estimate D2E/DX2                !
 ! R23   R(14,30)                1.0945         estimate D2E/DX2                !
 ! R24   R(14,31)                1.095          estimate D2E/DX2                !
 ! R25   R(15,16)                1.6725         estimate D2E/DX2                !
 ! R26   R(16,17)                1.8997         estimate D2E/DX2                !
 ! R27   R(16,18)                1.879          estimate D2E/DX2                !
 ! R28   R(16,19)                1.8739         estimate D2E/DX2                !
 ! R29   R(17,26)                1.0937         estimate D2E/DX2                !
 ! R30   R(17,27)                1.0937         estimate D2E/DX2                !
 ! R31   R(17,28)                1.0937         estimate D2E/DX2                !
 ! R32   R(18,20)                1.0939         estimate D2E/DX2                !
 ! R33   R(18,21)                1.093          estimate D2E/DX2                !
 ! R34   R(18,22)                1.0943         estimate D2E/DX2                !
 ! R35   R(19,23)                1.0926         estimate D2E/DX2                !
 ! R36   R(19,24)                1.094          estimate D2E/DX2                !
 ! R37   R(19,25)                1.0944         estimate D2E/DX2                !
 ! R38   R(37,38)                1.5109         estimate D2E/DX2                !
 ! R39   R(37,40)                1.0973         estimate D2E/DX2                !
 ! R40   R(37,41)                1.0973         estimate D2E/DX2                !
 ! R41   R(38,39)                1.339          estimate D2E/DX2                !
 ! R42   R(38,42)                1.0892         estimate D2E/DX2                !
 ! R43   R(39,43)                1.0863         estimate D2E/DX2                !
 ! R44   R(39,44)                1.0853         estimate D2E/DX2                !
 ! A1    A(2,1,6)              111.4585         estimate D2E/DX2                !
 ! A2    A(2,1,10)             107.47           estimate D2E/DX2                !
 ! A3    A(2,1,12)             113.8117         estimate D2E/DX2                !
 ! A4    A(6,1,10)             108.3798         estimate D2E/DX2                !
 ! A5    A(6,1,12)             108.4333         estimate D2E/DX2                !
 ! A6    A(10,1,12)            107.0688         estimate D2E/DX2                !
 ! A7    A(1,2,3)              108.8943         estimate D2E/DX2                !
 ! A8    A(1,2,7)              106.4772         estimate D2E/DX2                !
 ! A9    A(1,2,14)             114.2935         estimate D2E/DX2                !
 ! A10   A(3,2,7)              107.6002         estimate D2E/DX2                !
 ! A11   A(3,2,14)             114.1654         estimate D2E/DX2                !
 ! A12   A(7,2,14)             104.8437         estimate D2E/DX2                !
 ! A13   A(2,3,4)              111.3763         estimate D2E/DX2                !
 ! A14   A(2,3,15)             109.252          estimate D2E/DX2                !
 ! A15   A(2,3,37)             110.2534         estimate D2E/DX2                !
 ! A16   A(4,3,15)             115.645          estimate D2E/DX2                !
 ! A17   A(4,3,37)             106.633          estimate D2E/DX2                !
 ! A18   A(15,3,37)            103.2888         estimate D2E/DX2                !
 ! A19   A(3,4,5)              113.2925         estimate D2E/DX2                !
 ! A20   A(3,4,8)              111.8617         estimate D2E/DX2                !
 ! A21   A(3,4,9)              111.415          estimate D2E/DX2                !
 ! A22   A(5,4,8)              109.2229         estimate D2E/DX2                !
 ! A23   A(5,4,9)              104.3153         estimate D2E/DX2                !
 ! A24   A(8,4,9)              106.2431         estimate D2E/DX2                !
 ! A25   A(4,5,10)             115.3169         estimate D2E/DX2                !
 ! A26   A(4,5,11)             122.7733         estimate D2E/DX2                !
 ! A27   A(10,5,11)            121.7981         estimate D2E/DX2                !
 ! A28   A(1,10,5)             119.4864         estimate D2E/DX2                !
 ! A29   A(1,12,13)            112.4594         estimate D2E/DX2                !
 ! A30   A(1,12,32)            109.8187         estimate D2E/DX2                !
 ! A31   A(1,12,33)            110.3338         estimate D2E/DX2                !
 ! A32   A(13,12,32)           108.1753         estimate D2E/DX2                !
 ! A33   A(13,12,33)           108.0875         estimate D2E/DX2                !
 ! A34   A(32,12,33)           107.8264         estimate D2E/DX2                !
 ! A35   A(12,13,34)           110.0716         estimate D2E/DX2                !
 ! A36   A(12,13,35)           111.514          estimate D2E/DX2                !
 ! A37   A(12,13,36)           110.9251         estimate D2E/DX2                !
 ! A38   A(34,13,35)           107.7561         estimate D2E/DX2                !
 ! A39   A(34,13,36)           108.0511         estimate D2E/DX2                !
 ! A40   A(35,13,36)           108.3995         estimate D2E/DX2                !
 ! A41   A(2,14,29)            110.8344         estimate D2E/DX2                !
 ! A42   A(2,14,30)            111.8262         estimate D2E/DX2                !
 ! A43   A(2,14,31)            111.0634         estimate D2E/DX2                !
 ! A44   A(29,14,30)           107.5839         estimate D2E/DX2                !
 ! A45   A(29,14,31)           106.5814         estimate D2E/DX2                !
 ! A46   A(30,14,31)           108.7437         estimate D2E/DX2                !
 ! A47   A(3,15,16)            129.633          estimate D2E/DX2                !
 ! A48   A(15,16,17)           107.786          estimate D2E/DX2                !
 ! A49   A(15,16,18)           112.414          estimate D2E/DX2                !
 ! A50   A(15,16,19)           114.3337         estimate D2E/DX2                !
 ! A51   A(17,16,18)           106.3721         estimate D2E/DX2                !
 ! A52   A(17,16,19)           106.472          estimate D2E/DX2                !
 ! A53   A(18,16,19)           108.9818         estimate D2E/DX2                !
 ! A54   A(16,17,26)           110.168          estimate D2E/DX2                !
 ! A55   A(16,17,27)           110.3451         estimate D2E/DX2                !
 ! A56   A(16,17,28)           110.1468         estimate D2E/DX2                !
 ! A57   A(26,17,27)           108.7291         estimate D2E/DX2                !
 ! A58   A(26,17,28)           108.6826         estimate D2E/DX2                !
 ! A59   A(27,17,28)           108.7248         estimate D2E/DX2                !
 ! A60   A(16,18,20)           110.598          estimate D2E/DX2                !
 ! A61   A(16,18,21)           111.3464         estimate D2E/DX2                !
 ! A62   A(16,18,22)           110.3452         estimate D2E/DX2                !
 ! A63   A(20,18,21)           108.5544         estimate D2E/DX2                !
 ! A64   A(20,18,22)           108.194          estimate D2E/DX2                !
 ! A65   A(21,18,22)           107.6943         estimate D2E/DX2                !
 ! A66   A(16,19,23)           111.5509         estimate D2E/DX2                !
 ! A67   A(16,19,24)           110.8348         estimate D2E/DX2                !
 ! A68   A(16,19,25)           110.2988         estimate D2E/DX2                !
 ! A69   A(23,19,24)           108.4867         estimate D2E/DX2                !
 ! A70   A(23,19,25)           107.7296         estimate D2E/DX2                !
 ! A71   A(24,19,25)           107.807          estimate D2E/DX2                !
 ! A72   A(3,37,38)            114.4678         estimate D2E/DX2                !
 ! A73   A(3,37,40)            109.8394         estimate D2E/DX2                !
 ! A74   A(3,37,41)            109.8018         estimate D2E/DX2                !
 ! A75   A(38,37,40)           109.7574         estimate D2E/DX2                !
 ! A76   A(38,37,41)           105.4642         estimate D2E/DX2                !
 ! A77   A(40,37,41)           107.1944         estimate D2E/DX2                !
 ! A78   A(37,38,39)           124.4556         estimate D2E/DX2                !
 ! A79   A(37,38,42)           116.3892         estimate D2E/DX2                !
 ! A80   A(39,38,42)           119.1483         estimate D2E/DX2                !
 ! A81   A(38,39,43)           120.5749         estimate D2E/DX2                !
 ! A82   A(38,39,44)           122.0422         estimate D2E/DX2                !
 ! A83   A(43,39,44)           117.3822         estimate D2E/DX2                !
 ! D1    D(6,1,2,3)             54.1303         estimate D2E/DX2                !
 ! D2    D(6,1,2,7)            169.8848         estimate D2E/DX2                !
 ! D3    D(6,1,2,14)           -74.862          estimate D2E/DX2                !
 ! D4    D(10,1,2,3)           -64.4827         estimate D2E/DX2                !
 ! D5    D(10,1,2,7)            51.2718         estimate D2E/DX2                !
 ! D6    D(10,1,2,14)          166.525          estimate D2E/DX2                !
 ! D7    D(12,1,2,3)           177.143          estimate D2E/DX2                !
 ! D8    D(12,1,2,7)           -67.1026         estimate D2E/DX2                !
 ! D9    D(12,1,2,14)           48.1506         estimate D2E/DX2                !
 ! D10   D(2,1,10,5)            45.5492         estimate D2E/DX2                !
 ! D11   D(6,1,10,5)           -75.0284         estimate D2E/DX2                !
 ! D12   D(12,1,10,5)          168.1914         estimate D2E/DX2                !
 ! D13   D(2,1,12,13)          177.2096         estimate D2E/DX2                !
 ! D14   D(2,1,12,32)           56.6952         estimate D2E/DX2                !
 ! D15   D(2,1,12,33)          -62.0286         estimate D2E/DX2                !
 ! D16   D(6,1,12,13)          -58.1395         estimate D2E/DX2                !
 ! D17   D(6,1,12,32)         -178.654          estimate D2E/DX2                !
 ! D18   D(6,1,12,33)           62.6223         estimate D2E/DX2                !
 ! D19   D(10,1,12,13)          58.6054         estimate D2E/DX2                !
 ! D20   D(10,1,12,32)         -61.909          estimate D2E/DX2                !
 ! D21   D(10,1,12,33)         179.3672         estimate D2E/DX2                !
 ! D22   D(1,2,3,4)             28.1483         estimate D2E/DX2                !
 ! D23   D(1,2,3,15)           157.1249         estimate D2E/DX2                !
 ! D24   D(1,2,3,37)           -90.0206         estimate D2E/DX2                !
 ! D25   D(7,2,3,4)            -86.8811         estimate D2E/DX2                !
 ! D26   D(7,2,3,15)            42.0955         estimate D2E/DX2                !
 ! D27   D(7,2,3,37)           154.95           estimate D2E/DX2                !
 ! D28   D(14,2,3,4)           157.2118         estimate D2E/DX2                !
 ! D29   D(14,2,3,15)          -73.8116         estimate D2E/DX2                !
 ! D30   D(14,2,3,37)           39.0428         estimate D2E/DX2                !
 ! D31   D(1,2,14,29)          -67.5643         estimate D2E/DX2                !
 ! D32   D(1,2,14,30)           52.4761         estimate D2E/DX2                !
 ! D33   D(1,2,14,31)          174.1564         estimate D2E/DX2                !
 ! D34   D(3,2,14,29)          166.1408         estimate D2E/DX2                !
 ! D35   D(3,2,14,30)          -73.8188         estimate D2E/DX2                !
 ! D36   D(3,2,14,31)           47.8616         estimate D2E/DX2                !
 ! D37   D(7,2,14,29)           48.6392         estimate D2E/DX2                !
 ! D38   D(7,2,14,30)          168.6796         estimate D2E/DX2                !
 ! D39   D(7,2,14,31)          -69.64           estimate D2E/DX2                !
 ! D40   D(2,3,4,5)             25.7551         estimate D2E/DX2                !
 ! D41   D(2,3,4,8)            149.7394         estimate D2E/DX2                !
 ! D42   D(2,3,4,9)            -91.5036         estimate D2E/DX2                !
 ! D43   D(15,3,4,5)           -99.7439         estimate D2E/DX2                !
 ! D44   D(15,3,4,8)            24.2404         estimate D2E/DX2                !
 ! D45   D(15,3,4,9)           142.9974         estimate D2E/DX2                !
 ! D46   D(37,3,4,5)           146.0807         estimate D2E/DX2                !
 ! D47   D(37,3,4,8)           -89.935          estimate D2E/DX2                !
 ! D48   D(37,3,4,9)            28.822          estimate D2E/DX2                !
 ! D49   D(2,3,15,16)          -81.4845         estimate D2E/DX2                !
 ! D50   D(4,3,15,16)           45.0953         estimate D2E/DX2                !
 ! D51   D(37,3,15,16)         161.1764         estimate D2E/DX2                !
 ! D52   D(2,3,37,38)          176.3547         estimate D2E/DX2                !
 ! D53   D(2,3,37,40)           52.3676         estimate D2E/DX2                !
 ! D54   D(2,3,37,41)          -65.2731         estimate D2E/DX2                !
 ! D55   D(4,3,37,38)           55.3098         estimate D2E/DX2                !
 ! D56   D(4,3,37,40)          -68.6773         estimate D2E/DX2                !
 ! D57   D(4,3,37,41)          173.682          estimate D2E/DX2                !
 ! D58   D(15,3,37,38)         -67.0124         estimate D2E/DX2                !
 ! D59   D(15,3,37,40)         169.0005         estimate D2E/DX2                !
 ! D60   D(15,3,37,41)          51.3598         estimate D2E/DX2                !
 ! D61   D(3,4,5,10)           -49.5545         estimate D2E/DX2                !
 ! D62   D(3,4,5,11)           134.2276         estimate D2E/DX2                !
 ! D63   D(8,4,5,10)          -174.9672         estimate D2E/DX2                !
 ! D64   D(8,4,5,11)             8.815          estimate D2E/DX2                !
 ! D65   D(9,4,5,10)            71.7856         estimate D2E/DX2                !
 ! D66   D(9,4,5,11)          -104.4322         estimate D2E/DX2                !
 ! D67   D(4,5,10,1)            11.6707         estimate D2E/DX2                !
 ! D68   D(11,5,10,1)         -172.071          estimate D2E/DX2                !
 ! D69   D(1,12,13,34)         177.4323         estimate D2E/DX2                !
 ! D70   D(1,12,13,35)         -63.0276         estimate D2E/DX2                !
 ! D71   D(1,12,13,36)          57.9005         estimate D2E/DX2                !
 ! D72   D(32,12,13,34)        -61.1111         estimate D2E/DX2                !
 ! D73   D(32,12,13,35)         58.429          estimate D2E/DX2                !
 ! D74   D(32,12,13,36)        179.3571         estimate D2E/DX2                !
 ! D75   D(33,12,13,34)         55.3882         estimate D2E/DX2                !
 ! D76   D(33,12,13,35)        174.9283         estimate D2E/DX2                !
 ! D77   D(33,12,13,36)        -64.1436         estimate D2E/DX2                !
 ! D78   D(3,15,16,17)         168.5705         estimate D2E/DX2                !
 ! D79   D(3,15,16,18)         -74.5235         estimate D2E/DX2                !
 ! D80   D(3,15,16,19)          50.4138         estimate D2E/DX2                !
 ! D81   D(15,16,17,26)         59.3171         estimate D2E/DX2                !
 ! D82   D(15,16,17,27)        179.3848         estimate D2E/DX2                !
 ! D83   D(15,16,17,28)        -60.5665         estimate D2E/DX2                !
 ! D84   D(18,16,17,26)        -61.4537         estimate D2E/DX2                !
 ! D85   D(18,16,17,27)         58.614          estimate D2E/DX2                !
 ! D86   D(18,16,17,28)        178.6627         estimate D2E/DX2                !
 ! D87   D(19,16,17,26)       -177.5825         estimate D2E/DX2                !
 ! D88   D(19,16,17,27)        -57.5149         estimate D2E/DX2                !
 ! D89   D(19,16,17,28)         62.5338         estimate D2E/DX2                !
 ! D90   D(15,16,18,20)        -45.3748         estimate D2E/DX2                !
 ! D91   D(15,16,18,21)         75.4128         estimate D2E/DX2                !
 ! D92   D(15,16,18,22)       -165.0522         estimate D2E/DX2                !
 ! D93   D(17,16,18,20)         72.3719         estimate D2E/DX2                !
 ! D94   D(17,16,18,21)       -166.8405         estimate D2E/DX2                !
 ! D95   D(17,16,18,22)        -47.3055         estimate D2E/DX2                !
 ! D96   D(19,16,18,20)       -173.1982         estimate D2E/DX2                !
 ! D97   D(19,16,18,21)        -52.4105         estimate D2E/DX2                !
 ! D98   D(19,16,18,22)         67.1244         estimate D2E/DX2                !
 ! D99   D(15,16,19,23)        -63.5592         estimate D2E/DX2                !
 ! D100  D(15,16,19,24)         57.4426         estimate D2E/DX2                !
 ! D101  D(15,16,19,25)        176.7594         estimate D2E/DX2                !
 ! D102  D(17,16,19,23)        177.5391         estimate D2E/DX2                !
 ! D103  D(17,16,19,24)        -61.4591         estimate D2E/DX2                !
 ! D104  D(17,16,19,25)         57.8577         estimate D2E/DX2                !
 ! D105  D(18,16,19,23)         63.1741         estimate D2E/DX2                !
 ! D106  D(18,16,19,24)       -175.8241         estimate D2E/DX2                !
 ! D107  D(18,16,19,25)        -56.5073         estimate D2E/DX2                !
 ! D108  D(3,37,38,39)        -121.991          estimate D2E/DX2                !
 ! D109  D(3,37,38,42)          58.9746         estimate D2E/DX2                !
 ! D110  D(40,37,38,39)          2.0398         estimate D2E/DX2                !
 ! D111  D(40,37,38,42)       -176.9945         estimate D2E/DX2                !
 ! D112  D(41,37,38,39)        117.2077         estimate D2E/DX2                !
 ! D113  D(41,37,38,42)        -61.8267         estimate D2E/DX2                !
 ! D114  D(37,38,39,43)       -179.4304         estimate D2E/DX2                !
 ! D115  D(37,38,39,44)          0.247          estimate D2E/DX2                !
 ! D116  D(42,38,39,43)         -0.4209         estimate D2E/DX2                !
 ! D117  D(42,38,39,44)        179.2565         estimate D2E/DX2                !
 --------------------------------------------------------------------------------
 Trust Radius=3.00D-01 FncErr=1.00D-07 GrdErr=1.00D-06
 Number of steps in this run=     25 maximum allowed number of steps=    264.
 GradGradGradGradGradGradGradGradGradGradGradGradGradGradGradGradGradGrad

                          Input orientation:                          
 ---------------------------------------------------------------------
 Center     Atomic      Atomic             Coordinates (Angstroms)
 Number     Number       Type             X           Y           Z
 ---------------------------------------------------------------------
      1          6           0        0.865148   -0.261757    0.402712
      2          6           0       -0.603559   -0.557532    0.751016
      3          6           0       -1.099739    0.498903    1.799780
      4          6           0       -0.336248    1.834927    1.657921
      5          6           0        0.206900    2.064125    0.278669
      6          1           0        1.489706   -0.214970    1.303544
      7          1           0       -1.177755   -0.405555   -0.169242
      8          1           0       -0.953330    2.689194    1.948265
      9          1           0        0.549882    1.861352    2.306663
     10          8           0        0.905601    1.029873   -0.248069
     11          8           0        0.093917    3.132822   -0.309397
     12          6           0        1.488521   -1.275634   -0.568391
     13          6           0        2.921256   -0.916022   -0.945401
     14          6           0       -0.876563   -2.011682    1.148324
     15          8           0       -2.538827    0.592060    1.737185
     16         14           0       -3.507348    1.446807    0.674849
     17          6           0       -5.296955    0.858403    0.919437
     18          6           0       -3.503590    3.292274    1.028315
     19          6           0       -3.100021    1.171718   -1.133477
     20          1           0       -3.619231    3.479105    2.099930
     21          1           0       -2.574721    3.759867    0.692012
     22          1           0       -4.330741    3.781576    0.504960
     23          1           0       -2.095126    1.524887   -1.376743
     24          1           0       -3.166291    0.110353   -1.390160
     25          1           0       -3.806909    1.714457   -1.768721
     26          1           0       -5.613326    1.032358    1.951855
     27          1           0       -5.970429    1.400662    0.249650
     28          1           0       -5.374485   -0.211249    0.704751
     29          1           0       -0.739509   -2.681495    0.292840
     30          1           0       -0.204574   -2.349271    1.943580
     31          1           0       -1.911040   -2.140507    1.483488
     32          1           0        0.894146   -1.322802   -1.488849
     33          1           0        1.495192   -2.275561   -0.122041
     34          1           0        3.341909   -1.685803   -1.600289
     35          1           0        2.968368    0.038266   -1.478974
     36          1           0        3.553887   -0.845557   -0.054890
     37          6           0       -0.833679   -0.019374    3.263835
     38          6           0       -1.197326    0.964188    4.351629
     39          6           0       -0.341218    1.427807    5.270853
     40          1           0        0.217446   -0.316300    3.368498
     41          1           0       -1.443459   -0.910434    3.459284
     42          1           0       -2.235368    1.292937    4.379806
     43          1           0       -0.673403    2.128198    6.031843
     44          1           0        0.700007    1.122474    5.293854
 ---------------------------------------------------------------------
                    Distance matrix (angstroms):
                    1          2          3          4          5
     1  C    0.000000
     2  C    1.538148   0.000000
     3  C    2.528079   1.569126   0.000000
     4  C    2.723047   2.572507   1.545316   0.000000
     5  C    2.420414   2.784428   2.543817   1.499959   0.000000
     6  H    1.097160   2.191893   2.731500   2.767990   2.808956
     7  H    2.126326   1.095296   2.168220   3.011049   2.866568
     8  H    3.795222   3.478071   2.200195   1.093097   2.127063
     9  H    2.869149   3.098623   2.198738   1.098540   2.066764
    10  O    1.446880   2.407403   2.914962   2.413110   1.354737
    11  O    3.553176   3.902520   3.579242   2.395812   1.225031
    12  C    1.536093   2.575520   3.931451   4.238141   3.676147
    13  C    2.544219   3.928189   5.070151   4.995632   4.212761
    14  C    2.579095   1.531972   2.603313   3.917656   4.306088
    15  O    3.754580   2.457510   1.443458   2.530288   3.439951
    16  Si   4.702337   3.529188   2.821449   3.342595   3.785984
    17  C    6.284368   4.905222   4.303588   5.109557   5.670694
    18  C    5.666426   4.827844   3.765180   3.542925   3.979705
    19  C    4.487459   3.574065   3.613558   3.983741   3.704899
    20  H    6.081468   5.216156   3.914018   3.698198   4.467487
    21  H    5.299986   4.746461   3.746546   3.106306   3.283871
    22  H    6.584547   5.725407   4.784545   4.590723   4.857060
    23  H    3.888673   3.329955   3.483351   3.521216   2.886259
    24  H    4.427794   3.405628   3.820645   4.502677   4.240358
    25  H    5.518030   4.666097   4.641179   4.878717   4.519373
    26  H    6.785662   5.391431   4.547545   5.345846   6.143218
    27  H    7.036489   5.734909   5.190346   5.823728   6.212924
    28  H    6.247143   4.783700   4.469548   5.520797   6.042411
    29  H    2.905534   2.177068   3.537734   4.735413   4.839091
    30  H    2.806474   2.189001   2.988995   4.196004   4.734903
    31  H    3.522073   2.179870   2.779341   4.279541   4.859649
    32  H    2.169023   2.801027   4.255498   4.624639   3.881714
    33  H    2.174334   2.849317   4.257313   4.839272   4.544573
    34  H    3.489164   4.729519   6.005135   6.044858   5.236480
    35  H    2.838008   4.252822   5.245180   4.897815   3.849561
    36  H    2.789183   4.244620   5.186869   5.025124   4.447452
    37  C    3.336283   2.580083   1.575708   2.502964   3.786158
    38  C    4.620680   3.953809   2.595756   2.959004   4.446427
    39  C    5.292329   4.943614   3.672406   3.635801   5.062335
    40  H    3.036178   2.753807   2.204633   2.803646   3.900459
    41  H    3.884981   2.857392   2.204161   3.465232   4.657037
    42  H    5.277078   4.388069   2.928596   3.362896   4.835155
    43  H    6.306040   5.924961   4.554857   4.396689   5.820485
    44  H    5.085925   5.015883   3.979507   3.847262   5.126592
                    6          7          8          9         10
     6  H    0.000000
     7  H    3.052994   0.000000
     8  H    3.849449   3.756551   0.000000
     9  H    2.490106   3.775408   1.753117   0.000000
    10  O    2.073238   2.531213   3.321574   2.710083   0.000000
    11  O    3.969574   3.762566   2.527958   2.944199   2.254991
    12  C    2.151546   2.832911   5.293019   4.357483   2.399534
    13  C    2.756549   4.202962   6.031857   4.890106   2.887152
    14  C    2.975146   2.099129   4.769071   4.286827   3.791712
    15  O    4.131394   2.546020   2.637485   3.387555   3.999625
    16  Si   5.303519   3.093661   3.112575   4.392696   4.527663
    17  C    6.881747   4.444167   4.824662   6.092274   6.313808
    18  C    6.108152   4.529635   2.777380   4.484679   5.117478
    19  C    5.378436   2.666954   4.050697   5.062801   4.104762
    20  H    6.354656   5.118645   2.784599   4.476758   5.655611
    21  H    5.717768   4.477054   2.313746   3.996824   4.522086
    22  H    7.105471   5.284689   3.831884   5.545618   5.963070
    23  H    4.802297   2.454839   3.703375   4.547170   3.243965
    24  H    5.388895   2.389786   4.763685   5.526521   4.327839
    25  H    6.419940   3.737009   4.786336   5.967576   4.998879
    26  H    7.240801   5.122591   4.945774   6.228824   6.880122
    27  H    7.705490   5.138834   5.451320   6.852590   6.903984
    28  H    6.890260   4.291172   5.431897   6.477648   6.472073
    29  H    3.474862   2.363362   5.624096   5.133758   4.095512
    30  H    2.799191   3.031358   5.093799   4.293062   4.177850
    31  H    3.912179   2.505850   4.945628   4.769552   4.580728
    32  H    3.062587   2.622113   5.596698   4.966212   2.659839
    33  H    2.505665   3.262483   5.910179   4.889403   3.359969
    34  H    3.745164   4.910631   7.083919   5.970092   3.890886
    35  H    3.161167   4.370665   5.844066   4.848068   2.598734
    36  H    2.550260   4.753432   6.068122   4.682770   3.250842
    37  C    3.046164   3.471821   3.013533   2.523400   4.057029
    38  C    4.231002   4.723860   2.968390   2.835406   5.058047
    39  C    4.668034   5.801348   3.606296   3.125451   5.671985
    40  H    2.427540   3.803966   3.524312   2.445440   3.919859
    41  H    3.705987   3.673105   3.934555   3.603435   4.798681
    42  H    5.060963   4.969634   3.083107   3.518328   5.599296
    43  H    5.703182   6.717718   4.131426   3.929962   6.567866
    44  H    4.281934   5.975473   4.047357   3.080875   5.546508
                   11         12         13         14         15
    11  O    0.000000
    12  C    4.631035   0.000000
    13  C    4.979105   1.524528   0.000000
    14  C    5.434400   3.013719   4.472984   0.000000
    15  O    4.192292   5.002349   6.267622   3.144734   0.000000
    16  Si   4.096400   5.823748   7.038119   4.371082   1.672478
    17  C    5.978672   7.267079   8.611922   5.275381   2.889104
    18  C    3.841478   6.952440   7.929940   5.920103   2.953713
    19  C    3.837483   5.231020   6.375720   4.503822   2.981886
    20  H    4.439846   7.471051   8.448027   6.211000   3.103850
    21  H    2.918499   6.592027   7.399380   6.033468   3.335967
    22  H    4.545510   7.784039   8.761417   6.775478   3.860356
    23  H    2.918320   4.619402   5.595371   4.513112   3.280790
    24  H    4.575186   4.925803   6.189466   4.023654   3.225839
    25  H    4.399753   6.198630   7.270865   5.565985   3.893480
    26  H    6.488284   7.881288   9.221137   5.687597   3.113276
    27  H    6.331604   7.966661   9.265918   6.196707   3.826551
    28  H    6.489586   7.060783   8.487581   4.865143   3.122848
    29  H    5.904538   2.771693   4.248686   1.095119   4.004977
    30  H    5.934505   3.213917   4.491239   1.094517   3.760687
    31  H    5.919653   4.063893   5.545264   1.095022   2.815209
    32  H    4.678040   1.096699   2.137751   3.250330   5.085204
    33  H    5.590106   1.095046   2.135398   2.703457   5.287086
    34  H    5.952731   2.160578   1.094710   5.045451   7.135156
    35  H    4.382540   2.178403   1.094342   5.088072   6.401528
    36  H    5.278605   2.171264   1.094622   4.736714   6.511485
    37  C    4.854355   4.653682   5.711496   2.906289   2.368975
    38  C    5.300514   6.036321   6.968245   4.384045   2.961996
    39  C    5.851120   6.689791   7.401289   5.395547   4.244381
    40  H    5.043671   4.246769   5.126400   3.000058   3.329165
    41  H    5.737107   4.995202   6.200969   2.621956   2.534353
    42  H    5.549718   6.704443   7.734863   4.817607   2.750775
    43  H    6.466017   7.734538   8.418479   6.405360   4.927841
    44  H    5.983750   6.382679   6.929482   5.430831   4.839554
                   16         17         18         19         20
    16  Si   0.000000
    17  C    1.899667   0.000000
    18  C    1.879016   3.025184   0.000000
    19  C    1.873935   3.023101   3.054991   0.000000
    20  H    2.484675   3.328123   1.093909   4.006062   0.000000
    21  H    2.494060   3.985069   1.092950   3.210431   1.775405
    22  H    2.481529   3.106493   1.094301   3.318208   1.772474
    23  H    2.491886   3.996042   3.300262   1.092575   4.269557
    24  H    2.483282   3.230100   4.010912   1.093971   4.871794
    25  H    2.476370   3.190495   3.225666   1.094436   4.256250
    26  H    2.497530   1.093727   3.226629   3.981884   3.159891
    27  H    2.499938   1.093721   3.204654   3.194479   3.643020
    28  H    2.497247   1.093735   3.984923   3.234945   4.318119
    29  H    4.984951   5.804637   6.623215   4.738528   7.036431
    30  H    5.189239   6.104948   6.599110   5.499932   6.756796
    31  H    4.008855   4.558074   5.679657   4.385546   5.905756
    32  H    5.632537   6.991940   6.853840   4.722530   7.503880
    33  H    6.286212   7.552461   7.570464   5.832900   8.013155
    34  H    7.867771   9.351576   8.862938   7.062705   9.424721
    35  H    6.968345   8.645263   7.665592   6.182995   8.248902
    36  H    7.459792   9.065881   8.252452   7.036138   8.648675
    37  C    4.000130   5.117375   4.805516   5.088355   4.620966
    38  C    4.368963   5.347718   4.667253   5.809450   4.154585
    39  C    5.581039   6.619545   5.610344   6.977967   5.000794
    40  H    4.923249   6.147068   5.687211   5.786844   5.543866
    41  H    4.191575   4.942574   5.274135   5.307825   5.084278
    42  H    3.920244   4.640721   4.103441   5.581990   3.448513
    43  H    6.098600   7.009016   5.865179   7.625296   5.095370
    44  H    6.256376   7.427571   6.369700   7.466808   5.866061
                   21         22         23         24         25
    21  H    0.000000
    22  H    1.766088   0.000000
    23  H    3.083001   3.692076   0.000000
    24  H    4.243153   4.292470   1.774396   0.000000
    25  H    3.428877   3.117211   1.766291   1.768290   0.000000
    26  H    4.273129   3.361061   4.868252   4.243482   4.191788
    27  H    4.158409   2.902156   4.204588   3.495292   2.975417
    28  H    4.858868   4.131824   4.254525   3.060752   3.504811
    29  H    6.709582   7.396839   4.724283   4.064010   5.743115
    30  H    6.671251   7.528756   5.441308   5.092675   6.578137
    31  H    5.990102   6.471749   4.652948   3.860036   5.388129
    32  H    6.528608   7.571618   4.130090   4.307066   5.603855
    33  H    7.324839   8.427546   5.376622   5.387962   6.836964
    34  H    8.361607   9.653697   6.318216   6.754776   7.918064
    35  H    7.020636   8.439512   5.278207   6.135725   6.985553
    36  H    7.702443   9.159211   6.267188   6.917912   7.979487
    37  C    4.891642   5.855600   5.050837   5.207454   6.096957
    38  C    4.806853   5.705508   5.825348   6.129763   6.695634
    39  C    5.602930   6.646071   6.875765   7.354306   7.851674
    40  H    5.619156   6.758583   5.590641   5.854617   6.834503
    41  H    5.545201   6.251351   5.453679   5.246643   6.309357
    42  H    4.449801   5.059481   5.762927   5.963022   6.360173
    43  H    5.898402   6.830536   7.567855   8.085315   8.416581
    44  H    6.233509   7.437255   7.243726   7.787727   8.398970
                   26         27         28         29         30
    26  H    0.000000
    27  H    1.777828   0.000000
    28  H    1.777322   1.777786   0.000000
    29  H    6.348159   6.635390   5.268281   0.000000
    30  H    6.378878   7.083536   5.730080   1.766768   0.000000
    31  H    4.898302   5.526380   4.040287   1.755789   1.779689
    32  H    7.728675   7.586964   6.733733   2.772957   3.747318
    33  H    8.110142   8.329962   7.220625   2.308852   2.676084
    34  H   10.010113   9.983395   9.135811   4.607962   5.057345
    35  H    9.295390   9.205778   8.627520   4.927959   5.242306
    36  H    9.570339   9.790344   8.983052   4.682396   4.514540
    37  C    5.066799   6.122746   5.215807   3.990309   2.750866
    38  C    5.026392   6.308665   5.668336   5.474885   4.214649
    39  C    6.242375   7.543291   6.990677   6.467272   5.035448
    40  H    6.150094   7.138975   6.194859   3.996196   2.518226
    41  H    4.840927   6.011354   4.850699   3.695750   2.429495
    42  H    4.168147   5.569603   5.061883   5.893810   4.829596
    43  H    6.500001   7.875376   7.480046   7.488236   6.081235
    44  H    7.143896   8.367562   7.729045   6.446125   4.908729
                   31         32         33         34         35
    31  H    0.000000
    32  H    4.168033   0.000000
    33  H    3.768074   1.771206   0.000000
    34  H    6.108184   2.477041   2.437908   0.000000
    35  H    6.109980   2.480927   3.060279   1.768238   0.000000
    36  H    5.823137   3.059121   2.507518   1.771780   1.775385
    37  C    2.971455   5.222290   4.688089   6.623611   6.078908
    38  C    4.286578   6.611790   6.144864   7.940556   7.225391
    39  C    5.435195   7.401726   6.794898   8.394795   7.644890
    40  H    3.378083   5.006475   4.201809   6.027160   5.584915
    41  H    2.373917   5.488029   4.829610   7.007155   6.689592
    42  H    4.503597   7.146822   6.849663   8.702899   7.935891
    43  H    6.359333   8.421842   7.871860   9.429675   8.604806
    44  H    5.655396   7.212636   6.442894   7.899068   7.224415
                   36         37         38         39         40
    36  H    0.000000
    37  C    5.563025   0.000000
    38  C    6.728047   1.510937   0.000000
    39  C    6.978794   2.522890   1.338968   0.000000
    40  H    4.809526   1.097262   2.146573   2.640638   0.000000
    41  H    6.109590   1.097278   2.090710   3.156594   1.766308
    42  H    7.599681   2.220874   1.089220   2.097608   3.103012
    43  H    7.985081   3.507082   2.110103   1.086278   3.723250
    44  H    6.373919   2.788725   2.124315   1.085314   2.451516
                   41         42         43         44
    41  H    0.000000
    42  H    2.515815   0.000000
    43  H    4.055161   2.422111   0.000000
    44  H    3.477472   3.079118   1.855361   0.000000
 Stoichiometry    C14H26O3Si
 Framework group  C1[X(C14H26O3Si)]
 Deg. of freedom   126
 Full point group                 C1      NOp   1
 Largest Abelian subgroup         C1      NOp   1
 Largest concise Abelian subgroup C1      NOp   1
                         Standard orientation:                         
 ---------------------------------------------------------------------
 Center     Atomic      Atomic             Coordinates (Angstroms)
 Number     Number       Type             X           Y           Z
 ---------------------------------------------------------------------
      1          6           0       -2.293455   -0.118891   -0.185684
      2          6           0       -1.001066   -0.107231   -1.019647
      3          6           0        0.085725    0.732598   -0.260879
      4          6           0       -0.139336    0.695354    1.267506
      5          6           0       -0.871565   -0.529494    1.729529
      6          1           0       -2.621763    0.898749    0.060048
      7          1           0       -0.649076   -1.143577   -1.061638
      8          1           0        0.800090    0.782706    1.819512
      9          1           0       -0.770224    1.530748    1.600506
     10          8           0       -2.007313   -0.816621    1.049127
     11          8           0       -0.515168   -1.189211    2.698267
     12          6           0       -3.460151   -0.856081   -0.860184
     13          6           0       -4.703481   -0.907754    0.020525
     14          6           0       -1.199078    0.299610   -2.483275
     15          8           0        1.397291    0.329649   -0.709207
     16         14           0        2.329395   -0.978003   -0.241860
     17          6           0        3.776861   -1.124953   -1.463327
     18          6           0        3.093210   -0.742156    1.458629
     19          6           0        1.430069   -2.621509   -0.283486
     20          1           0        3.522068    0.259816    1.552282
     21          1           0        2.351936   -0.878553    2.250114
     22          1           0        3.891896   -1.472263    1.621546
     23          1           0        0.600420   -2.643125    0.427103
     24          1           0        1.035590   -2.823971   -1.283571
     25          1           0        2.113830   -3.435187   -0.022356
     26          1           0        4.371815   -0.207237   -1.455160
     27          1           0        4.422196   -1.964307   -1.189003
     28          1           0        3.399455   -1.288808   -2.476724
     29          1           0       -1.774239   -0.459321   -3.024107
     30          1           0       -1.737393    1.248397   -2.572651
     31          1           0       -0.237922    0.390352   -3.000014
     32          1           0       -3.163770   -1.885681   -1.094343
     33          1           0       -3.729499   -0.362799   -1.799999
     34          1           0       -5.522346   -1.399796   -0.514025
     35          1           0       -4.520136   -1.470426    0.941053
     36          1           0       -5.032741    0.100371    0.291574
     37          6           0        0.004726    2.246028   -0.691955
     38          6           0        0.954885    3.159014    0.047357
     39          6           0        0.577296    4.224278    0.765324
     40          1           0       -1.023860    2.610951   -0.578715
     41          1           0        0.269205    2.345193   -1.752255
     42          1           0        2.015223    2.924207   -0.036013
     43          1           0        1.316398    4.844054    1.264930
     44          1           0       -0.465014    4.508126    0.869853
 ---------------------------------------------------------------------
 Rotational constants (GHZ):      0.4444960      0.2927834      0.2509604
 Standard basis: 6-31G(d,p) (6D, 7F)
 There are   404 symmetry adapted cartesian basis functions of A   symmetry.
 There are   404 symmetry adapted basis functions of A   symmetry.
   404 basis functions,   710 primitive gaussians,   404 cartesian basis functions
    74 alpha electrons       74 beta electrons
       nuclear repulsion energy      1639.3984843127 Hartrees.
 NAtoms=   44 NActive=   44 NUniq=   44 SFac= 1.00D+00 NAtFMM=   60 NAOKFM=F Big=F
 Integral buffers will be    131072 words long.
 Raffenetti 2 integral format.
 Two-electron integral symmetry is turned on.
 ------------------------------------------------------------------------------
 Polarizable Continuum Model (PCM)
 =================================
 Model                : PCM (using non-symmetric T matrix).
 Atomic radii         : UFF (Universal Force Field).
 Polarization charges : Total charges.
 Charge compensation  : None.
 Solution method      : On-the-fly selection.
 Cavity type          : Scaled VdW (van der Waals Surface) (Alpha=1.100).
 Cavity algorithm     : GePol (No added spheres)
                        Default sphere list used, NSphG=   44.
                        Lebedev-Laikov grids with approx.  5.0 points / Ang**2.
                        Smoothing algorithm: Karplus/York (Gamma=1.0000).
                        Polarization charges: spherical gaussians, with
                                              point-specific exponents (IZeta= 3).
                        Self-potential: point-specific (ISelfS= 7).
                        Self-field    : sphere-specific E.n sum rule (ISelfD= 2).
 1st derivatives      : Analytical E(r).r(x)/FMM algorithm (CHGder, D1EAlg=3).
                        Cavity 1st derivative terms included.
 Solvent              : Chloroform, Eps=   4.711300 Eps(inf)=   2.090627
 ------------------------------------------------------------------------------
 One-electron integrals computed using PRISM.
 NBasis=   404 RedAO= T EigKep=  1.34D-03  NBF=   404
 NBsUse=   404 1.00D-06 EigRej= -1.00D+00 NBFU=   404
 ExpMin= 7.78D-02 ExpMax= 1.61D+04 ExpMxC= 2.43D+03 IAcc=2 IRadAn=         4 AccDes= 0.00D+00
 Harris functional with IExCor=  402 and IRadAn=       4 diagonalized for initial guess.
 HarFok:  IExCor=  402 AccDes= 0.00D+00 IRadAn=         4 IDoV= 1 UseB2=F ITyADJ=14
 ICtDFT=  3500011 ScaDFX=  1.000000  1.000000  1.000000  1.000000
 FoFCou: FMM=F IPFlag=           0 FMFlag=      100000 FMFlg1=           0
         NFxFlg=           0 DoJE=T BraDBF=F KetDBF=T FulRan=T
         wScrn=  0.000000 ICntrl=     500 IOpCl=  0 I1Cent=   200000004 NGrid=           0
         NMat0=    1 NMatS0=      1 NMatT0=    0 NMatD0=    1 NMtDS0=    0 NMtDT0=    0
 Petite list used in FoFCou.
 Requested convergence on RMS density matrix=1.00D-08 within 128 cycles.
 Requested convergence on MAX density matrix=1.00D-06.
 Requested convergence on             energy=1.00D-06.
 No special actions if energy rises.
 Inv3:  Mode=1 IEnd=    24350403.
 Iteration    1 A*A^-1 deviation from unit magnitude is 5.44D-15 for   2844.
 Iteration    1 A*A^-1 deviation from orthogonality  is 9.45D-15 for   2834   1742.
 Iteration    1 A^-1*A deviation from unit magnitude is 5.55D-15 for   2844.
 Iteration    1 A^-1*A deviation from orthogonality  is 2.38D-11 for   2845   2674.
 Error on total polarization charges =  0.00940
 SCF Done:  E(RB3LYP) =  -1064.41662336     A.U. after   13 cycles
            NFock= 13  Conv=0.47D-08     -V/T= 2.0081

 **********************************************************************

            Population analysis using the SCF density.

 **********************************************************************

 Orbital symmetries:
       Occupied  (A) (A) (A) (A) (A) (A) (A) (A) (A) (A) (A) (A)
                 (A) (A) (A) (A) (A) (A) (A) (A) (A) (A) (A) (A)
                 (A) (A) (A) (A) (A) (A) (A) (A) (A) (A) (A) (A)
                 (A) (A) (A) (A) (A) (A) (A) (A) (A) (A) (A) (A)
                 (A) (A) (A) (A) (A) (A) (A) (A) (A) (A) (A) (A)
                 (A) (A) (A) (A) (A) (A) (A) (A) (A) (A) (A) (A)
                 (A) (A)
       Virtual   (A) (A) (A) (A) (A) (A) (A) (A) (A) (A) (A) (A)
                 (A) (A) (A) (A) (A) (A) (A) (A) (A) (A) (A) (A)
                 (A) (A) (A) (A) (A) (A) (A) (A) (A) (A) (A) (A)
                 (A) (A) (A) (A) (A) (A) (A) (A) (A) (A) (A) (A)
                 (A) (A) (A) (A) (A) (A) (A) (A) (A) (A) (A) (A)
                 (A) (A) (A) (A) (A) (A) (A) (A) (A) (A) (A) (A)
                 (A) (A) (A) (A) (A) (A) (A) (A) (A) (A) (A) (A)
                 (A) (A) (A) (A) (A) (A) (A) (A) (A) (A) (A) (A)
                 (A) (A) (A) (A) (A) (A) (A) (A) (A) (A) (A) (A)
                 (A) (A) (A) (A) (A) (A) (A) (A) (A) (A) (A) (A)
                 (A) (A) (A) (A) (A) (A) (A) (A) (A) (A) (A) (A)
                 (A) (A) (A) (A) (A) (A) (A) (A) (A) (A) (A) (A)
                 (A) (A) (A) (A) (A) (A) (A) (A) (A) (A) (A) (A)
                 (A) (A) (A) (A) (A) (A) (A) (A) (A) (A) (A) (A)
                 (A) (A) (A) (A) (A) (A) (A) (A) (A) (A) (A) (A)
                 (A) (A) (A) (A) (A) (A) (A) (A) (A) (A) (A) (A)
                 (A) (A) (A) (A) (A) (A) (A) (A) (A) (A) (A) (A)
                 (A) (A) (A) (A) (A) (A) (A) (A) (A) (A) (A) (A)
                 (A) (A) (A) (A) (A) (A) (A) (A) (A) (A) (A) (A)
                 (A) (A) (A) (A) (A) (A) (A) (A) (A) (A) (A) (A)
                 (A) (A) (A) (A) (A) (A) (A) (A) (A) (A) (A) (A)
                 (A) (A) (A) (A) (A) (A) (A) (A) (A) (A) (A) (A)
                 (A) (A) (A) (A) (A) (A) (A) (A) (A) (A) (A) (A)
                 (A) (A) (A) (A) (A) (A) (A) (A) (A) (A) (A) (A)
                 (A) (A) (A) (A) (A) (A) (A) (A) (A) (A) (A) (A)
                 (A) (A) (A) (A) (A) (A) (A) (A) (A) (A) (A) (A)
                 (A) (A) (A) (A) (A) (A) (A) (A) (A) (A) (A) (A)
                 (A) (A) (A) (A) (A) (A)
 The electronic state is 1-A.
 Alpha  occ. eigenvalues --  -66.13796 -19.19485 -19.14582 -19.13750 -10.32149
 Alpha  occ. eigenvalues --  -10.26901 -10.25710 -10.20308 -10.20277 -10.19165
 Alpha  occ. eigenvalues --  -10.19114 -10.19076 -10.18294 -10.18011 -10.17546
 Alpha  occ. eigenvalues --  -10.15660 -10.15552 -10.15340  -5.27952  -3.64009
 Alpha  occ. eigenvalues --   -3.63779  -3.63736  -1.10083  -1.01785  -1.00801
 Alpha  occ. eigenvalues --   -0.82986  -0.80471  -0.77573  -0.75437  -0.71259
 Alpha  occ. eigenvalues --   -0.69749  -0.69555  -0.67511  -0.67080  -0.64313
 Alpha  occ. eigenvalues --   -0.61035  -0.59508  -0.56400  -0.54602  -0.52218
 Alpha  occ. eigenvalues --   -0.49770  -0.48952  -0.46885  -0.46713  -0.45073
 Alpha  occ. eigenvalues --   -0.44057  -0.43183  -0.42817  -0.42064  -0.41591
 Alpha  occ. eigenvalues --   -0.41056  -0.40645  -0.40279  -0.40125  -0.39345
 Alpha  occ. eigenvalues --   -0.38885  -0.38522  -0.37756  -0.37505  -0.37418
 Alpha  occ. eigenvalues --   -0.36838  -0.36454  -0.35243  -0.34786  -0.34377
 Alpha  occ. eigenvalues --   -0.34090  -0.33595  -0.31623  -0.30556  -0.29569
 Alpha  occ. eigenvalues --   -0.28211  -0.26879  -0.26723  -0.25368
 Alpha virt. eigenvalues --    0.00052   0.01575   0.06409   0.07725   0.08520
 Alpha virt. eigenvalues --    0.08863   0.10096   0.10505   0.10726   0.12302
 Alpha virt. eigenvalues --    0.12478   0.13377   0.13525   0.13714   0.14152
 Alpha virt. eigenvalues --    0.14950   0.15447   0.15833   0.16224   0.16486
 Alpha virt. eigenvalues --    0.16891   0.17395   0.17712   0.18201   0.18776
 Alpha virt. eigenvalues --    0.19061   0.19515   0.20153   0.20222   0.20399
 Alpha virt. eigenvalues --    0.21238   0.21867   0.21872   0.22500   0.22980
 Alpha virt. eigenvalues --    0.23679   0.24610   0.25214   0.27772   0.28723
 Alpha virt. eigenvalues --    0.29694   0.31478   0.31972   0.35326   0.37085
 Alpha virt. eigenvalues --    0.37297   0.38080   0.39091   0.40934   0.43669
 Alpha virt. eigenvalues --    0.46446   0.47488   0.48589   0.50695   0.51966
 Alpha virt. eigenvalues --    0.52437   0.53020   0.53812   0.55449   0.55856
 Alpha virt. eigenvalues --    0.55993   0.57426   0.58666   0.59511   0.60433
 Alpha virt. eigenvalues --    0.61450   0.62992   0.63276   0.64523   0.64771
 Alpha virt. eigenvalues --    0.65571   0.66531   0.66911   0.68169   0.69045
 Alpha virt. eigenvalues --    0.69705   0.70884   0.71745   0.73007   0.73768
 Alpha virt. eigenvalues --    0.75349   0.75785   0.76099   0.77174   0.77730
 Alpha virt. eigenvalues --    0.78820   0.79138   0.81079   0.82098   0.82312
 Alpha virt. eigenvalues --    0.83168   0.83971   0.84946   0.85392   0.85590
 Alpha virt. eigenvalues --    0.86072   0.86689   0.87639   0.87883   0.88214
 Alpha virt. eigenvalues --    0.88995   0.89468   0.89827   0.90213   0.90813
 Alpha virt. eigenvalues --    0.91186   0.91594   0.92045   0.92485   0.93126
 Alpha virt. eigenvalues --    0.93734   0.94290   0.95224   0.96545   0.98044
 Alpha virt. eigenvalues --    0.98614   0.99547   1.00379   1.00824   1.01958
 Alpha virt. eigenvalues --    1.03532   1.04987   1.05858   1.06516   1.08934
 Alpha virt. eigenvalues --    1.11461   1.12020   1.13912   1.14703   1.17900
 Alpha virt. eigenvalues --    1.19184   1.20450   1.20698   1.23345   1.28399
 Alpha virt. eigenvalues --    1.28631   1.30227   1.30965   1.33384   1.34206
 Alpha virt. eigenvalues --    1.34942   1.38666   1.39527   1.41073   1.43211
 Alpha virt. eigenvalues --    1.43799   1.44894   1.46129   1.46330   1.48156
 Alpha virt. eigenvalues --    1.48444   1.50139   1.51233   1.53457   1.57244
 Alpha virt. eigenvalues --    1.57765   1.59723   1.62408   1.63344   1.64094
 Alpha virt. eigenvalues --    1.64855   1.67510   1.67825   1.69358   1.71252
 Alpha virt. eigenvalues --    1.73657   1.76597   1.76968   1.78525   1.80485
 Alpha virt. eigenvalues --    1.81093   1.82728   1.84058   1.84884   1.85138
 Alpha virt. eigenvalues --    1.86581   1.86855   1.88452   1.89643   1.89946
 Alpha virt. eigenvalues --    1.91536   1.94252   1.95061   1.96386   1.97407
 Alpha virt. eigenvalues --    1.97740   1.99039   2.00670   2.02146   2.03285
 Alpha virt. eigenvalues --    2.03845   2.04989   2.05060   2.05287   2.05603
 Alpha virt. eigenvalues --    2.05691   2.07127   2.07406   2.08362   2.08870
 Alpha virt. eigenvalues --    2.09121   2.10580   2.10969   2.11619   2.11977
 Alpha virt. eigenvalues --    2.12335   2.13157   2.13659   2.14664   2.15013
 Alpha virt. eigenvalues --    2.15769   2.16535   2.17134   2.18250   2.18805
 Alpha virt. eigenvalues --    2.20603   2.22053   2.22371   2.25676   2.27085
 Alpha virt. eigenvalues --    2.28260   2.30018   2.32717   2.33318   2.34405
 Alpha virt. eigenvalues --    2.35314   2.35645   2.35920   2.37222   2.38124
 Alpha virt. eigenvalues --    2.38905   2.39545   2.39932   2.40479   2.42099
 Alpha virt. eigenvalues --    2.44088   2.44640   2.45851   2.47815   2.52911
 Alpha virt. eigenvalues --    2.53063   2.53847   2.54457   2.56884   2.58138
 Alpha virt. eigenvalues --    2.58188   2.60348   2.61938   2.63716   2.64083
 Alpha virt. eigenvalues --    2.64696   2.66545   2.68558   2.69307   2.69920
 Alpha virt. eigenvalues --    2.71194   2.71513   2.73530   2.74559   2.77021
 Alpha virt. eigenvalues --    2.78172   2.79634   2.80252   2.81533   2.82175
 Alpha virt. eigenvalues --    2.83379   2.83693   2.83834   2.85266   2.85508
 Alpha virt. eigenvalues --    2.85719   2.86553   2.86878   2.88228   2.90284
 Alpha virt. eigenvalues --    2.91186   2.91610   2.92562   2.92795   2.96347
 Alpha virt. eigenvalues --    2.97422   3.01271   3.02964   3.09363   3.09839
 Alpha virt. eigenvalues --    3.15249   3.17244   3.19995   3.20958   3.21309
 Alpha virt. eigenvalues --    3.21725   3.22720   3.25915   3.28309   3.31144
 Alpha virt. eigenvalues --    3.31974   3.35271   3.40478   3.43514   3.43701
 Alpha virt. eigenvalues --    3.44024   3.44740   3.44881   3.45906   3.46047
 Alpha virt. eigenvalues --    3.46915   3.47021   3.48173   3.48957   3.50715
 Alpha virt. eigenvalues --    3.55046   3.55540   3.66719   4.04219   4.11735
 Alpha virt. eigenvalues --    4.23427   4.25851   4.37985   4.39268   4.44219
 Alpha virt. eigenvalues --    4.46647   4.47889   4.48849   4.53516   4.56625
 Alpha virt. eigenvalues --    4.62176   4.63459   4.70457   4.78932   4.91942
          Condensed to atoms (all electrons):
               1          2          3          4          5          6
     1  C    4.826128   0.332271  -0.031747  -0.001322  -0.015683   0.372198
     2  C    0.332271   5.067776   0.359317  -0.074165  -0.007409  -0.049760
     3  C   -0.031747   0.359317   4.809283   0.295034  -0.016920  -0.008206
     4  C   -0.001322  -0.074165   0.295034   5.333317   0.302379   0.002505
     5  C   -0.015683  -0.007409  -0.016920   0.302379   4.374872  -0.006461
     6  H    0.372198  -0.049760  -0.008206   0.002505  -0.006461   0.644091
     7  H   -0.040440   0.373883  -0.038550  -0.001916   0.001484   0.006777
     8  H    0.000211   0.003912  -0.021525   0.365191  -0.024126  -0.000062
     9  H    0.000459   0.000372  -0.023322   0.357516  -0.027208   0.000843
    10  O    0.155521  -0.032510  -0.002233  -0.094412   0.250540  -0.036062
    11  O    0.002856  -0.000533   0.002120  -0.085570   0.545010  -0.000153
    12  C    0.386513  -0.034999   0.003861  -0.000472   0.002426  -0.047963
    13  C   -0.037861   0.004422  -0.000111   0.000006   0.000050  -0.006267
    14  C   -0.038520   0.346273  -0.032498   0.005111   0.000132  -0.000540
    15  O    0.002640  -0.039113   0.197945  -0.035054  -0.000007   0.000024
    16  Si   0.000731  -0.005620  -0.016826  -0.007942   0.002567  -0.000064
    17  C   -0.000001  -0.000091   0.001063  -0.000074  -0.000005   0.000000
    18  C    0.000006  -0.000084  -0.002030   0.001173  -0.000864   0.000000
    19  C    0.000065  -0.001971   0.000709  -0.000953  -0.000692  -0.000004
    20  H    0.000000   0.000001   0.000027  -0.000409   0.000063   0.000000
    21  H   -0.000004  -0.000016  -0.000002  -0.003329   0.000656   0.000000
    22  H    0.000000   0.000001   0.000033   0.000091   0.000006   0.000000
    23  H   -0.000106  -0.000933   0.000108  -0.000122   0.004491   0.000003
    24  H    0.000006  -0.000997  -0.000241   0.000078  -0.000018  -0.000001
    25  H   -0.000001   0.000130  -0.000006   0.000011  -0.000014   0.000000
    26  H    0.000000   0.000001  -0.000036  -0.000006   0.000000   0.000000
    27  H    0.000000   0.000001  -0.000012   0.000001   0.000000   0.000000
    28  H    0.000000  -0.000006  -0.000043   0.000001   0.000000   0.000000
    29  H   -0.005211  -0.026653   0.004346  -0.000149   0.000010  -0.000047
    30  H   -0.005592  -0.034328  -0.007194  -0.000007   0.000012   0.003240
    31  H    0.004475  -0.027245  -0.005805   0.000235  -0.000027  -0.000151
    32  H   -0.034233  -0.006155   0.000060   0.000001  -0.000031   0.006091
    33  H   -0.028023  -0.005967  -0.000057   0.000032  -0.000050  -0.000648
    34  H    0.004039  -0.000107   0.000002   0.000000   0.000000  -0.000050
    35  H   -0.008145   0.000088  -0.000007   0.000045   0.000174   0.000140
    36  H   -0.005411   0.000093   0.000003  -0.000001  -0.000030   0.005524
    37  C   -0.003916  -0.045073   0.344588  -0.055331   0.002403   0.002666
    38  C    0.000008   0.004543  -0.037190  -0.008053   0.000703  -0.000123
    39  C    0.000000  -0.000103  -0.001877   0.001217   0.000117  -0.000029
    40  H   -0.000151  -0.000424  -0.031840  -0.002808  -0.000221   0.003478
    41  H    0.000321  -0.010909  -0.025212   0.005262  -0.000023  -0.000087
    42  H   -0.000006   0.000118  -0.003763  -0.000784  -0.000011   0.000002
    43  H    0.000000   0.000003  -0.000065  -0.000009   0.000000   0.000000
    44  H   -0.000005  -0.000009   0.000150  -0.000186  -0.000003   0.000011
               7          8          9         10         11         12
     1  C   -0.040440   0.000211   0.000459   0.155521   0.002856   0.386513
     2  C    0.373883   0.003912   0.000372  -0.032510  -0.000533  -0.034999
     3  C   -0.038550  -0.021525  -0.023322  -0.002233   0.002120   0.003861
     4  C   -0.001916   0.365191   0.357516  -0.094412  -0.085570  -0.000472
     5  C    0.001484  -0.024126  -0.027208   0.250540   0.545010   0.002426
     6  H    0.006777  -0.000062   0.000843  -0.036062  -0.000153  -0.047963
     7  H    0.621278  -0.000142  -0.000094  -0.000365  -0.000455  -0.008026
     8  H   -0.000142   0.540600  -0.021402   0.003153  -0.000381   0.000001
     9  H   -0.000094  -0.021402   0.551956  -0.000495   0.001386   0.000054
    10  O   -0.000365   0.003153  -0.000495   8.341868  -0.071118  -0.043464
    11  O   -0.000455  -0.000381   0.001386  -0.071118   8.109221  -0.000076
    12  C   -0.008026   0.000001   0.000054  -0.043464  -0.000076   4.920667
    13  C   -0.000085   0.000000  -0.000004  -0.002896  -0.000002   0.359424
    14  C   -0.039843  -0.000073  -0.000119   0.003106  -0.000003  -0.004291
    15  O   -0.005310  -0.004059   0.002382  -0.000006   0.000020  -0.000042
    16  Si   0.000427  -0.000703   0.001036  -0.001472   0.006981  -0.000053
    17  C   -0.000080  -0.000029   0.000001   0.000000   0.000000   0.000000
    18  C   -0.000034   0.001754  -0.000012  -0.000002  -0.002614   0.000000
    19  C    0.002718   0.000051  -0.000013  -0.000026  -0.001946  -0.000003
    20  H    0.000000   0.001001  -0.000008   0.000000   0.000011   0.000000
    21  H   -0.000014   0.002265   0.000078   0.000039   0.007645   0.000000
    22  H    0.000002   0.000003  -0.000001   0.000000   0.000002   0.000000
    23  H    0.000969  -0.000110   0.000025   0.000129   0.003550  -0.000002
    24  H    0.001792   0.000004   0.000000  -0.000007   0.000016   0.000004
    25  H    0.000064   0.000002   0.000000   0.000003   0.000005   0.000000
    26  H    0.000001  -0.000003   0.000000   0.000000   0.000000   0.000000
    27  H    0.000003   0.000001   0.000000   0.000000   0.000000   0.000000
    28  H   -0.000018   0.000000   0.000000   0.000000   0.000000   0.000000
    29  H   -0.006118   0.000002   0.000003   0.000006   0.000000   0.002544
    30  H    0.005634  -0.000001  -0.000018  -0.000005   0.000000  -0.001627
    31  H   -0.003271  -0.000002  -0.000008  -0.000057   0.000000   0.000159
    32  H    0.005090   0.000000   0.000000  -0.000551  -0.000013   0.381035
    33  H    0.000265   0.000000   0.000000   0.002870   0.000001   0.378135
    34  H    0.000000   0.000000   0.000000   0.000119   0.000000  -0.028012
    35  H    0.000014   0.000000  -0.000001   0.008229   0.000003  -0.033001
    36  H    0.000010   0.000000  -0.000001  -0.000354   0.000000  -0.036879
    37  C    0.004932  -0.002329  -0.010402  -0.000115  -0.000070  -0.000085
    38  C   -0.000110   0.002791   0.001982  -0.000006  -0.000004   0.000001
    39  C    0.000000   0.000111   0.003263   0.000000   0.000000   0.000000
    40  H    0.000014   0.000175   0.001174  -0.000011   0.000001  -0.000078
    41  H   -0.000054  -0.000164   0.000576  -0.000006   0.000001  -0.000001
    42  H    0.000001   0.000581   0.000149   0.000000   0.000000   0.000000
    43  H    0.000000   0.000011  -0.000019   0.000000   0.000000   0.000000
    44  H    0.000000   0.000014   0.000535   0.000000   0.000000   0.000000
              13         14         15         16         17         18
     1  C   -0.037861  -0.038520   0.002640   0.000731  -0.000001   0.000006
     2  C    0.004422   0.346273  -0.039113  -0.005620  -0.000091  -0.000084
     3  C   -0.000111  -0.032498   0.197945  -0.016826   0.001063  -0.002030
     4  C    0.000006   0.005111  -0.035054  -0.007942  -0.000074   0.001173
     5  C    0.000050   0.000132  -0.000007   0.002567  -0.000005  -0.000864
     6  H   -0.006267  -0.000540   0.000024  -0.000064   0.000000   0.000000
     7  H   -0.000085  -0.039843  -0.005310   0.000427  -0.000080  -0.000034
     8  H    0.000000  -0.000073  -0.004059  -0.000703  -0.000029   0.001754
     9  H   -0.000004  -0.000119   0.002382   0.001036   0.000001  -0.000012
    10  O   -0.002896   0.003106  -0.000006  -0.001472   0.000000  -0.000002
    11  O   -0.000002  -0.000003   0.000020   0.006981   0.000000  -0.002614
    12  C    0.359424  -0.004291  -0.000042  -0.000053   0.000000   0.000000
    13  C    4.935310   0.000155   0.000000   0.000007   0.000000   0.000000
    14  C    0.000155   4.968026  -0.002583   0.000172   0.000000   0.000002
    15  O    0.000000  -0.002583   8.267155   0.346129  -0.020192  -0.018014
    16  Si   0.000007   0.000172   0.346129  11.874410   0.375767   0.363110
    17  C    0.000000   0.000000  -0.020192   0.375767   5.122972  -0.034168
    18  C    0.000000   0.000002  -0.018014   0.363110  -0.034168   5.168838
    19  C    0.000000   0.000038  -0.016411   0.363157  -0.032363  -0.034240
    20  H    0.000000   0.000000  -0.000674  -0.026296  -0.000915   0.375875
    21  H    0.000000   0.000000  -0.000336  -0.026069   0.001440   0.368377
    22  H    0.000000   0.000000   0.000510  -0.013353  -0.001322   0.369694
    23  H   -0.000001   0.000001  -0.000435  -0.027178   0.001564  -0.001632
    24  H    0.000000   0.000092  -0.000467  -0.027691  -0.001230   0.001359
    25  H    0.000000  -0.000003   0.000465  -0.013459  -0.001016  -0.000329
    26  H    0.000000   0.000000  -0.000438  -0.025207   0.376021  -0.001135
    27  H    0.000000   0.000000   0.000483  -0.014849   0.374045  -0.000603
    28  H    0.000000  -0.000003  -0.000440  -0.025749   0.375061   0.001433
    29  H   -0.000033   0.379688  -0.000040  -0.000185   0.000000   0.000000
    30  H   -0.000040   0.385024   0.000078  -0.000080   0.000000   0.000000
    31  H   -0.000002   0.378097   0.005849   0.001907  -0.000050   0.000003
    32  H   -0.040912  -0.001163  -0.000001  -0.000035   0.000000   0.000000
    33  H   -0.036644   0.002673   0.000000  -0.000005   0.000000   0.000000
    34  H    0.381201  -0.000002   0.000000   0.000000   0.000000   0.000000
    35  H    0.388960  -0.000001   0.000000   0.000000   0.000000   0.000000
    36  H    0.385208  -0.000021   0.000000   0.000000   0.000000   0.000000
    37  C    0.000001  -0.010581  -0.065210  -0.001414  -0.000011   0.000042
    38  C    0.000000   0.000337   0.001161   0.000601  -0.000011  -0.000134
    39  C    0.000000   0.000005   0.000393   0.000068   0.000000  -0.000005
    40  H    0.000002  -0.001637   0.003655   0.000156   0.000000   0.000000
    41  H    0.000000   0.004047  -0.000303   0.000537  -0.000014   0.000002
    42  H    0.000000  -0.000015   0.004863   0.001851  -0.000036  -0.000069
    43  H    0.000000   0.000000   0.000003   0.000003   0.000000   0.000000
    44  H    0.000000  -0.000001  -0.000001   0.000008   0.000000   0.000000
              19         20         21         22         23         24
     1  C    0.000065   0.000000  -0.000004   0.000000  -0.000106   0.000006
     2  C   -0.001971   0.000001  -0.000016   0.000001  -0.000933  -0.000997
     3  C    0.000709   0.000027  -0.000002   0.000033   0.000108  -0.000241
     4  C   -0.000953  -0.000409  -0.003329   0.000091  -0.000122   0.000078
     5  C   -0.000692   0.000063   0.000656   0.000006   0.004491  -0.000018
     6  H   -0.000004   0.000000   0.000000   0.000000   0.000003  -0.000001
     7  H    0.002718   0.000000  -0.000014   0.000002   0.000969   0.001792
     8  H    0.000051   0.001001   0.002265   0.000003  -0.000110   0.000004
     9  H   -0.000013  -0.000008   0.000078  -0.000001   0.000025   0.000000
    10  O   -0.000026   0.000000   0.000039   0.000000   0.000129  -0.000007
    11  O   -0.001946   0.000011   0.007645   0.000002   0.003550   0.000016
    12  C   -0.000003   0.000000   0.000000   0.000000  -0.000002   0.000004
    13  C    0.000000   0.000000   0.000000   0.000000  -0.000001   0.000000
    14  C    0.000038   0.000000   0.000000   0.000000   0.000001   0.000092
    15  O   -0.016411  -0.000674  -0.000336   0.000510  -0.000435  -0.000467
    16  Si   0.363157  -0.026296  -0.026069  -0.013353  -0.027178  -0.027691
    17  C   -0.032363  -0.000915   0.001440  -0.001322   0.001564  -0.001230
    18  C   -0.034240   0.375875   0.368377   0.369694  -0.001632   0.001359
    19  C    5.165046   0.001305  -0.001645  -0.000052   0.369600   0.375100
    20  H    0.001305   0.578606  -0.022487  -0.023212  -0.000003  -0.000024
    21  H   -0.001645  -0.022487   0.568489  -0.022418   0.000668   0.000012
    22  H   -0.000052  -0.023212  -0.022418   0.569842  -0.000019  -0.000004
    23  H    0.369600  -0.000003   0.000668  -0.000019   0.569265  -0.023257
    24  H    0.375100  -0.000024   0.000012  -0.000004  -0.023257   0.580682
    25  H    0.370557   0.000018  -0.000084  -0.000012  -0.021160  -0.023261
    26  H    0.001415   0.000485   0.000012  -0.000043  -0.000027   0.000008
    27  H   -0.000657  -0.000004  -0.000003   0.000128   0.000002  -0.000066
    28  H   -0.001320  -0.000002  -0.000027   0.000030   0.000007   0.000746
    29  H    0.000006   0.000000   0.000000   0.000000   0.000003   0.000028
    30  H    0.000000   0.000000   0.000000   0.000000   0.000000  -0.000001
    31  H   -0.000065   0.000000   0.000000   0.000000  -0.000004   0.000016
    32  H   -0.000011   0.000000   0.000000   0.000000   0.000036   0.000007
    33  H    0.000000   0.000000   0.000000   0.000000   0.000000   0.000000
    34  H    0.000000   0.000000   0.000000   0.000000   0.000000   0.000000
    35  H    0.000000   0.000000   0.000000   0.000000   0.000000   0.000000
    36  H    0.000000   0.000000   0.000000   0.000000   0.000000   0.000000
    37  C   -0.000055   0.000001   0.000001   0.000001   0.000000  -0.000008
    38  C    0.000004   0.000051  -0.000016   0.000001   0.000000   0.000000
    39  C    0.000000   0.000004  -0.000001   0.000000   0.000000   0.000000
    40  H    0.000002   0.000000   0.000000   0.000000   0.000000   0.000000
    41  H   -0.000001   0.000001   0.000000   0.000000   0.000000   0.000000
    42  H    0.000003   0.000276  -0.000009   0.000000   0.000000   0.000000
    43  H    0.000000  -0.000001   0.000000   0.000000   0.000000   0.000000
    44  H    0.000000   0.000000   0.000000   0.000000   0.000000   0.000000
              25         26         27         28         29         30
     1  C   -0.000001   0.000000   0.000000   0.000000  -0.005211  -0.005592
     2  C    0.000130   0.000001   0.000001  -0.000006  -0.026653  -0.034328
     3  C   -0.000006  -0.000036  -0.000012  -0.000043   0.004346  -0.007194
     4  C    0.000011  -0.000006   0.000001   0.000001  -0.000149  -0.000007
     5  C   -0.000014   0.000000   0.000000   0.000000   0.000010   0.000012
     6  H    0.000000   0.000000   0.000000   0.000000  -0.000047   0.003240
     7  H    0.000064   0.000001   0.000003  -0.000018  -0.006118   0.005634
     8  H    0.000002  -0.000003   0.000001   0.000000   0.000002  -0.000001
     9  H    0.000000   0.000000   0.000000   0.000000   0.000003  -0.000018
    10  O    0.000003   0.000000   0.000000   0.000000   0.000006  -0.000005
    11  O    0.000005   0.000000   0.000000   0.000000   0.000000   0.000000
    12  C    0.000000   0.000000   0.000000   0.000000   0.002544  -0.001627
    13  C    0.000000   0.000000   0.000000   0.000000  -0.000033  -0.000040
    14  C   -0.000003   0.000000   0.000000  -0.000003   0.379688   0.385024
    15  O    0.000465  -0.000438   0.000483  -0.000440  -0.000040   0.000078
    16  Si  -0.013459  -0.025207  -0.014849  -0.025749  -0.000185  -0.000080
    17  C   -0.001016   0.376021   0.374045   0.375061   0.000000   0.000000
    18  C   -0.000329  -0.001135  -0.000603   0.001433   0.000000   0.000000
    19  C    0.370557   0.001415  -0.000657  -0.001320   0.000006   0.000000
    20  H    0.000018   0.000485  -0.000004  -0.000002   0.000000   0.000000
    21  H   -0.000084   0.000012  -0.000003  -0.000027   0.000000   0.000000
    22  H   -0.000012  -0.000043   0.000128   0.000030   0.000000   0.000000
    23  H   -0.021160  -0.000027   0.000002   0.000007   0.000003   0.000000
    24  H   -0.023261   0.000008  -0.000066   0.000746   0.000028  -0.000001
    25  H    0.563465   0.000010   0.000069  -0.000028   0.000000   0.000000
    26  H    0.000010   0.578694  -0.023783  -0.022164   0.000000   0.000000
    27  H    0.000069  -0.023783   0.568124  -0.023655   0.000000   0.000000
    28  H   -0.000028  -0.022164  -0.023655   0.581580   0.000000   0.000000
    29  H    0.000000   0.000000   0.000000   0.000000   0.598082  -0.032681
    30  H    0.000000   0.000000   0.000000   0.000000  -0.032681   0.596370
    31  H    0.000000  -0.000001   0.000000   0.000032  -0.029671  -0.028705
    32  H    0.000000   0.000000   0.000000   0.000000   0.001119   0.000166
    33  H    0.000000   0.000000   0.000000   0.000000   0.000166   0.001288
    34  H    0.000000   0.000000   0.000000   0.000000   0.000004   0.000000
    35  H    0.000000   0.000000   0.000000   0.000000  -0.000002   0.000000
    36  H    0.000000   0.000000   0.000000   0.000000   0.000009   0.000007
    37  C    0.000001   0.000006   0.000000  -0.000001   0.000332   0.002662
    38  C    0.000000  -0.000003   0.000000   0.000000  -0.000007   0.000032
    39  C    0.000000   0.000000   0.000000   0.000000   0.000000  -0.000001
    40  H    0.000000   0.000000   0.000000   0.000000  -0.000018   0.001368
    41  H    0.000000  -0.000001   0.000000  -0.000001   0.000042  -0.000052
    42  H    0.000000   0.000010   0.000000  -0.000001   0.000000   0.000004
    43  H    0.000000   0.000000   0.000000   0.000000   0.000000   0.000000
    44  H    0.000000   0.000000   0.000000   0.000000   0.000000   0.000000
              31         32         33         34         35         36
     1  C    0.004475  -0.034233  -0.028023   0.004039  -0.008145  -0.005411
     2  C   -0.027245  -0.006155  -0.005967  -0.000107   0.000088   0.000093
     3  C   -0.005805   0.000060  -0.000057   0.000002  -0.000007   0.000003
     4  C    0.000235   0.000001   0.000032   0.000000   0.000045  -0.000001
     5  C   -0.000027  -0.000031  -0.000050   0.000000   0.000174  -0.000030
     6  H   -0.000151   0.006091  -0.000648  -0.000050   0.000140   0.005524
     7  H   -0.003271   0.005090   0.000265   0.000000   0.000014   0.000010
     8  H   -0.000002   0.000000   0.000000   0.000000   0.000000   0.000000
     9  H   -0.000008   0.000000   0.000000   0.000000  -0.000001  -0.000001
    10  O   -0.000057  -0.000551   0.002870   0.000119   0.008229  -0.000354
    11  O    0.000000  -0.000013   0.000001   0.000000   0.000003   0.000000
    12  C    0.000159   0.381035   0.378135  -0.028012  -0.033001  -0.036879
    13  C   -0.000002  -0.040912  -0.036644   0.381201   0.388960   0.385208
    14  C    0.378097  -0.001163   0.002673  -0.000002  -0.000001  -0.000021
[...]
    14  C    0.000015   0.000000   0.000000   0.000000  -0.000003   0.000061
    15  O   -0.017638  -0.000702  -0.000532   0.000507  -0.000542  -0.000591
    16  Si   0.358190  -0.025022  -0.023873  -0.013720  -0.024336  -0.025550
    17  C   -0.028509  -0.000996   0.001165  -0.000802   0.001243  -0.001068
    18  C   -0.032226   0.375578   0.367552   0.366366  -0.001471   0.001246
    19  C    5.165006   0.001226  -0.001423  -0.000152   0.373420   0.375753
    20  H    0.001226   0.578131  -0.022219  -0.024167   0.000000  -0.000021
    21  H   -0.001423  -0.022219   0.555427  -0.021752   0.000456   0.000009
    22  H   -0.000152  -0.024167  -0.021752   0.575159  -0.000032   0.000000
    23  H    0.373420   0.000000   0.000456  -0.000032   0.563474  -0.023469
    24  H    0.375753  -0.000021   0.000009   0.000000  -0.023469   0.578461
    25  H    0.367258   0.000008  -0.000060   0.000023  -0.022484  -0.023854
    26  H    0.001210   0.000418   0.000010  -0.000016  -0.000020  -0.000002
    27  H   -0.000362  -0.000029   0.000002   0.000068  -0.000001  -0.000054
    28  H   -0.001345  -0.000001  -0.000020   0.000012   0.000010   0.000520
    29  H    0.000005   0.000000   0.000000   0.000000   0.000002   0.000020
    30  H    0.000000   0.000000   0.000000   0.000000   0.000000  -0.000001
    31  H   -0.000058   0.000000   0.000000   0.000000  -0.000003   0.000018
    32  H   -0.000009   0.000000   0.000000   0.000000   0.000033   0.000008
    33  H    0.000000   0.000000   0.000000   0.000000   0.000000   0.000000
    34  H    0.000000   0.000000   0.000000   0.000000   0.000000   0.000000
    35  H    0.000000   0.000000   0.000000   0.000000   0.000000   0.000000
    36  H    0.000000   0.000000   0.000000   0.000000   0.000000   0.000000
    37  C   -0.000060  -0.000002   0.000002   0.000000   0.000000  -0.000006
    38  C    0.000004   0.000032  -0.000015   0.000001   0.000000   0.000000
    39  C    0.000000   0.000002  -0.000001   0.000000   0.000000   0.000000
    40  H    0.000001   0.000000   0.000000   0.000000   0.000000   0.000000
    41  H   -0.000001   0.000001   0.000000   0.000000   0.000000   0.000000
    42  H    0.000004   0.000258  -0.000007   0.000000   0.000000   0.000000
    43  H    0.000000   0.000000   0.000000   0.000000   0.000000   0.000000
    44  H    0.000000   0.000000   0.000000   0.000000   0.000000   0.000000
              25         26         27         28         29         30
     1  C   -0.000001   0.000000   0.000000   0.000000  -0.005672  -0.005272
     2  C    0.000088   0.000001   0.000001  -0.000006  -0.026685  -0.032629
     3  C   -0.000013  -0.000039  -0.000015  -0.000038   0.004368  -0.007462
     4  C    0.000009  -0.000011   0.000001   0.000000  -0.000154   0.000003
     5  C   -0.000008   0.000000   0.000000   0.000000   0.000006   0.000012
     6  H    0.000000   0.000000   0.000000   0.000000  -0.000046   0.003006
     7  H    0.000036   0.000002   0.000003  -0.000018  -0.005350   0.005294
     8  H    0.000001  -0.000005   0.000001   0.000000   0.000002  -0.000001
     9  H    0.000000   0.000000   0.000000   0.000000   0.000004  -0.000024
    10  O    0.000002   0.000000   0.000000   0.000000   0.000010  -0.000010
    11  O    0.000002   0.000000   0.000000   0.000000   0.000000   0.000000
    12  C    0.000000   0.000000   0.000000   0.000000   0.002755  -0.001515
    13  C    0.000000   0.000000   0.000000   0.000000  -0.000036  -0.000035
    14  C   -0.000002   0.000000   0.000000  -0.000005   0.380015   0.384939
    15  O    0.000489  -0.000710   0.000662  -0.000758  -0.000071   0.000070
    16  Si  -0.013792  -0.023704  -0.015015  -0.023343  -0.000174  -0.000051
    17  C   -0.000737   0.377456   0.369050   0.376906   0.000000   0.000000
    18  C   -0.000241  -0.001245  -0.000327   0.001185   0.000000   0.000000
    19  C    0.367258   0.001210  -0.000362  -0.001345   0.000005   0.000000
    20  H    0.000008   0.000418  -0.000029  -0.000001   0.000000   0.000000
    21  H   -0.000060   0.000010   0.000002  -0.000020   0.000000   0.000000
    22  H    0.000023  -0.000016   0.000068   0.000012   0.000000   0.000000
    23  H   -0.022484  -0.000020  -0.000001   0.000010   0.000002   0.000000
    24  H   -0.023854  -0.000002  -0.000054   0.000520   0.000020  -0.000001
    25  H    0.571990   0.000006   0.000051  -0.000016   0.000000   0.000000
    26  H    0.000006   0.572704  -0.024211  -0.022653   0.000000   0.000000
    27  H    0.000051  -0.024211   0.576576  -0.024287   0.000000   0.000000
    28  H   -0.000016  -0.022653  -0.024287   0.573670   0.000000   0.000000
    29  H    0.000000   0.000000   0.000000   0.000000   0.595105  -0.032627
    30  H    0.000000   0.000000   0.000000   0.000000  -0.032627   0.595585
    31  H    0.000000  -0.000001   0.000000   0.000039  -0.028505  -0.030283
    32  H    0.000000   0.000000   0.000000   0.000000   0.001249   0.000173
    33  H    0.000000   0.000000   0.000000   0.000000   0.000216   0.001200
    34  H    0.000000   0.000000   0.000000   0.000000   0.000003   0.000000
    35  H    0.000000   0.000000   0.000000   0.000000  -0.000002   0.000000
    36  H    0.000000   0.000000   0.000000   0.000000   0.000008   0.000005
    37  C    0.000001   0.000010   0.000000   0.000000   0.000326   0.002534
    38  C    0.000000  -0.000010   0.000000   0.000000  -0.000007   0.000040
    39  C    0.000000   0.000000   0.000000   0.000000   0.000000  -0.000001
    40  H    0.000000   0.000000   0.000000   0.000000  -0.000015   0.001598
    41  H    0.000000  -0.000003   0.000000  -0.000001   0.000001  -0.000078
    42  H    0.000000   0.000084   0.000000  -0.000002   0.000000   0.000003
    43  H    0.000000   0.000000   0.000000   0.000000   0.000000   0.000000
    44  H    0.000000   0.000000   0.000000   0.000000   0.000000   0.000000
              31         32         33         34         35         36
     1  C    0.004661  -0.036375  -0.030588   0.003818  -0.008396  -0.004856
     2  C   -0.028818  -0.006493  -0.005827  -0.000098   0.000098   0.000063
     3  C   -0.005104   0.000056  -0.000092   0.000001  -0.000007   0.000003
     4  C    0.000243   0.000001   0.000045   0.000000   0.000056  -0.000002
     5  C   -0.000029  -0.000062  -0.000065   0.000000   0.000203  -0.000030
     6  H   -0.000174   0.006454  -0.001145  -0.000053   0.000134   0.005229
     7  H   -0.003865   0.005354   0.000245   0.000001   0.000015   0.000010
     8  H   -0.000001   0.000000   0.000000   0.000000   0.000000   0.000000
     9  H   -0.000011   0.000000   0.000000   0.000000  -0.000002  -0.000002
    10  O   -0.000055  -0.000728   0.003186   0.000142   0.009002  -0.000334
    11  O    0.000000  -0.000015   0.000001   0.000000   0.000005   0.000000
    12  C    0.000157   0.380627   0.375772  -0.027367  -0.033230  -0.035378
    13  C   -0.000002  -0.038267  -0.034556   0.381413   0.388793   0.384626
    14  C    0.378603  -0.001186   0.002815  -0.000002  -0.000002  -0.000019
    15  O    0.005067  -0.000002   0.000000   0.000000   0.000000   0.000000
    16  Si   0.001643  -0.000038  -0.000004   0.000000   0.000000   0.000000
    17  C   -0.000043   0.000000   0.000000   0.000000   0.000000   0.000000
    18  C    0.000003   0.000000   0.000000   0.000000   0.000000   0.000000
    19  C   -0.000058  -0.000009   0.000000   0.000000   0.000000   0.000000
    20  H    0.000000   0.000000   0.000000   0.000000   0.000000   0.000000
    21  H    0.000000   0.000000   0.000000   0.000000   0.000000   0.000000
    22  H    0.000000   0.000000   0.000000   0.000000   0.000000   0.000000
    23  H   -0.000003   0.000033   0.000000   0.000000   0.000000   0.000000
    24  H    0.000018   0.000008   0.000000   0.000000   0.000000   0.000000
    25  H    0.000000   0.000000   0.000000   0.000000   0.000000   0.000000
    26  H   -0.000001   0.000000   0.000000   0.000000   0.000000   0.000000
    27  H    0.000000   0.000000   0.000000   0.000000   0.000000   0.000000
    28  H    0.000039   0.000000   0.000000   0.000000   0.000000   0.000000
    29  H   -0.028505   0.001249   0.000216   0.000003  -0.000002   0.000008
    30  H   -0.030283   0.000173   0.001200   0.000000   0.000000   0.000005
    31  H    0.581197  -0.000066   0.000048   0.000000   0.000000   0.000000
    32  H   -0.000066   0.612294  -0.033418  -0.002986  -0.003908   0.005138
    33  H    0.000048  -0.033418   0.610111  -0.003475   0.004983  -0.004406
    34  H    0.000000  -0.002986  -0.003475   0.601030  -0.029903  -0.031111
    35  H    0.000000  -0.003908   0.004983  -0.029903   0.576419  -0.030796
    36  H    0.000000   0.005138  -0.004406  -0.031111  -0.030796   0.605925
    37  C   -0.003297   0.000000   0.000001   0.000000   0.000000  -0.000001
    38  C   -0.000110   0.000000   0.000000   0.000000   0.000000   0.000000
    39  C   -0.000002   0.000000   0.000000   0.000000   0.000000   0.000000
    40  H    0.000212   0.000001   0.000006   0.000000   0.000000  -0.000001
    41  H    0.002377   0.000000  -0.000003   0.000000   0.000000   0.000000
    42  H    0.000003   0.000000   0.000000   0.000000   0.000000   0.000000
    43  H    0.000000   0.000000   0.000000   0.000000   0.000000   0.000000
    44  H    0.000000   0.000000   0.000000   0.000000   0.000000   0.000000
              37         38         39         40         41         42
     1  C   -0.002521  -0.000021   0.000001   0.000054   0.000273  -0.000006
     2  C   -0.046789   0.004866  -0.000110  -0.000488  -0.011993   0.000141
     3  C    0.350568  -0.037895  -0.001860  -0.030660  -0.028457  -0.004154
     4  C   -0.057214  -0.008102   0.001365  -0.002802   0.005898  -0.001032
     5  C    0.002718   0.000626   0.000093  -0.000184  -0.000031  -0.000014
     6  H    0.002274  -0.000126  -0.000025   0.002687  -0.000096   0.000002
     7  H    0.004932  -0.000122   0.000000   0.000033  -0.000083   0.000002
     8  H   -0.003689   0.003710   0.000266   0.000207  -0.000140   0.000776
     9  H   -0.008390   0.001642   0.002345   0.001187   0.000438   0.000146
    10  O   -0.000089  -0.000004   0.000000  -0.000012  -0.000005   0.000000
    11  O   -0.000059  -0.000004   0.000000   0.000001   0.000001   0.000000
    12  C   -0.000102   0.000001   0.000000  -0.000070   0.000003   0.000000
    13  C    0.000001   0.000000   0.000000   0.000001   0.000000   0.000000
    14  C   -0.009474   0.000324   0.000004  -0.001680   0.004640  -0.000014
    15  O   -0.068174   0.001235   0.000457   0.003688  -0.000015   0.005365
    16  Si  -0.001219   0.000638   0.000074   0.000106   0.000652   0.002079
    17  C   -0.000007  -0.000030   0.000000   0.000000  -0.000024  -0.000063
    18  C    0.000023  -0.000134  -0.000005   0.000000   0.000003  -0.000075
    19  C   -0.000060   0.000004   0.000000   0.000001  -0.000001   0.000004
    20  H   -0.000002   0.000032   0.000002   0.000000   0.000001   0.000258
    21  H    0.000002  -0.000015  -0.000001   0.000000   0.000000  -0.000007
    22  H    0.000000   0.000001   0.000000   0.000000   0.000000   0.000000
    23  H    0.000000   0.000000   0.000000   0.000000   0.000000   0.000000
    24  H   -0.000006   0.000000   0.000000   0.000000   0.000000   0.000000
    25  H    0.000001   0.000000   0.000000   0.000000   0.000000   0.000000
    26  H    0.000010  -0.000010   0.000000   0.000000  -0.000003   0.000084
    27  H    0.000000   0.000000   0.000000   0.000000   0.000000   0.000000
    28  H    0.000000   0.000000   0.000000   0.000000  -0.000001  -0.000002
    29  H    0.000326  -0.000007   0.000000  -0.000015   0.000001   0.000000
    30  H    0.002534   0.000040  -0.000001   0.001598  -0.000078   0.000003
    31  H   -0.003297  -0.000110  -0.000002   0.000212   0.002377   0.000003
    32  H    0.000000   0.000000   0.000000   0.000001   0.000000   0.000000
    33  H    0.000001   0.000000   0.000000   0.000006  -0.000003   0.000000
    34  H    0.000000   0.000000   0.000000   0.000000   0.000000   0.000000
    35  H    0.000000   0.000000   0.000000   0.000000   0.000000   0.000000
    36  H   -0.000001   0.000000   0.000000  -0.000001   0.000000   0.000000
    37  C    5.044769   0.384564  -0.040728   0.361314   0.366810  -0.051799
    38  C    0.384564   4.779358   0.653745  -0.039773  -0.033995   0.385124
    39  C   -0.040728   0.653745   4.938218  -0.006512   0.000858  -0.045593
    40  H    0.361314  -0.039773  -0.006512   0.630269  -0.030390   0.005336
    41  H    0.366810  -0.033995   0.000858  -0.030390   0.602024  -0.001875
    42  H   -0.051799   0.385124  -0.045593   0.005336  -0.001875   0.601336
    43  H    0.004567  -0.024907   0.376439   0.000103  -0.000206  -0.007848
    44  H   -0.012319  -0.034755   0.380963   0.006297   0.000191   0.005681
              43         44
     1  C    0.000000  -0.000003
     2  C    0.000003  -0.000009
     3  C   -0.000063   0.000171
     4  C   -0.000018  -0.000161
     5  C    0.000000  -0.000001
     6  H    0.000000   0.000006
     7  H    0.000000   0.000000
     8  H    0.000018   0.000014
     9  H   -0.000013   0.000400
    10  O    0.000000   0.000000
    11  O    0.000000   0.000000
    12  C    0.000000   0.000000
    13  C    0.000000   0.000000
    14  C    0.000000   0.000000
    15  O    0.000003  -0.000002
    16  Si   0.000003   0.000008
    17  C    0.000000   0.000000
    18  C    0.000000   0.000000
    19  C    0.000000   0.000000
    20  H    0.000000   0.000000
    21  H    0.000000   0.000000
    22  H    0.000000   0.000000
    23  H    0.000000   0.000000
    24  H    0.000000   0.000000
    25  H    0.000000   0.000000
    26  H    0.000000   0.000000
    27  H    0.000000   0.000000
    28  H    0.000000   0.000000
    29  H    0.000000   0.000000
    30  H    0.000000   0.000000
    31  H    0.000000   0.000000
    32  H    0.000000   0.000000
    33  H    0.000000   0.000000
    34  H    0.000000   0.000000
    35  H    0.000000   0.000000
    36  H    0.000000   0.000000
    37  C    0.004567  -0.012319
    38  C   -0.024907  -0.034755
    39  C    0.376439   0.380963
    40  H    0.000103   0.006297
    41  H   -0.000206   0.000191
    42  H   -0.007848   0.005681
    43  H    0.590245  -0.043919
    44  H   -0.043919   0.598885
 Mulliken charges:
               1
     1  C    0.163692
     2  C   -0.090872
     3  C    0.296995
     4  C   -0.298438
     5  C    0.606202
     6  H    0.106623
     7  H    0.120042
     8  H    0.146917
     9  H    0.150617
    10  O   -0.477113
    11  O   -0.507832
    12  C   -0.195578
    13  C   -0.329348
    14  C   -0.343916
    15  O   -0.632426
    16  Si   0.901198
    17  C   -0.531832
    18  C   -0.562543
    19  C   -0.559901
    20  H    0.116701
    21  H    0.134184
    22  H    0.118376
    23  H    0.127762
    24  H    0.117755
    25  H    0.121242
    26  H    0.120727
    27  H    0.117886
    28  H    0.120153
    29  H    0.115247
    30  H    0.115526
    31  H    0.126158
    32  H    0.112164
    33  H    0.114950
    34  H    0.108585
    35  H    0.126536
    36  H    0.105929
    37  C   -0.219475
    38  C   -0.035900
    39  C   -0.259994
    40  H    0.099486
    41  H    0.123225
    42  H    0.106141
    43  H    0.105595
    44  H    0.098552
 Sum of Mulliken charges =   0.00000
 Mulliken charges with hydrogens summed into heavy atoms:
               1
     1  C    0.270314
     2  C    0.029169
     3  C    0.296995
     4  C   -0.000903
     5  C    0.606202
    10  O   -0.477113
    11  O   -0.507832
    12  C    0.031536
    13  C    0.011702
    14  C    0.013015
    15  O   -0.632426
    16  Si   0.901198
    17  C   -0.173066
    18  C   -0.193281
    19  C   -0.193142
    37  C    0.003237
    38  C    0.070241
    39  C   -0.055847
 Electronic spatial extent (au):  <R**2>=           5324.8692
 Charge=              0.0000 electrons
 Dipole moment (field-independent basis, Debye):
    X=             -1.0013    Y=              2.4741    Z=             -3.5745  Tot=              4.4610
 Quadrupole moment (field-independent basis, Debye-Ang):
   XX=           -110.8469   YY=           -119.0911   ZZ=           -126.3739
   XY=             -5.9400   XZ=              5.7924   YZ=              9.1039
 Traceless Quadrupole moment (field-independent basis, Debye-Ang):
   XX=              7.9238   YY=             -0.3205   ZZ=             -7.6033
   XY=             -5.9400   XZ=              5.7924   YZ=              9.1039
 Octapole moment (field-independent basis, Debye-Ang**2):
  XXX=            -12.8214  YYY=             -4.1949  ZZZ=            -25.4342  XYY=              2.5085
  XXY=             -2.7562  XXZ=             -2.7096  XZZ=             -2.1157  YZZ=             16.1902
  YYZ=             -0.3995  XYZ=             -4.1064
 Hexadecapole moment (field-independent basis, Debye-Ang**3):
 XXXX=          -3683.5188 YYYY=          -2179.6314 ZZZZ=          -1327.7344 XXXY=              0.6625
 XXXZ=             31.8677 YYYX=            -23.9287 YYYZ=             41.6245 ZZZX=             -1.7835
 ZZZY=             33.7574 XXYY=           -948.2284 XXZZ=           -845.7207 YYZZ=           -589.1662
 XXYZ=             14.9578 YYXZ=             16.8483 ZZXY=             -2.3047
 N-N= 1.637408339133D+03 E-N=-5.765413223580D+03  KE= 1.055912291428D+03
 1\1\GINC-CPU-E-532\FOpt\RB3LYP\6-31G(d,p)\C14H26O3Si1\KE291\06-Feb-201
 9\0\\# b3lyp/6-31g(d,p) Opt=(maxcycles=25) scrf=(solvent=chloroform)\\
 P_ng_correct1ginp005\\0,1\C,0.876329744,-0.2653485023,0.3883339768\C,-
 0.5787013072,-0.5823655453,0.7786347387\C,-1.0939710896,0.4525331374,1
 .8365793588\C,-0.3043679013,1.7848454099,1.6795989077\C,0.2049281316,2
 .0537692534,0.285133849\H,1.5114273883,-0.1810274909,1.2819690924\H,-1
 .1606493879,-0.383771713,-0.1285023347\H,-0.8979663649,2.6315377942,2.
 0187341603\H,0.5801666945,1.7406581184,2.3271932483\O,0.8788670287,1.0
 321097919,-0.2886458459\O,0.0790946485,3.1011424151,-0.31686634\C,1.52
 5842328,-1.2424277012,-0.5876802787\C,2.9426623772,-0.8350071889,-1.00
 48515492\C,-0.8237819618,-2.0464504839,1.1637888056\O,-2.4968578558,0.
 6367205281,1.6589896163\Si,-3.5125324801,1.4978034465,0.6242859145\C,-
 5.2258882343,0.8854216709,1.1005278343\C,-3.379215374,3.3582438834,0.9
 044992033\C,-3.1824460812,1.1271240944,-1.1976238477\H,-3.4998319987,3
 .6199349162,1.9612483335\H,-2.4200954853,3.7546647629,0.5569928042\H,-
 4.1710762253,3.8700664902,0.3446225974\H,-2.2035359017,1.4868399862,-1
 .5301550616\H,-3.2483918036,0.05635498,-1.4178445016\H,-3.9377336432,1
 .6357969001,-1.8088568368\H,-5.4391070451,1.0818452965,2.1563642689\H,
 -5.9956899677,1.3878671598,0.5042578929\H,-5.3222571931,-0.1923239438,
 0.9330483394\H,-0.6580554562,-2.7047400025,0.3076438643\H,-0.171480587
 6,-2.3827383049,1.9758469468\H,-1.8606821604,-2.1809361169,1.483410590
 4\H,0.8827305766,-1.3367376375,-1.4715179405\H,1.5564858324,-2.2270057
 753,-0.1097891862\H,3.370037783,-1.5768213038,-1.6859266752\H,2.942765
 207,0.1330421684,-1.5115809435\H,3.6044055616,-0.760464155,-0.13449798
 68\C,-0.9225551765,-0.0536029447,3.293116524\C,-1.3022955656,0.9558190
 719,4.3408869875\C,-0.5001011047,1.3773228206,5.3198183636\H,0.1141517
 386,-0.3757510954,3.4479750172\H,-1.5604987092,-0.9370341772,3.4059016
 272\H,-2.3180388376,1.3424715691,4.2764914104\H,-0.8342547502,2.097581
 8022,6.0609425349\H,0.51928061,1.011124615,5.4222065197\\Version=ES64L
 -G09RevD.01\State=1-A\HF=-1064.4244294\RMSD=3.648e-09\RMSF=5.968e-06\D
 ipole=0.0325018,-1.5664728,0.7908768\Quadrupole=3.912777,-2.2690885,-1
 .6436885,-6.6297984,4.9050789,6.13407\PG=C01 [X(C14H26O3Si1)]\\@


 NO MATTER HOW THIN YOU SLICE IT, IT'S STILL BALONEY

                                   -- ALFRED E. SMITH
 Job cpu time:       0 days  2 hours  1 minutes 21.5 seconds.
 File lengths (MBytes):  RWF=    366 Int=      0 D2E=      0 Chk=     17 Scr=      1
 Normal termination of Gaussian 09 at Wed Feb  6 11:11:42 2019.
