 Entering Gaussian System, Link 0=/usr/local/Cluster-Apps/gaussian/g09/g09
 Initial command:
 /usr/local/Cluster-Apps/gaussian/g09/l1.exe "/home/ke291/rds/hpc-work/06Feb0927IP1/Gau-314096.inp" -scrdir="/home/ke291/rds/hpc-work/06Feb0927IP1/"
 Entering Link 1 = /usr/local/Cluster-Apps/gaussian/g09/l1.exe PID=    314102.
  
 Copyright (c) 1988,1990,1992,1993,1995,1998,2003,2009,2013,
            Gaussian, Inc.  All Rights Reserved.
  
 This is part of the Gaussian(R) 09 program.  It is based on
 the Gaussian(R) 03 system (copyright 2003, Gaussian, Inc.),
 the Gaussian(R) 98 system (copyright 1998, Gaussian, Inc.),
 the Gaussian(R) 94 system (copyright 1995, Gaussian, Inc.),
 the Gaussian 92(TM) system (copyright 1992, Gaussian, Inc.),
 the Gaussian 90(TM) system (copyright 1990, Gaussian, Inc.),
 the Gaussian 88(TM) system (copyright 1988, Gaussian, Inc.),
 the Gaussian 86(TM) system (copyright 1986, Carnegie Mellon
 University), and the Gaussian 82(TM) system (copyright 1983,
 Carnegie Mellon University). Gaussian is a federally registered
 trademark of Gaussian, Inc.
  
 This software contains proprietary and confidential information,
 including trade secrets, belonging to Gaussian, Inc.
  
 This software is provided under written license and may be
 used, copied, transmitted, or stored only in accord with that
 written license.
  
 The following legend is applicable only to US Government
 contracts under FAR:
  
                    RESTRICTED RIGHTS LEGEND
  
 Use, reproduction and disclosure by the US Government is
 subject to restrictions as set forth in subparagraphs (a)
 and (c) of the Commercial Computer Software - Restricted
 Rights clause in FAR 52.227-19.
  
 Gaussian, Inc.
 340 Quinnipiac St., Bldg. 40, Wallingford CT 06492
  
  
 ---------------------------------------------------------------
 Warning -- This program may not be used in any manner that
 competes with the business of Gaussian, Inc. or will provide
 assistance to any competitor of Gaussian, Inc.  The licensee
 of this program is prohibited from giving any competitor of
 Gaussian, Inc. access to this program.  By using this program,
 the user acknowledges that Gaussian, Inc. is engaged in the
 business of creating and licensing software in the field of
 computational chemistry and represents and warrants to the
 licensee that it is not a competitor of Gaussian, Inc. and that
 it will not use this program in any manner prohibited above.
 ---------------------------------------------------------------
  

 Cite this work as:
 Gaussian 09, Revision D.01,
 M. J. Frisch, G. W. Trucks, H. B. Schlegel, G. E. Scuseria, 
 M. A. Robb, J. R. Cheeseman, G. Scalmani, V. Barone, B. Mennucci, 
 G. A. Petersson, H. Nakatsuji, M. Caricato, X. Li, H. P. Hratchian, 
 A. F. Izmaylov, J. Bloino, G. Zheng, J. L. Sonnenberg, M. Hada, 
 M. Ehara, K. Toyota, R. Fukuda, J. Hasegawa, M. Ishida, T. Nakajima, 
 Y. Honda, O. Kitao, H. Nakai, T. Vreven, J. A. Montgomery, Jr., 
 J. E. Peralta, F. Ogliaro, M. Bearpark, J. J. Heyd, E. Brothers, 
 K. N. Kudin, V. N. Staroverov, T. Keith, R. Kobayashi, J. Normand, 
 K. Raghavachari, A. Rendell, J. C. Burant, S. S. Iyengar, J. Tomasi, 
 M. Cossi, N. Rega, J. M. Millam, M. Klene, J. E. Knox, J. B. Cross, 
 V. Bakken, C. Adamo, J. Jaramillo, R. Gomperts, R. E. Stratmann, 
 O. Yazyev, A. J. Austin, R. Cammi, C. Pomelli, J. W. Ochterski, 
 R. L. Martin, K. Morokuma, V. G. Zakrzewski, G. A. Voth, 
 P. Salvador, J. J. Dannenberg, S. Dapprich, A. D. Daniels, 
 O. Farkas, J. B. Foresman, J. V. Ortiz, J. Cioslowski, 
 and D. J. Fox, Gaussian, Inc., Wallingford CT, 2013.
 
 ******************************************
 Gaussian 09:  ES64L-G09RevD.01 24-Apr-2013
                 6-Feb-2019 
 ******************************************
 %nprocshared=2
 Will use up to    2 processors via shared memory.
 %mem=6000MB
 %chk=/home/ke291/rds/hpc-work/06Feb0927IP1/P_ng_4ginp005.chk
 ---------------------------------------------------------------
 # b3lyp/6-31g(d,p) Opt=(maxcycles=25) scrf=(solvent=chloroform)
 ---------------------------------------------------------------
 1/6=25,14=-1,18=20,19=15,26=3,38=1/1,3;
 2/9=110,12=2,17=6,18=5,40=1/2;
 3/5=1,6=6,7=101,11=2,16=1,25=1,30=1,70=2201,71=1,72=7,74=-5/1,2,3;
 4//1;
 5/5=2,38=5,53=7/2;
 6/7=2,8=2,9=2,10=2,28=1/1;
 7//1,2,3,16;
 1/6=25,14=-1,18=20,19=15,26=3/3(2);
 2/9=110/2;
 99//99;
 2/9=110/2;
 3/5=1,6=6,7=101,11=2,16=1,25=1,30=1,70=2205,71=1,72=7,74=-5/1,2,3;
 4/5=5,16=3,69=1/1;
 5/5=2,38=5,53=7/2;
 7//1,2,3,16;
 1/6=25,14=-1,18=20,19=15,26=3/3(-5);
 2/9=110/2;
 6/7=2,8=2,9=2,10=2,19=2,28=1/1;
 99/9=1/99;
 -------------
 P_ng_4ginp005
 -------------
 Symbolic Z-matrix:
 Charge =  0 Multiplicity = 1
 C                     0.58526   1.83872  -0.07328 
 C                    -0.61211   1.02291   0.44298 
 C                    -1.45152   1.83581   1.48771 
 C                    -1.38835   3.3423    1.16527 
 C                    -1.00341   3.66212  -0.25012 
 H                     1.05615   1.24989  -0.87155 
 H                    -1.23967   0.86348  -0.44395 
 H                    -2.35871   3.81489   1.36126 
 H                    -0.67203   3.87082   1.80454 
 O                     0.08595   3.02261  -0.73387 
 O                    -1.59151   4.51541  -0.90607 
 C                     1.68309   2.1968    0.93861 
 C                     2.85568   2.91182   0.27626 
 C                    -0.19232  -0.37202   0.92307 
 O                    -0.79009   1.60129   2.75524 
 Si                   -1.33709   1.96822   4.29566 
 C                     0.14915   2.03264   5.46184 
 C                    -2.20609   3.62611   4.40783 
 C                    -2.49356   0.63148   4.93735 
 H                    -2.50193   3.83085   5.44137 
 H                    -1.54633   4.4349    4.08082 
 H                    -3.10873   3.64594   3.79148 
 H                    -2.7368    0.80942   5.98915 
 H                    -3.4292    0.61275   4.3723 
 H                    -2.0227   -0.35262   4.85605 
 H                    -0.17405   2.25569   6.48273 
 H                     0.67251   1.07214   5.46432 
 H                     0.85001   2.80879   5.14099 
 H                     0.33708  -0.9056    0.12606 
 H                     0.47169  -0.33603   1.79151 
 H                    -1.06589  -0.97341   1.19266 
 H                     2.05903   1.29075   1.42479 
 H                     1.30377   2.85548   1.72391 
 H                     3.63506   3.12106   1.01596 
 H                     3.29572   2.29494  -0.51366 
 H                     2.54461   3.86514  -0.16215 
 C                    -2.92715   1.3086    1.49204 
 C                    -3.6814    1.43188   0.1932 
 C                    -4.17114   0.38822  -0.48836 
 H                    -3.514     1.85832   2.23709 
 H                    -2.9368    0.26705   1.83826 
 H                    -3.85734   2.4342   -0.19546 
 H                    -4.71891   0.53911  -1.41438 
 H                    -4.04168  -0.63394  -0.14596 
 

 GradGradGradGradGradGradGradGradGradGradGradGradGradGradGradGradGradGrad
 Berny optimization.
 Initialization pass.
                           ----------------------------
                           !    Initial Parameters    !
                           ! (Angstroms and Degrees)  !
 --------------------------                            --------------------------
 ! Name  Definition              Value          Derivative Info.                !
 --------------------------------------------------------------------------------
 ! R1    R(1,2)                  1.5381         estimate D2E/DX2                !
 ! R2    R(1,6)                  1.098          estimate D2E/DX2                !
 ! R3    R(1,10)                 1.4447         estimate D2E/DX2                !
 ! R4    R(1,12)                 1.5354         estimate D2E/DX2                !
 ! R5    R(2,3)                  1.5674         estimate D2E/DX2                !
 ! R6    R(2,7)                  1.0981         estimate D2E/DX2                !
 ! R7    R(2,14)                 1.5338         estimate D2E/DX2                !
 ! R8    R(3,4)                  1.5419         estimate D2E/DX2                !
 ! R9    R(3,15)                 1.4488         estimate D2E/DX2                !
 ! R10   R(3,37)                 1.567          estimate D2E/DX2                !
 ! R11   R(4,5)                  1.5013         estimate D2E/DX2                !
 ! R12   R(4,8)                  1.097          estimate D2E/DX2                !
 ! R13   R(4,9)                  1.096          estimate D2E/DX2                !
 ! R14   R(5,10)                 1.3527         estimate D2E/DX2                !
 ! R15   R(5,11)                 1.2265         estimate D2E/DX2                !
 ! R16   R(12,13)                1.5248         estimate D2E/DX2                !
 ! R17   R(12,32)                1.0948         estimate D2E/DX2                !
 ! R18   R(12,33)                1.0929         estimate D2E/DX2                !
 ! R19   R(13,34)                1.0947         estimate D2E/DX2                !
 ! R20   R(13,35)                1.0946         estimate D2E/DX2                !
 ! R21   R(13,36)                1.0944         estimate D2E/DX2                !
 ! R22   R(14,29)                1.0955         estimate D2E/DX2                !
 ! R23   R(14,30)                1.0938         estimate D2E/DX2                !
 ! R24   R(14,31)                1.0943         estimate D2E/DX2                !
 ! R25   R(15,16)                1.6753         estimate D2E/DX2                !
 ! R26   R(16,17)                1.8903         estimate D2E/DX2                !
 ! R27   R(16,18)                1.8752         estimate D2E/DX2                !
 ! R28   R(16,19)                1.8804         estimate D2E/DX2                !
 ! R29   R(17,26)                1.0938         estimate D2E/DX2                !
 ! R30   R(17,27)                1.0938         estimate D2E/DX2                !
 ! R31   R(17,28)                1.0939         estimate D2E/DX2                !
 ! R32   R(18,20)                1.0944         estimate D2E/DX2                !
 ! R33   R(18,21)                1.0938         estimate D2E/DX2                !
 ! R34   R(18,22)                1.0932         estimate D2E/DX2                !
 ! R35   R(19,23)                1.0941         estimate D2E/DX2                !
 ! R36   R(19,24)                1.0932         estimate D2E/DX2                !
 ! R37   R(19,25)                1.094          estimate D2E/DX2                !
 ! R38   R(37,38)                1.507          estimate D2E/DX2                !
 ! R39   R(37,40)                1.0962         estimate D2E/DX2                !
 ! R40   R(37,41)                1.0976         estimate D2E/DX2                !
 ! R41   R(38,39)                1.3392         estimate D2E/DX2                !
 ! R42   R(38,42)                1.0893         estimate D2E/DX2                !
 ! R43   R(39,43)                1.0864         estimate D2E/DX2                !
 ! R44   R(39,44)                1.0857         estimate D2E/DX2                !
 ! A1    A(2,1,6)              107.0628         estimate D2E/DX2                !
 ! A2    A(2,1,10)             108.6057         estimate D2E/DX2                !
 ! A3    A(2,1,12)             117.3301         estimate D2E/DX2                !
 ! A4    A(6,1,10)             104.7878         estimate D2E/DX2                !
 ! A5    A(6,1,12)             107.3113         estimate D2E/DX2                !
 ! A6    A(10,1,12)            110.9376         estimate D2E/DX2                !
 ! A7    A(1,2,3)              111.4405         estimate D2E/DX2                !
 ! A8    A(1,2,7)              104.5244         estimate D2E/DX2                !
 ! A9    A(1,2,14)             111.9856         estimate D2E/DX2                !
 ! A10   A(3,2,7)              107.9131         estimate D2E/DX2                !
 ! A11   A(3,2,14)             114.1805         estimate D2E/DX2                !
 ! A12   A(7,2,14)             106.0919         estimate D2E/DX2                !
 ! A13   A(2,3,4)              110.2052         estimate D2E/DX2                !
 ! A14   A(2,3,15)             104.7544         estimate D2E/DX2                !
 ! A15   A(2,3,37)             109.3696         estimate D2E/DX2                !
 ! A16   A(4,3,15)             108.808          estimate D2E/DX2                !
 ! A17   A(4,3,37)             111.5851         estimate D2E/DX2                !
 ! A18   A(15,3,37)            111.9026         estimate D2E/DX2                !
 ! A19   A(3,4,5)              114.5696         estimate D2E/DX2                !
 ! A20   A(3,4,8)              110.323          estimate D2E/DX2                !
 ! A21   A(3,4,9)              112.0839         estimate D2E/DX2                !
 ! A22   A(5,4,8)              107.6672         estimate D2E/DX2                !
 ! A23   A(5,4,9)              106.2373         estimate D2E/DX2                !
 ! A24   A(8,4,9)              105.4378         estimate D2E/DX2                !
 ! A25   A(4,5,10)             116.2923         estimate D2E/DX2                !
 ! A26   A(4,5,11)             121.9714         estimate D2E/DX2                !
 ! A27   A(10,5,11)            121.5892         estimate D2E/DX2                !
 ! A28   A(1,10,5)             120.148          estimate D2E/DX2                !
 ! A29   A(1,12,13)            111.8977         estimate D2E/DX2                !
 ! A30   A(1,12,32)            110.1927         estimate D2E/DX2                !
 ! A31   A(1,12,33)            111.4659         estimate D2E/DX2                !
 ! A32   A(13,12,32)           108.4767         estimate D2E/DX2                !
 ! A33   A(13,12,33)           107.2428         estimate D2E/DX2                !
 ! A34   A(32,12,33)           107.3895         estimate D2E/DX2                !
 ! A35   A(12,13,34)           110.0978         estimate D2E/DX2                !
 ! A36   A(12,13,35)           110.9991         estimate D2E/DX2                !
 ! A37   A(12,13,36)           111.34           estimate D2E/DX2                !
 ! A38   A(34,13,35)           108.0069         estimate D2E/DX2                !
 ! A39   A(34,13,36)           107.8513         estimate D2E/DX2                !
 ! A40   A(35,13,36)           108.4263         estimate D2E/DX2                !
 ! A41   A(2,14,29)            110.3344         estimate D2E/DX2                !
 ! A42   A(2,14,30)            112.6279         estimate D2E/DX2                !
 ! A43   A(2,14,31)            111.0043         estimate D2E/DX2                !
 ! A44   A(29,14,30)           107.4749         estimate D2E/DX2                !
 ! A45   A(29,14,31)           107.2969         estimate D2E/DX2                !
 ! A46   A(30,14,31)           107.8843         estimate D2E/DX2                !
 ! A47   A(3,15,16)            128.3088         estimate D2E/DX2                !
 ! A48   A(15,16,17)           108.5427         estimate D2E/DX2                !
 ! A49   A(15,16,18)           113.5749         estimate D2E/DX2                !
 ! A50   A(15,16,19)           111.0305         estimate D2E/DX2                !
 ! A51   A(17,16,18)           107.2977         estimate D2E/DX2                !
 ! A52   A(17,16,19)           107.2927         estimate D2E/DX2                !
 ! A53   A(18,16,19)           108.8489         estimate D2E/DX2                !
 ! A54   A(16,17,26)           110.514          estimate D2E/DX2                !
 ! A55   A(16,17,27)           110.3447         estimate D2E/DX2                !
 ! A56   A(16,17,28)           110.3032         estimate D2E/DX2                !
 ! A57   A(26,17,27)           108.5618         estimate D2E/DX2                !
 ! A58   A(26,17,28)           108.5661         estimate D2E/DX2                !
 ! A59   A(27,17,28)           108.4914         estimate D2E/DX2                !
 ! A60   A(16,18,20)           110.3145         estimate D2E/DX2                !
 ! A61   A(16,18,21)           110.8752         estimate D2E/DX2                !
 ! A62   A(16,18,22)           111.405          estimate D2E/DX2                !
 ! A63   A(20,18,21)           107.8831         estimate D2E/DX2                !
 ! A64   A(20,18,22)           107.8108         estimate D2E/DX2                !
 ! A65   A(21,18,22)           108.4261         estimate D2E/DX2                !
 ! A66   A(16,19,23)           110.4355         estimate D2E/DX2                !
 ! A67   A(16,19,24)           111.2335         estimate D2E/DX2                !
 ! A68   A(16,19,25)           110.451          estimate D2E/DX2                !
 ! A69   A(23,19,24)           108.0231         estimate D2E/DX2                !
 ! A70   A(23,19,25)           108.2656         estimate D2E/DX2                !
 ! A71   A(24,19,25)           108.3343         estimate D2E/DX2                !
 ! A72   A(3,37,38)            116.1942         estimate D2E/DX2                !
 ! A73   A(3,37,40)            109.7119         estimate D2E/DX2                !
 ! A74   A(3,37,41)            109.1726         estimate D2E/DX2                !
 ! A75   A(38,37,40)           106.0701         estimate D2E/DX2                !
 ! A76   A(38,37,41)           110.1865         estimate D2E/DX2                !
 ! A77   A(40,37,41)           104.8777         estimate D2E/DX2                !
 ! A78   A(37,38,39)           123.91           estimate D2E/DX2                !
 ! A79   A(37,38,42)           117.6199         estimate D2E/DX2                !
 ! A80   A(39,38,42)           118.4506         estimate D2E/DX2                !
 ! A81   A(38,39,43)           120.6581         estimate D2E/DX2                !
 ! A82   A(38,39,44)           121.9761         estimate D2E/DX2                !
 ! A83   A(43,39,44)           117.3658         estimate D2E/DX2                !
 ! D1    D(6,1,2,3)           -174.0719         estimate D2E/DX2                !
 ! D2    D(6,1,2,7)            -57.7706         estimate D2E/DX2                !
 ! D3    D(6,1,2,14)            56.6467         estimate D2E/DX2                !
 ! D4    D(10,1,2,3)           -61.4254         estimate D2E/DX2                !
 ! D5    D(10,1,2,7)            54.8758         estimate D2E/DX2                !
 ! D6    D(10,1,2,14)          169.2931         estimate D2E/DX2                !
 ! D7    D(12,1,2,3)            65.3311         estimate D2E/DX2                !
 ! D8    D(12,1,2,7)          -178.3677         estimate D2E/DX2                !
 ! D9    D(12,1,2,14)          -63.9503         estimate D2E/DX2                !
 ! D10   D(2,1,10,5)            36.7738         estimate D2E/DX2                !
 ! D11   D(6,1,10,5)           150.9207         estimate D2E/DX2                !
 ! D12   D(12,1,10,5)          -93.5788         estimate D2E/DX2                !
 ! D13   D(2,1,12,13)          175.7027         estimate D2E/DX2                !
 ! D14   D(2,1,12,32)           54.9215         estimate D2E/DX2                !
 ! D15   D(2,1,12,33)          -64.2086         estimate D2E/DX2                !
 ! D16   D(6,1,12,13)           55.236          estimate D2E/DX2                !
 ! D17   D(6,1,12,32)          -65.5453         estimate D2E/DX2                !
 ! D18   D(6,1,12,33)          175.3246         estimate D2E/DX2                !
 ! D19   D(10,1,12,13)         -58.6868         estimate D2E/DX2                !
 ! D20   D(10,1,12,32)        -179.4681         estimate D2E/DX2                !
 ! D21   D(10,1,12,33)          61.4018         estimate D2E/DX2                !
 ! D22   D(1,2,3,4)             31.279          estimate D2E/DX2                !
 ! D23   D(1,2,3,15)           -85.6045         estimate D2E/DX2                !
 ! D24   D(1,2,3,37)           154.2976         estimate D2E/DX2                !
 ! D25   D(7,2,3,4)            -82.9325         estimate D2E/DX2                !
 ! D26   D(7,2,3,15)           160.1841         estimate D2E/DX2                !
 ! D27   D(7,2,3,37)            40.0861         estimate D2E/DX2                !
 ! D28   D(14,2,3,4)           159.3926         estimate D2E/DX2                !
 ! D29   D(14,2,3,15)           42.5091         estimate D2E/DX2                !
 ! D30   D(14,2,3,37)          -77.5889         estimate D2E/DX2                !
 ! D31   D(1,2,14,29)          -55.5281         estimate D2E/DX2                !
 ! D32   D(1,2,14,30)           64.5665         estimate D2E/DX2                !
 ! D33   D(1,2,14,31)         -174.3404         estimate D2E/DX2                !
 ! D34   D(3,2,14,29)          176.6364         estimate D2E/DX2                !
 ! D35   D(3,2,14,30)          -63.269          estimate D2E/DX2                !
 ! D36   D(3,2,14,31)           57.8241         estimate D2E/DX2                !
 ! D37   D(7,2,14,29)           57.9225         estimate D2E/DX2                !
 ! D38   D(7,2,14,30)          178.0171         estimate D2E/DX2                !
 ! D39   D(7,2,14,31)          -60.8898         estimate D2E/DX2                !
 ! D40   D(2,3,4,5)             20.6156         estimate D2E/DX2                !
 ! D41   D(2,3,4,8)            142.2962         estimate D2E/DX2                !
 ! D42   D(2,3,4,9)           -100.5354         estimate D2E/DX2                !
 ! D43   D(15,3,4,5)           134.9479         estimate D2E/DX2                !
 ! D44   D(15,3,4,8)          -103.3714         estimate D2E/DX2                !
 ! D45   D(15,3,4,9)            13.797          estimate D2E/DX2                !
 ! D46   D(37,3,4,5)          -101.0975         estimate D2E/DX2                !
 ! D47   D(37,3,4,8)            20.5832         estimate D2E/DX2                !
 ! D48   D(37,3,4,9)           137.7516         estimate D2E/DX2                !
 ! D49   D(2,3,15,16)         -168.4373         estimate D2E/DX2                !
 ! D50   D(4,3,15,16)           73.7228         estimate D2E/DX2                !
 ! D51   D(37,3,15,16)         -50.0431         estimate D2E/DX2                !
 ! D52   D(2,3,37,38)          -61.0008         estimate D2E/DX2                !
 ! D53   D(2,3,37,40)          178.7375         estimate D2E/DX2                !
 ! D54   D(2,3,37,41)           64.3233         estimate D2E/DX2                !
 ! D55   D(4,3,37,38)           61.1943         estimate D2E/DX2                !
 ! D56   D(4,3,37,40)          -59.0674         estimate D2E/DX2                !
 ! D57   D(4,3,37,41)         -173.4817         estimate D2E/DX2                !
 ! D58   D(15,3,37,38)        -176.6145         estimate D2E/DX2                !
 ! D59   D(15,3,37,40)          63.1238         estimate D2E/DX2                !
 ! D60   D(15,3,37,41)         -51.2904         estimate D2E/DX2                !
 ! D61   D(3,4,5,10)           -48.6838         estimate D2E/DX2                !
 ! D62   D(3,4,5,11)           135.6601         estimate D2E/DX2                !
 ! D63   D(8,4,5,10)          -171.8051         estimate D2E/DX2                !
 ! D64   D(8,4,5,11)            12.5387         estimate D2E/DX2                !
 ! D65   D(9,4,5,10)            75.6296         estimate D2E/DX2                !
 ! D66   D(9,4,5,11)          -100.0265         estimate D2E/DX2                !
 ! D67   D(4,5,10,1)            17.4739         estimate D2E/DX2                !
 ! D68   D(11,5,10,1)         -166.852          estimate D2E/DX2                !
 ! D69   D(1,12,13,34)        -177.9912         estimate D2E/DX2                !
 ! D70   D(1,12,13,35)         -58.4503         estimate D2E/DX2                !
 ! D71   D(1,12,13,36)          62.444          estimate D2E/DX2                !
 ! D72   D(32,12,13,34)        -56.2187         estimate D2E/DX2                !
 ! D73   D(32,12,13,35)         63.3222         estimate D2E/DX2                !
 ! D74   D(32,12,13,36)       -175.7834         estimate D2E/DX2                !
 ! D75   D(33,12,13,34)         59.4804         estimate D2E/DX2                !
 ! D76   D(33,12,13,35)        179.0213         estimate D2E/DX2                !
 ! D77   D(33,12,13,36)        -60.0843         estimate D2E/DX2                !
 ! D78   D(3,15,16,17)        -159.3266         estimate D2E/DX2                !
 ! D79   D(3,15,16,18)         -40.0816         estimate D2E/DX2                !
 ! D80   D(3,15,16,19)          82.9718         estimate D2E/DX2                !
 ! D81   D(15,16,17,26)       -179.1427         estimate D2E/DX2                !
 ! D82   D(15,16,17,27)        -59.0611         estimate D2E/DX2                !
 ! D83   D(15,16,17,28)         60.7972         estimate D2E/DX2                !
 ! D84   D(18,16,17,26)         57.7446         estimate D2E/DX2                !
 ! D85   D(18,16,17,27)        177.8261         estimate D2E/DX2                !
 ! D86   D(18,16,17,28)        -62.3155         estimate D2E/DX2                !
 ! D87   D(19,16,17,26)        -59.0858         estimate D2E/DX2                !
 ! D88   D(19,16,17,27)         60.9958         estimate D2E/DX2                !
 ! D89   D(19,16,17,28)       -179.1459         estimate D2E/DX2                !
 ! D90   D(15,16,18,20)       -177.5588         estimate D2E/DX2                !
 ! D91   D(15,16,18,21)        -58.1111         estimate D2E/DX2                !
 ! D92   D(15,16,18,22)         62.7424         estimate D2E/DX2                !
 ! D93   D(17,16,18,20)        -57.605          estimate D2E/DX2                !
 ! D94   D(17,16,18,21)         61.8426         estimate D2E/DX2                !
 ! D95   D(17,16,18,22)       -177.3039         estimate D2E/DX2                !
 ! D96   D(19,16,18,20)         58.1986         estimate D2E/DX2                !
 ! D97   D(19,16,18,21)        177.6463         estimate D2E/DX2                !
 ! D98   D(19,16,18,22)        -61.5002         estimate D2E/DX2                !
 ! D99   D(15,16,19,23)        172.3232         estimate D2E/DX2                !
 ! D100  D(15,16,19,24)        -67.7429         estimate D2E/DX2                !
 ! D101  D(15,16,19,25)         52.5928         estimate D2E/DX2                !
 ! D102  D(17,16,19,23)         53.864          estimate D2E/DX2                !
 ! D103  D(17,16,19,24)        173.798          estimate D2E/DX2                !
 ! D104  D(17,16,19,25)        -65.8663         estimate D2E/DX2                !
 ! D105  D(18,16,19,23)        -61.9429         estimate D2E/DX2                !
 ! D106  D(18,16,19,24)         57.9911         estimate D2E/DX2                !
 ! D107  D(18,16,19,25)        178.3268         estimate D2E/DX2                !
 ! D108  D(3,37,38,39)         118.8116         estimate D2E/DX2                !
 ! D109  D(3,37,38,42)         -62.8249         estimate D2E/DX2                !
 ! D110  D(40,37,38,39)       -118.9874         estimate D2E/DX2                !
 ! D111  D(40,37,38,42)         59.3761         estimate D2E/DX2                !
 ! D112  D(41,37,38,39)         -5.9958         estimate D2E/DX2                !
 ! D113  D(41,37,38,42)        172.3677         estimate D2E/DX2                !
 ! D114  D(37,38,39,43)        179.1914         estimate D2E/DX2                !
 ! D115  D(37,38,39,44)         -0.7758         estimate D2E/DX2                !
 ! D116  D(42,38,39,43)          0.8406         estimate D2E/DX2                !
 ! D117  D(42,38,39,44)       -179.1266         estimate D2E/DX2                !
 --------------------------------------------------------------------------------
 Trust Radius=3.00D-01 FncErr=1.00D-07 GrdErr=1.00D-06
 Number of steps in this run=     25 maximum allowed number of steps=    264.
 GradGradGradGradGradGradGradGradGradGradGradGradGradGradGradGradGradGrad

                          Input orientation:                          
 ---------------------------------------------------------------------
 Center     Atomic      Atomic             Coordinates (Angstroms)
 Number     Number       Type             X           Y           Z
 ---------------------------------------------------------------------
      1          6           0        0.585264    1.838722   -0.073278
      2          6           0       -0.612111    1.022910    0.442984
      3          6           0       -1.451524    1.835812    1.487707
      4          6           0       -1.388351    3.342304    1.165266
      5          6           0       -1.003412    3.662117   -0.250123
      6          1           0        1.056146    1.249886   -0.871546
      7          1           0       -1.239670    0.863483   -0.443945
      8          1           0       -2.358706    3.814891    1.361259
      9          1           0       -0.672028    3.870820    1.804542
     10          8           0        0.085946    3.022607   -0.733865
     11          8           0       -1.591505    4.515411   -0.906071
     12          6           0        1.683090    2.196801    0.938610
     13          6           0        2.855681    2.911823    0.276261
     14          6           0       -0.192320   -0.372019    0.923067
     15          8           0       -0.790092    1.601288    2.755239
     16         14           0       -1.337090    1.968223    4.295660
     17          6           0        0.149153    2.032644    5.461844
     18          6           0       -2.206091    3.626113    4.407828
     19          6           0       -2.493563    0.631479    4.937347
     20          1           0       -2.501931    3.830853    5.441368
     21          1           0       -1.546327    4.434895    4.080821
     22          1           0       -3.108726    3.645943    3.791476
     23          1           0       -2.736799    0.809420    5.989147
     24          1           0       -3.429199    0.612745    4.372303
     25          1           0       -2.022701   -0.352617    4.856052
     26          1           0       -0.174048    2.255687    6.482726
     27          1           0        0.672511    1.072142    5.464316
     28          1           0        0.850007    2.808793    5.140988
     29          1           0        0.337077   -0.905595    0.126061
     30          1           0        0.471687   -0.336034    1.791510
     31          1           0       -1.065889   -0.973413    1.192657
     32          1           0        2.059026    1.290745    1.424788
     33          1           0        1.303767    2.855479    1.723912
     34          1           0        3.635063    3.121062    1.015961
     35          1           0        3.295721    2.294935   -0.513660
     36          1           0        2.544609    3.865138   -0.162153
     37          6           0       -2.927145    1.308600    1.492037
     38          6           0       -3.681402    1.431875    0.193201
     39          6           0       -4.171142    0.388221   -0.488355
     40          1           0       -3.513996    1.858316    2.237087
     41          1           0       -2.936798    0.267048    1.838261
     42          1           0       -3.857344    2.434204   -0.195463
     43          1           0       -4.718908    0.539110   -1.414382
     44          1           0       -4.041684   -0.633942   -0.145956
 ---------------------------------------------------------------------
                    Distance matrix (angstroms):
                    1          2          3          4          5
     1  C    0.000000
     2  C    1.538110   0.000000
     3  C    2.566162   1.567441   0.000000
     4  C    2.773068   2.550260   1.541907   0.000000
     5  C    2.424858   2.756615   2.560517   1.501261   0.000000
     6  H    1.098039   2.136022   3.492534   3.808199   3.232152
     7  H    2.102111   1.098130   2.172921   2.959091   2.815269
     8  H    3.824931   3.418915   2.180762   1.096969   2.111093
     9  H    3.039147   3.157217   2.202103   1.095957   2.091655
    10  O    1.444741   2.423024   2.950878   2.425378   1.352657
    11  O    3.549159   3.869977   3.595834   2.389119   1.226471
    12  C    1.535370   2.625188   3.202753   3.285925   3.282915
    13  C    2.535452   3.952388   4.601893   4.357459   3.966437
    14  C    2.546511   1.533796   2.603638   3.909648   4.278843
    15  O    3.154122   2.390130   1.448838   2.432502   3.650304
    16  Si   4.774917   4.032657   2.813401   3.419078   4.862588
    17  C    5.555661   5.175717   4.288901   4.747600   6.050633
    18  C    5.573755   5.003741   3.507372   3.356107   4.810846
    19  C    6.003580   4.887983   3.799510   4.774794   6.189924
    20  H    6.626513   6.036539   4.551371   4.445648   5.887877
    21  H    5.342315   5.074274   3.672664   3.117559   4.432721
    22  H    5.643397   4.932118   3.366043   3.154182   4.557097
    23  H    6.989175   5.943046   4.792533   5.612810   7.076087
    24  H    6.114092   4.852192   3.705130   4.679812   6.045654
    25  H    5.991806   4.832909   4.057242   5.260869   6.574957
    26  H    6.612987   6.179816   5.172858   5.561533   6.927997
    27  H    5.591083   5.183286   4.572541   5.280399   6.493959
    28  H    5.310339   5.234349   4.426082   4.593609   5.764321
    29  H    2.762718   2.172678   3.545206   4.701244   4.775188
    30  H    2.867036   2.199970   2.916839   4.169184   4.725399
    31  H    3.498142   2.180190   2.850880   4.327834   4.855271
    32  H    2.171740   2.858434   3.553170   4.020032   4.219865
    33  H    2.186306   2.944431   2.947396   2.792236   3.141744
    34  H    3.483118   4.771691   5.267616   5.030500   4.838508
    35  H    2.783639   4.219522   5.172291   5.084910   4.518980
    36  H    2.820158   4.290610   4.775906   4.183727   3.554913
    37  C    3.881785   2.557638   1.566981   2.571112   3.503557
    38  C    4.294296   3.106476   2.609840   3.138906   3.513139
    39  C    4.989954   3.733219   3.660145   4.382350   4.561761
    40  H    4.705540   3.512498   2.194509   2.805243   3.967738
    41  H    4.304540   2.814657   2.188595   3.508249   4.430104
    42  H    4.484004   3.595956   2.996515   2.961782   3.107360
    43  H    5.623326   4.533172   4.558438   5.060147   4.991351
    44  H    5.246713   3.854086   3.934141   4.956815   5.262896
                    6          7          8          9         10
     6  H    0.000000
     7  H    2.367049   0.000000
     8  H    4.819324   3.636181   0.000000
     9  H    4.125206   3.797629   1.744853   0.000000
    10  O    2.025533   2.550123   3.315657   2.781636   0.000000
    11  O    4.204153   3.697827   2.494015   2.934000   2.252101
    12  C    2.136907   3.497388   4.374124   3.016415   2.455605
    13  C    2.705147   4.635331   5.402091   3.962329   2.950264
    14  C    2.722109   2.119464   4.734496   4.359908   3.787656
    15  O    4.084807   3.313798   3.050208   2.463441   3.868002
    16  Si   5.739652   4.867627   3.614497   3.204349   5.332249
    17  C    6.445710   6.178520   5.126457   4.174816   6.274618
    18  C    6.645332   5.666198   3.056225   3.031556   5.661683
    19  C    6.835649   5.530314   4.789645   4.860636   6.673380
    20  H    7.692476   6.710849   4.082653   4.071443   6.744173
    21  H    6.437631   5.772567   2.905234   2.502804   5.276369
    22  H    6.695597   5.401319   2.548927   3.152138   5.574333
    23  H    7.851723   6.605225   5.531108   5.580893   7.620038
    24  H    6.929807   5.296523   4.523945   4.981008   6.651062
    25  H    6.697215   5.493815   5.449275   5.382699   6.861902
    26  H    7.523984   7.145107   5.782151   4.974138   7.261883
    27  H    6.349954   6.213495   5.791893   4.799409   6.524249
    28  H    6.214761   6.272357   5.059093   3.817900   5.928187
    29  H    2.481608   2.437350   5.574581   5.162338   4.029058
    30  H    3.154140   3.060203   5.042462   4.359573   4.219809
    31  H    3.702300   2.466344   4.962626   4.898584   4.583272
    32  H    2.506110   3.815247   5.088389   3.776196   3.398849
    33  H    3.061968   3.890594   3.803380   2.222878   2.748033
    34  H    3.703349   5.566957   6.043666   4.442413   3.958259
    35  H    2.497180   4.756436   6.148019   4.858035   3.298583
    36  H    3.091651   4.838399   5.134765   3.770235   2.661153
    37  C    4.632125   2.606478   2.573270   3.427562   4.119609
    38  C    4.859132   2.586712   2.965240   4.195379   4.193184
    39  C    5.311670   2.970080   4.295121   5.443314   5.012291
    40  H    5.560574   3.653790   2.435150   3.509138   4.810583
    41  H    4.924696   2.905932   3.626143   4.256465   4.831761
    42  H    5.099224   3.062862   2.564292   4.026180   4.023137
    43  H    5.843896   3.626577   4.899539   6.151341   5.451374
    44  H    5.482988   3.190981   4.989612   5.954150   5.545567
                   11         12         13         14         15
    11  O    0.000000
    12  C    4.416081   0.000000
    13  C    4.873076   1.524773   0.000000
    14  C    5.402817   3.180604   4.526841   0.000000
    15  O    4.747585   3.125925   4.599402   2.758283   0.000000
    16  Si   5.797491   4.521451   5.884325   4.261645   1.675334
    17  C    7.052968   4.779075   5.915110   5.147767   2.897233
    18  C    5.422738   5.404085   6.572792   5.673085   2.972544
    19  C    7.074190   5.990372   7.452523   4.734678   2.933247
    20  H    6.448835   6.360767   7.498463   6.588891   3.888013
    21  H    4.987747   5.031072   6.014325   5.908567   3.218445
    22  H    5.012473   5.761975   6.962027   5.733865   3.260439
    23  H    7.911390   6.853333   8.266378   5.790970   3.856797
    24  H    6.816829   6.358851   7.846212   4.831602   3.249154
    25  H    7.555507   5.964794   7.445110   4.338092   3.122577
    26  H    7.855562   5.847192   6.937577   6.149389   3.834307
    27  H    7.587075   4.771597   5.921703   4.843189   3.123828
    28  H    6.740953   4.327649   5.262976   5.384688   3.136844
    29  H    5.845685   3.478052   4.575872   1.095529   3.803623
    30  H    5.922012   2.934312   4.304414   1.093798   2.504811
    31  H    5.899841   4.203770   5.595851   1.094293   3.024370
    32  H    5.399792   1.094822   2.140483   2.843425   3.159748
    33  H    4.249092   1.092905   2.123041   3.646419   2.649694
    34  H    5.740682   2.161120   1.094702   5.182577   4.991673
    35  H    5.382330   2.172394   1.094605   4.619876   5.278325
    36  H    4.252494   2.176521   1.094432   5.159649   4.975583
    37  C    4.221196   4.727520   6.122868   3.259981   2.499668
    38  C    3.883846   5.469783   6.703029   3.995051   3.866835
    39  C    4.884947   6.291202   7.505295   4.289651   4.839828
    40  H    4.542639   5.367524   6.747407   4.211244   2.784636
    41  H    5.233523   5.086913   6.556485   2.962794   2.688753
    42  H    3.157596   5.660291   6.746506   4.749568   4.336868
    43  H    5.084289   7.019266   8.115568   5.175309   5.826625
    44  H    5.752998   6.477841   7.766876   4.003625   4.897554
                   16         17         18         19         20
    16  Si   0.000000
    17  C    1.890252   0.000000
    18  C    1.875192   3.032700   0.000000
    19  C    1.880446   3.036825   3.054646   0.000000
    20  H    2.477679   3.203470   1.094370   3.238843   0.000000
    21  H    2.484835   3.248490   1.093778   4.012090   1.768936
    22  H    2.491514   4.000830   1.093176   3.283053   1.767636
    23  H    2.483930   3.178529   3.273527   1.094125   3.079656
    24  H    2.494016   4.000977   3.252329   1.093179   3.515529
    25  H    2.484029   3.282286   4.008095   1.093967   4.251315
    26  H    2.493704   1.093804   3.211303   3.225895   2.997435
    27  H    2.491428   1.093834   3.990650   3.239738   4.205722
    28  H    2.490890   1.093870   3.247348   3.995200   3.517147
    29  H    5.333594   6.094189   6.733321   5.789956   7.664620
    30  H    3.853835   4.380184   5.451075   4.430020   6.287035
    31  H    4.284320   5.360845   5.726519   4.317017   6.572270
    32  H    4.498276   4.527234   5.704708   5.787812   6.586911
    33  H    3.791469   3.997790   4.485129   5.449042   5.408712
    34  H    6.066941   5.753442   6.773398   7.689951   7.599390
    35  H    6.685749   6.758427   7.500868   8.123815   8.451874
    36  H    6.207896   6.381660   6.596288   7.864136   7.541100
    37  C    3.289936   5.074172   3.793761   3.537887   4.705293
    38  C    4.755380   6.541611   4.975370   4.955655   5.889780
    39  C    5.780576   7.534849   6.190152   5.684337   7.056883
    40  H    2.998120   4.883453   3.089958   3.136529   3.896485
    41  H    3.389966   5.076493   4.291844   3.151762   5.086472
    42  H    5.170977   6.943946   5.033644   5.608516   5.963358
    43  H    6.788493   8.556351   7.052798   6.730910   7.921608
    44  H    5.814984   7.491410   6.500340   5.462411   7.315970
                   21         22         23         24         25
    21  H    0.000000
    22  H    1.774051   0.000000
    23  H    4.266497   3.607485   0.000000
    24  H    4.270714   3.104892   1.769826   0.000000
    25  H    4.873211   4.277997   1.773181   1.773182   0.000000
    26  H    3.521540   4.217579   2.983790   4.212974   3.587037
    27  H    4.259743   4.870380   3.459460   4.269375   3.108712
    28  H    3.083923   4.265392   4.193095   4.870843   4.281139
    29  H    6.907110   6.784197   6.838550   5.875437   5.314805
    30  H    5.663487   5.716237   5.406163   4.772587   3.951413
    31  H    6.149968   5.680272   5.383006   4.267468   3.836840
    32  H    5.471632   6.152547   6.638146   6.266430   5.579848
    33  H    4.021518   4.936573   6.221315   5.868969   5.582792
    34  H    6.161682   7.311475   8.406955   8.213433   7.669618
    35  H    7.009573   7.834307   8.993584   8.480976   8.008055
    36  H    5.921419   6.902132   8.664247   8.174701   7.989503
    37  C    4.287445   3.283834   4.528732   3.005363   3.859308
    38  C    5.356329   4.263524   5.905312   4.266084   5.260977
    39  C    6.643989   5.482557   6.647765   4.922082   5.807523
    40  H    3.729589   2.403327   3.972678   2.473416   3.737802
    41  H    4.932893   3.906602   4.190945   2.604483   3.213506
    42  H    5.256441   4.233724   6.491914   4.936143   6.053932
    43  H    7.445782   6.272643   7.669033   5.929123   6.883535
    44  H    7.055888   5.889923   6.436265   4.726947   5.401437
                   26         27         28         29         30
    26  H    0.000000
    27  H    1.776119   0.000000
    28  H    1.776197   1.775388   0.000000
    29  H    7.117734   5.702712   6.261730   0.000000
    30  H    5.398287   3.938628   4.609996   1.765287   0.000000
    31  H    6.261573   5.045136   5.793536   1.763672   1.768903
    32  H    5.612528   4.276447   4.192414   3.078264   2.302290
    33  H    5.018964   4.191586   3.447388   4.199202   3.298891
    34  H    6.718908   5.723867   4.986973   5.280398   4.749730
    35  H    7.809626   6.641736   6.182282   4.405248   4.495662
    36  H    7.357707   6.554596   5.666643   5.264614   5.075791
    37  C    5.777845   5.365858   5.461895   4.174170   3.787686
    38  C    7.248332   6.846212   6.849100   4.649349   4.788344
    39  C    8.249858   7.704740   7.922159   4.730275   5.222853
    40  H    5.416512   5.344148   5.327342   5.189065   4.571584
    41  H    5.758344   5.179147   5.631018   3.876207   3.461743
    42  H    7.628679   7.376171   7.125811   5.371294   5.510244
    43  H    9.271823   8.756027   8.895906   5.479336   6.163270
    44  H    8.200487   7.523929   7.983285   4.395604   4.920675
                   31         32         33         34         35
    31  H    0.000000
    32  H    3.865927   0.000000
    33  H    4.534084   1.763033   0.000000
    34  H    6.236577   2.449713   2.450851   0.000000
    35  H    5.711152   2.509062   3.047756   1.771265   0.000000
    36  H    6.187308   3.062952   2.473124   1.769376   1.775743
    37  C    2.959981   4.986656   4.510789   6.824532   6.612090
    38  C    3.691237   5.872754   5.405704   7.553870   7.065746
    39  C    3.784501   6.579488   6.399697   8.406439   7.706506
    40  H    3.886226   5.660436   4.946567   7.361706   7.357275
    41  H    2.335776   5.116363   4.969451   7.211860   6.963343
    42  H    4.618544   6.239883   5.522548   7.620727   7.161493
    43  H    4.735919   7.386896   7.175449   9.075344   8.253999
    44  H    3.280622   6.587133   6.651790   8.624532   7.908921
                   36         37         38         39         40
    36  H    0.000000
    37  C    6.261974   0.000000
    38  C    6.694046   1.507009   0.000000
    39  C    7.569456   2.513280   1.339245   0.000000
    40  H    6.818386   1.096212   2.094599   3.165605   0.000000
    41  H    6.855197   1.097631   2.148832   2.636556   1.739067
    42  H    6.560006   2.231571   1.089348   2.090527   2.523259
    43  H    8.086360   3.499972   2.111343   1.086435   4.065138
    44  H    7.976292   2.774651   2.124248   1.085732   3.488366
                   41         42         43         44
    41  H    0.000000
    42  H    3.111270   0.000000
    43  H    3.718820   2.412351   0.000000
    44  H    2.443291   3.074077   1.855691   0.000000
 Stoichiometry    C14H26O3Si
 Framework group  C1[X(C14H26O3Si)]
 Deg. of freedom   126
 Full point group                 C1      NOp   1
 Largest Abelian subgroup         C1      NOp   1
 Largest concise Abelian subgroup C1      NOp   1
                         Standard orientation:                         
 ---------------------------------------------------------------------
 Center     Atomic      Atomic             Coordinates (Angstroms)
 Number     Number       Type             X           Y           Z
 ---------------------------------------------------------------------
      1          6           0        2.113451   -0.844495   -0.734412
      2          6           0        1.147680    0.273473   -1.162449
      3          6           0        0.036301    0.514663   -0.083777
      4          6           0        0.586892    0.213664    1.324671
      5          6           0        2.084048    0.248117    1.430136
      6          1           0        2.916889   -0.879940   -1.482022
      7          1           0        1.773378    1.174653   -1.210082
      8          1           0        0.185351    0.930127    2.051848
      9          1           0        0.276869   -0.773482    1.685988
     10          8           0        2.766988   -0.445089    0.490595
     11          8           0        2.656847    0.803796    2.361454
     12          6           0        1.539666   -2.263413   -0.612752
     13          6           0        2.620566   -3.287761   -0.285187
     14          6           0        0.608788    0.054569   -2.581677
     15          8           0       -0.997750   -0.450555   -0.397184
     16         14           0       -2.557069   -0.535903    0.209436
     17          6           0       -3.205365   -2.293309   -0.044117
     18          6           0       -2.670222   -0.158971    2.042865
     19          6           0       -3.707723    0.624088   -0.721421
     20          1           0       -3.701572   -0.271895    2.391019
     21          1           0       -2.043634   -0.844146    2.621028
     22          1           0       -2.354226    0.864774    2.259947
     23          1           0       -4.744716    0.463183   -0.411800
     24          1           0       -3.455736    1.670278   -0.528994
     25          1           0       -3.640040    0.446361   -1.798731
     26          1           0       -4.230139   -2.381255    0.328052
     27          1           0       -3.197497   -2.551911   -1.106914
     28          1           0       -2.577306   -3.010615    0.492135
     29          1           0        1.436774   -0.047700   -3.291722
     30          1           0       -0.007322   -0.845470   -2.663717
     31          1           0        0.004190    0.906527   -2.907414
     32          1           0        1.055932   -2.557083   -1.549979
     33          1           0        0.786211   -2.323818    0.176613
     34          1           0        2.186308   -4.291653   -0.240548
     35          1           0        3.402731   -3.291169   -1.050934
     36          1           0        3.085681   -3.080041    0.683473
     37          6           0       -0.485815    1.987838   -0.195929
     38          6           0        0.533354    3.074063    0.033165
     39          6           0        0.872639    3.986325   -0.886748
     40          1           0       -1.279440    2.155979    0.541342
     41          1           0       -0.972620    2.124571   -1.170157
     42          1           0        0.999114    3.130365    1.016312
     43          1           0        1.605828    4.755380   -0.660191
     44          1           0        0.433692    3.992296   -1.879776
 ---------------------------------------------------------------------
 Rotational constants (GHZ):      0.4293618      0.3144965      0.2515270
 Standard basis: 6-31G(d,p) (6D, 7F)
 There are   404 symmetry adapted cartesian basis functions of A   symmetry.
 There are   404 symmetry adapted basis functions of A   symmetry.
   404 basis functions,   710 primitive gaussians,   404 cartesian basis functions
    74 alpha electrons       74 beta electrons
       nuclear repulsion energy      1644.8224208674 Hartrees.
 NAtoms=   44 NActive=   44 NUniq=   44 SFac= 1.00D+00 NAtFMM=   60 NAOKFM=F Big=F
 Integral buffers will be    131072 words long.
 Raffenetti 2 integral format.
 Two-electron integral symmetry is turned on.
 ------------------------------------------------------------------------------
 Polarizable Continuum Model (PCM)
 =================================
 Model                : PCM (using non-symmetric T matrix).
 Atomic radii         : UFF (Universal Force Field).
 Polarization charges : Total charges.
 Charge compensation  : None.
 Solution method      : On-the-fly selection.
 Cavity type          : Scaled VdW (van der Waals Surface) (Alpha=1.100).
 Cavity algorithm     : GePol (No added spheres)
                        Default sphere list used, NSphG=   44.
                        Lebedev-Laikov grids with approx.  5.0 points / Ang**2.
                        Smoothing algorithm: Karplus/York (Gamma=1.0000).
                        Polarization charges: spherical gaussians, with
                                              point-specific exponents (IZeta= 3).
                        Self-potential: point-specific (ISelfS= 7).
                        Self-field    : sphere-specific E.n sum rule (ISelfD= 2).
 1st derivatives      : Analytical E(r).r(x)/FMM algorithm (CHGder, D1EAlg=3).
                        Cavity 1st derivative terms included.
 Solvent              : Chloroform, Eps=   4.711300 Eps(inf)=   2.090627
 ------------------------------------------------------------------------------
 One-electron integrals computed using PRISM.
 NBasis=   404 RedAO= T EigKep=  1.40D-03  NBF=   404
 NBsUse=   404 1.00D-06 EigRej= -1.00D+00 NBFU=   404
 ExpMin= 7.78D-02 ExpMax= 1.61D+04 ExpMxC= 2.43D+03 IAcc=2 IRadAn=         4 AccDes= 0.00D+00
 Harris functional with IExCor=  402 and IRadAn=       4 diagonalized for initial guess.
 HarFok:  IExCor=  402 AccDes= 0.00D+00 IRadAn=         4 IDoV= 1 UseB2=F ITyADJ=14
 ICtDFT=  3500011 ScaDFX=  1.000000  1.000000  1.000000  1.000000
 FoFCou: FMM=F IPFlag=           0 FMFlag=      100000 FMFlg1=           0
         NFxFlg=           0 DoJE=T BraDBF=F KetDBF=T FulRan=T
         wScrn=  0.000000 ICntrl=     500 IOpCl=  0 I1Cent=   200000004 NGrid=           0
         NMat0=    1 NMatS0=      1 NMatT0=    0 NMatD0=    1 NMtDS0=    0 NMtDT0=    0
 Petite list used in FoFCou.
 Requested convergence on RMS density matrix=1.00D-08 within 128 cycles.
 Requested convergence on MAX density matrix=1.00D-06.
 Requested convergence on             energy=1.00D-06.
 No special actions if energy rises.
 Inv3:  Mode=1 IEnd=    24470208.
 Iteration    1 A*A^-1 deviation from unit magnitude is 4.11D-15 for   1946.
 Iteration    1 A*A^-1 deviation from orthogonality  is 4.80D-15 for   2239   1946.
 Iteration    1 A^-1*A deviation from unit magnitude is 4.44D-15 for   2820.
 Iteration    1 A^-1*A deviation from orthogonality  is 3.41D-11 for   2116   2108.
 Error on total polarization charges =  0.00914
 SCF Done:  E(RB3LYP) =  -1064.41463436     A.U. after   13 cycles
            NFock= 13  Conv=0.50D-08     -V/T= 2.0080

 **********************************************************************

            Population analysis using the SCF density.

 **********************************************************************

 Orbital symmetries:
       Occupied  (A) (A) (A) (A) (A) (A) (A) (A) (A) (A) (A) (A)
                 (A) (A) (A) (A) (A) (A) (A) (A) (A) (A) (A) (A)
                 (A) (A) (A) (A) (A) (A) (A) (A) (A) (A) (A) (A)
                 (A) (A) (A) (A) (A) (A) (A) (A) (A) (A) (A) (A)
                 (A) (A) (A) (A) (A) (A) (A) (A) (A) (A) (A) (A)
                 (A) (A) (A) (A) (A) (A) (A) (A) (A) (A) (A) (A)
                 (A) (A)
       Virtual   (A) (A) (A) (A) (A) (A) (A) (A) (A) (A) (A) (A)
                 (A) (A) (A) (A) (A) (A) (A) (A) (A) (A) (A) (A)
                 (A) (A) (A) (A) (A) (A) (A) (A) (A) (A) (A) (A)
                 (A) (A) (A) (A) (A) (A) (A) (A) (A) (A) (A) (A)
                 (A) (A) (A) (A) (A) (A) (A) (A) (A) (A) (A) (A)
                 (A) (A) (A) (A) (A) (A) (A) (A) (A) (A) (A) (A)
                 (A) (A) (A) (A) (A) (A) (A) (A) (A) (A) (A) (A)
                 (A) (A) (A) (A) (A) (A) (A) (A) (A) (A) (A) (A)
                 (A) (A) (A) (A) (A) (A) (A) (A) (A) (A) (A) (A)
                 (A) (A) (A) (A) (A) (A) (A) (A) (A) (A) (A) (A)
                 (A) (A) (A) (A) (A) (A) (A) (A) (A) (A) (A) (A)
                 (A) (A) (A) (A) (A) (A) (A) (A) (A) (A) (A) (A)
                 (A) (A) (A) (A) (A) (A) (A) (A) (A) (A) (A) (A)
                 (A) (A) (A) (A) (A) (A) (A) (A) (A) (A) (A) (A)
                 (A) (A) (A) (A) (A) (A) (A) (A) (A) (A) (A) (A)
                 (A) (A) (A) (A) (A) (A) (A) (A) (A) (A) (A) (A)
                 (A) (A) (A) (A) (A) (A) (A) (A) (A) (A) (A) (A)
                 (A) (A) (A) (A) (A) (A) (A) (A) (A) (A) (A) (A)
                 (A) (A) (A) (A) (A) (A) (A) (A) (A) (A) (A) (A)
                 (A) (A) (A) (A) (A) (A) (A) (A) (A) (A) (A) (A)
                 (A) (A) (A) (A) (A) (A) (A) (A) (A) (A) (A) (A)
                 (A) (A) (A) (A) (A) (A) (A) (A) (A) (A) (A) (A)
                 (A) (A) (A) (A) (A) (A) (A) (A) (A) (A) (A) (A)
                 (A) (A) (A) (A) (A) (A) (A) (A) (A) (A) (A) (A)
                 (A) (A) (A) (A) (A) (A) (A) (A) (A) (A) (A) (A)
                 (A) (A) (A) (A) (A) (A) (A) (A) (A) (A) (A) (A)
                 (A) (A) (A) (A) (A) (A) (A) (A) (A) (A) (A) (A)
                 (A) (A) (A) (A) (A) (A)
 The electronic state is 1-A.
 Alpha  occ. eigenvalues --  -66.13906 -19.19024 -19.14197 -19.13372 -10.32005
 Alpha  occ. eigenvalues --  -10.26782 -10.24960 -10.20017 -10.19712 -10.19709
 Alpha  occ. eigenvalues --  -10.19673 -10.18482 -10.18422 -10.17808 -10.17255
 Alpha  occ. eigenvalues --  -10.16000 -10.15814 -10.15612  -5.28067  -3.64123
 Alpha  occ. eigenvalues --   -3.63891  -3.63856  -1.09672  -1.01356  -1.00494
 Alpha  occ. eigenvalues --   -0.82643  -0.80101  -0.77470  -0.75570  -0.71216
 Alpha  occ. eigenvalues --   -0.70314  -0.69275  -0.67741  -0.67379  -0.63922
 Alpha  occ. eigenvalues --   -0.61539  -0.59796  -0.55872  -0.52321  -0.52103
 Alpha  occ. eigenvalues --   -0.50061  -0.48776  -0.47240  -0.46787  -0.44586
 Alpha  occ. eigenvalues --   -0.44334  -0.43455  -0.42524  -0.42086  -0.41492
 Alpha  occ. eigenvalues --   -0.41346  -0.40639  -0.40228  -0.39912  -0.39437
 Alpha  occ. eigenvalues --   -0.38915  -0.38526  -0.38362  -0.37860  -0.37440
 Alpha  occ. eigenvalues --   -0.36325  -0.36135  -0.35180  -0.35069  -0.34043
 Alpha  occ. eigenvalues --   -0.33433  -0.32916  -0.31669  -0.30078  -0.28944
 Alpha  occ. eigenvalues --   -0.28435  -0.27807  -0.26368  -0.25292
 Alpha virt. eigenvalues --   -0.00495   0.01473   0.06413   0.07036   0.08958
 Alpha virt. eigenvalues --    0.09386   0.09522   0.10220   0.10966   0.11893
 Alpha virt. eigenvalues --    0.12648   0.12925   0.13155   0.13370   0.14213
 Alpha virt. eigenvalues --    0.14697   0.15154   0.16295   0.16470   0.16603
 Alpha virt. eigenvalues --    0.17167   0.17287   0.17863   0.18301   0.18786
 Alpha virt. eigenvalues --    0.19324   0.19776   0.20524   0.20808   0.21257
 Alpha virt. eigenvalues --    0.21597   0.22967   0.23039   0.23288   0.24133
 Alpha virt. eigenvalues --    0.24761   0.25544   0.26334   0.27005   0.28054
 Alpha virt. eigenvalues --    0.30431   0.30581   0.33239   0.35371   0.36370
 Alpha virt. eigenvalues --    0.37338   0.38388   0.39460   0.40877   0.42677
 Alpha virt. eigenvalues --    0.46137   0.47448   0.49347   0.49676   0.50569
 Alpha virt. eigenvalues --    0.51631   0.52859   0.54310   0.55345   0.55545
 Alpha virt. eigenvalues --    0.57486   0.57866   0.58601   0.60101   0.60346
 Alpha virt. eigenvalues --    0.61630   0.62814   0.63629   0.64533   0.64616
 Alpha virt. eigenvalues --    0.64955   0.66045   0.66798   0.67322   0.67979
 Alpha virt. eigenvalues --    0.69412   0.69817   0.70477   0.72845   0.74304
 Alpha virt. eigenvalues --    0.74604   0.75209   0.75727   0.76758   0.77520
 Alpha virt. eigenvalues --    0.78707   0.81261   0.81400   0.82113   0.83374
 Alpha virt. eigenvalues --    0.83642   0.83986   0.84597   0.85642   0.86123
 Alpha virt. eigenvalues --    0.86755   0.87385   0.87621   0.88639   0.88831
 Alpha virt. eigenvalues --    0.89799   0.90201   0.90560   0.91050   0.91388
 Alpha virt. eigenvalues --    0.91863   0.92301   0.92544   0.93327   0.93608
 Alpha virt. eigenvalues --    0.94256   0.95028   0.95684   0.95959   0.97146
 Alpha virt. eigenvalues --    0.97760   0.99646   0.99968   1.00932   1.02010
 Alpha virt. eigenvalues --    1.02610   1.03417   1.05198   1.05384   1.07308
 Alpha virt. eigenvalues --    1.09167   1.10345   1.11834   1.13203   1.14051
 Alpha virt. eigenvalues --    1.19345   1.20560   1.22724   1.23892   1.24947
 Alpha virt. eigenvalues --    1.27550   1.30198   1.31090   1.32310   1.35001
 Alpha virt. eigenvalues --    1.36124   1.37059   1.39067   1.41145   1.42113
 Alpha virt. eigenvalues --    1.43214   1.43773   1.45903   1.47181   1.47934
 Alpha virt. eigenvalues --    1.49248   1.52067   1.53405   1.54687   1.55561
 Alpha virt. eigenvalues --    1.59651   1.61522   1.62116   1.62770   1.63958
 Alpha virt. eigenvalues --    1.64636   1.66461   1.69386   1.72411   1.72620
 Alpha virt. eigenvalues --    1.73905   1.74891   1.77254   1.78096   1.78746
 Alpha virt. eigenvalues --    1.79967   1.82105   1.83377   1.84507   1.85823
 Alpha virt. eigenvalues --    1.86341   1.88333   1.89409   1.90456   1.91136
 Alpha virt. eigenvalues --    1.92223   1.93293   1.95190   1.96142   1.98247
 Alpha virt. eigenvalues --    1.98745   1.99629   2.01548   2.02375   2.02556
 Alpha virt. eigenvalues --    2.03681   2.04166   2.04808   2.05150   2.05594
 Alpha virt. eigenvalues --    2.05902   2.06100   2.06362   2.08012   2.08809
 Alpha virt. eigenvalues --    2.09311   2.09764   2.10870   2.11913   2.12334
 Alpha virt. eigenvalues --    2.12852   2.12947   2.13692   2.14553   2.15024
 Alpha virt. eigenvalues --    2.16199   2.16541   2.16893   2.18461   2.19714
 Alpha virt. eigenvalues --    2.20602   2.21524   2.23690   2.27473   2.27729
 Alpha virt. eigenvalues --    2.28079   2.29410   2.30347   2.31813   2.33433
 Alpha virt. eigenvalues --    2.34410   2.35188   2.35672   2.35972   2.37470
 Alpha virt. eigenvalues --    2.38804   2.39181   2.40048   2.41779   2.42463
 Alpha virt. eigenvalues --    2.43856   2.46514   2.48264   2.50429   2.51279
 Alpha virt. eigenvalues --    2.52742   2.53174   2.53753   2.54782   2.58962
 Alpha virt. eigenvalues --    2.61242   2.61630   2.62127   2.63544   2.64032
 Alpha virt. eigenvalues --    2.64445   2.66485   2.68208   2.68863   2.69623
 Alpha virt. eigenvalues --    2.71068   2.72004   2.73143   2.74858   2.76122
 Alpha virt. eigenvalues --    2.76745   2.77342   2.80332   2.80912   2.81479
 Alpha virt. eigenvalues --    2.81824   2.82591   2.84270   2.84609   2.84910
 Alpha virt. eigenvalues --    2.85154   2.85652   2.85955   2.87590   2.88829
 Alpha virt. eigenvalues --    2.90030   2.90299   2.91047   2.93287   2.97351
 Alpha virt. eigenvalues --    2.99528   3.01125   3.01964   3.09147   3.11073
 Alpha virt. eigenvalues --    3.15571   3.17088   3.19848   3.20739   3.20868
 Alpha virt. eigenvalues --    3.21846   3.22761   3.25999   3.31317   3.33187
 Alpha virt. eigenvalues --    3.34884   3.35595   3.39482   3.43292   3.43672
 Alpha virt. eigenvalues --    3.44286   3.44601   3.45112   3.45382   3.45852
 Alpha virt. eigenvalues --    3.46376   3.46913   3.48980   3.49147   3.51140
 Alpha virt. eigenvalues --    3.54339   3.57985   3.65715   4.01340   4.10637
 Alpha virt. eigenvalues --    4.23220   4.24779   4.32491   4.38717   4.45277
 Alpha virt. eigenvalues --    4.46860   4.47661   4.50803   4.53437   4.61179
 Alpha virt. eigenvalues --    4.63334   4.65900   4.71443   4.80879   4.91079
          Condensed to atoms (all electrons):
               1          2          3          4          5          6
     1  C    4.797252   0.360449  -0.022063  -0.004791  -0.013769   0.393888
     2  C    0.360449   5.062720   0.359968  -0.068706  -0.009355  -0.041520
     3  C   -0.022063   0.359968   4.804353   0.291608  -0.014763   0.005249
     4  C   -0.004791  -0.068706   0.291608   5.327847   0.303307  -0.000641
     5  C   -0.013769  -0.009355  -0.014763   0.303307   4.359456   0.002501
     6  H    0.393888  -0.041520   0.005249  -0.000641   0.002501   0.627422
     7  H   -0.043845   0.366984  -0.043416   0.000797   0.002163  -0.007925
     8  H   -0.000010   0.004647  -0.033311   0.357465  -0.022341   0.000024
     9  H    0.000314  -0.000988  -0.018701   0.364742  -0.023591   0.000000
    10  O    0.171680  -0.031768  -0.002212  -0.097377   0.254556  -0.037437
    11  O    0.002465  -0.000720   0.002637  -0.089375   0.572815  -0.000048
    12  C    0.357135  -0.042923  -0.012826   0.000188  -0.006489  -0.058270
    13  C   -0.040343   0.004855   0.000027  -0.000100   0.000322  -0.008176
    14  C   -0.040609   0.351822  -0.036220   0.004776   0.000275  -0.003684
    15  O   -0.004939  -0.053834   0.171467  -0.036260   0.000443  -0.000120
    16  Si  -0.000321  -0.001161  -0.013264  -0.005407   0.000232   0.000001
    17  C    0.000003   0.000005   0.001036  -0.000116  -0.000002   0.000000
    18  C   -0.000002  -0.000092  -0.001638   0.000338   0.000138   0.000000
    19  C   -0.000001   0.000002  -0.001482  -0.000177  -0.000001   0.000000
    20  H    0.000000   0.000001   0.000017   0.000072  -0.000002   0.000000
    21  H    0.000001  -0.000007  -0.000382  -0.000275   0.000008   0.000000
    22  H    0.000000  -0.000003   0.000525  -0.000617  -0.000016   0.000000
    23  H    0.000000   0.000001   0.000026   0.000003   0.000000   0.000000
    24  H    0.000000   0.000011  -0.000187  -0.000028   0.000000   0.000000
    25  H    0.000000   0.000008  -0.000011   0.000004   0.000000   0.000000
    26  H    0.000000   0.000000  -0.000013   0.000002   0.000000   0.000000
    27  H    0.000000   0.000004  -0.000024   0.000003   0.000000   0.000000
    28  H    0.000001  -0.000001  -0.000043  -0.000018   0.000000   0.000000
    29  H   -0.004226  -0.030831   0.004603  -0.000133   0.000009   0.004987
    30  H   -0.006635  -0.028957  -0.008485   0.000202   0.000000  -0.000342
    31  H    0.004071  -0.026332  -0.004231   0.000003  -0.000016  -0.000133
    32  H   -0.027543  -0.003410  -0.000072   0.000040   0.000156  -0.000745
    33  H   -0.029408  -0.005159   0.001781  -0.002316   0.001158   0.005713
    34  H    0.003988  -0.000137  -0.000002   0.000014  -0.000026   0.000008
    35  H   -0.004820   0.000027   0.000004   0.000000  -0.000013   0.006272
    36  H   -0.007836   0.000119  -0.000012   0.000045   0.000550  -0.000136
    37  C    0.003652  -0.057041   0.354455  -0.048968  -0.001818  -0.000198
    38  C    0.000399  -0.006570  -0.034040  -0.003257   0.001252   0.000009
    39  C    0.000023  -0.001994  -0.001830  -0.000137   0.000098   0.000006
    40  H   -0.000126   0.005130  -0.029993  -0.009179   0.000186   0.000003
    41  H    0.000059  -0.008727  -0.027526   0.005462  -0.000078   0.000001
    42  H   -0.000027  -0.000069  -0.003143   0.001079   0.001497   0.000004
    43  H    0.000000  -0.000039  -0.000041   0.000011   0.000000   0.000000
    44  H    0.000002   0.000055   0.000026   0.000007  -0.000001   0.000000
               7          8          9         10         11         12
     1  C   -0.043845  -0.000010   0.000314   0.171680   0.002465   0.357135
     2  C    0.366984   0.004647  -0.000988  -0.031768  -0.000720  -0.042923
     3  C   -0.043416  -0.033311  -0.018701  -0.002212   0.002637  -0.012826
     4  C    0.000797   0.357465   0.364742  -0.097377  -0.089375   0.000188
     5  C    0.002163  -0.022341  -0.023591   0.254556   0.572815  -0.006489
     6  H   -0.007925   0.000024   0.000000  -0.037437  -0.000048  -0.058270
     7  H    0.629483  -0.000165  -0.000035   0.000178  -0.000448   0.006283
     8  H   -0.000165   0.575908  -0.025196   0.003516   0.002640   0.000041
     9  H   -0.000035  -0.025196   0.538760  -0.000089   0.000600  -0.000702
    10  O    0.000178   0.003516  -0.000089   8.325277  -0.074206  -0.042552
    11  O   -0.000448   0.002640   0.000600  -0.074206   8.091011  -0.000153
    12  C    0.006283   0.000041  -0.000702  -0.042552  -0.000153   4.964425
    13  C   -0.000156  -0.000005   0.000111  -0.003234   0.000002   0.352545
    14  C   -0.033433  -0.000099  -0.000141   0.002889  -0.000002  -0.002653
    15  O    0.003574   0.002159  -0.007494   0.000002  -0.000017   0.004963
    16  Si   0.000219  -0.000586   0.001092  -0.000049  -0.000044   0.000669
    17  C    0.000000   0.000005  -0.000209   0.000000   0.000000  -0.000060
    18  C    0.000001  -0.000485   0.000154   0.000000   0.000000   0.000008
    19  C    0.000000   0.000017   0.000002   0.000000   0.000000   0.000001
    20  H    0.000000   0.000055   0.000017   0.000000   0.000000   0.000000
    21  H    0.000000   0.000250   0.001814   0.000000   0.000001  -0.000003
    22  H    0.000000   0.001548  -0.000295   0.000000  -0.000001   0.000000
    23  H    0.000000   0.000000   0.000000   0.000000   0.000000   0.000000
    24  H    0.000000   0.000002  -0.000003   0.000000   0.000000   0.000000
    25  H    0.000000   0.000000   0.000000   0.000000   0.000000   0.000000
    26  H    0.000000   0.000000   0.000005   0.000000   0.000000   0.000001
    27  H    0.000000   0.000000   0.000001   0.000000   0.000000  -0.000001
    28  H    0.000000   0.000000  -0.000026   0.000000   0.000000  -0.000006
    29  H   -0.004146   0.000002   0.000003   0.000026   0.000000  -0.000573
    30  H    0.005126  -0.000002  -0.000001   0.000000   0.000000   0.002078
    31  H   -0.004256  -0.000002   0.000001  -0.000063   0.000000   0.000078
    32  H   -0.000018  -0.000002   0.000009   0.002943   0.000001   0.375742
    33  H   -0.000081   0.000167   0.002679  -0.002710  -0.000028   0.383398
    34  H    0.000003   0.000000  -0.000010   0.000098   0.000000  -0.028878
    35  H   -0.000005   0.000000  -0.000001  -0.000271   0.000000  -0.036541
    36  H   -0.000002  -0.000001   0.000043   0.007593  -0.000035  -0.033082
    37  C   -0.008528  -0.008261   0.003332   0.000225  -0.000077   0.000195
    38  C    0.011536  -0.000608   0.000075  -0.000142  -0.001075  -0.000017
    39  C    0.005180   0.000013  -0.000004  -0.000001   0.000001  -0.000001
    40  H    0.000462   0.003894   0.000034  -0.000002  -0.000002  -0.000003
    41  H    0.000040   0.000205  -0.000138   0.000001   0.000000  -0.000006
    42  H   -0.000119   0.001579   0.000078  -0.000056   0.002941  -0.000001
    43  H    0.000000   0.000000   0.000000   0.000000  -0.000002   0.000000
    44  H    0.000104   0.000001   0.000000   0.000000   0.000000   0.000000
              13         14         15         16         17         18
     1  C   -0.040343  -0.040609  -0.004939  -0.000321   0.000003  -0.000002
     2  C    0.004855   0.351822  -0.053834  -0.001161   0.000005  -0.000092
     3  C    0.000027  -0.036220   0.171467  -0.013264   0.001036  -0.001638
     4  C   -0.000100   0.004776  -0.036260  -0.005407  -0.000116   0.000338
     5  C    0.000322   0.000275   0.000443   0.000232  -0.000002   0.000138
     6  H   -0.008176  -0.003684  -0.000120   0.000001   0.000000   0.000000
     7  H   -0.000156  -0.033433   0.003574   0.000219   0.000000   0.000001
     8  H   -0.000005  -0.000099   0.002159  -0.000586   0.000005  -0.000485
     9  H    0.000111  -0.000141  -0.007494   0.001092  -0.000209   0.000154
    10  O   -0.003234   0.002889   0.000002  -0.000049   0.000000   0.000000
    11  O    0.000002  -0.000002  -0.000017  -0.000044   0.000000   0.000000
    12  C    0.352545  -0.002653   0.004963   0.000669  -0.000060   0.000008
    13  C    4.951070   0.000013   0.000183  -0.000001   0.000000   0.000000
    14  C    0.000013   4.945790  -0.004618   0.001217  -0.000026   0.000005
    15  O    0.000183  -0.004618   8.313725   0.326812  -0.019139  -0.014425
    16  Si  -0.000001   0.001217   0.326812  11.849356   0.378336   0.368081
    17  C    0.000000  -0.000026  -0.019139   0.378336   5.117813  -0.031177
    18  C    0.000000   0.000005  -0.014425   0.368081  -0.031177   5.149442
    19  C    0.000000  -0.000069  -0.017609   0.371523  -0.033793  -0.034490
    20  H    0.000000   0.000000   0.000499  -0.014472  -0.000831   0.372257
    21  H    0.000000   0.000000  -0.000394  -0.027172  -0.001103   0.376863
    22  H    0.000000   0.000000  -0.000459  -0.027875   0.001470   0.374978
    23  H    0.000000   0.000001   0.000592  -0.013632  -0.000686  -0.000257
    24  H    0.000000  -0.000012  -0.000584  -0.026564   0.001418  -0.001622
    25  H    0.000000   0.000013  -0.000584  -0.025346  -0.001135   0.001310
    26  H    0.000000   0.000000   0.000492  -0.014645   0.373025  -0.000741
    27  H    0.000000  -0.000006  -0.000413  -0.024370   0.376422   0.001390
    28  H   -0.000001   0.000001  -0.000428  -0.024920   0.375070  -0.001314
    29  H   -0.000045   0.374686   0.000437  -0.000058   0.000000   0.000000
    30  H   -0.000080   0.387549   0.006207   0.001716  -0.000029   0.000003
    31  H    0.000001   0.377673  -0.000521   0.000183  -0.000001   0.000000
    32  H   -0.038747   0.000904  -0.000299   0.000215   0.000005   0.000000
    33  H   -0.043317  -0.000052   0.002006   0.001751  -0.000029  -0.000085
    34  H    0.381429  -0.000001   0.000000  -0.000001   0.000000   0.000000
    35  H    0.383753  -0.000010  -0.000002   0.000002   0.000000   0.000000
    36  H    0.387366  -0.000008   0.000000   0.000002   0.000000   0.000000
    37  C    0.000003  -0.004188  -0.030955   0.003453  -0.000056  -0.002368
    38  C    0.000000  -0.000357   0.002542  -0.000672   0.000000   0.000004
    39  C    0.000000   0.000233  -0.000029   0.000064   0.000000   0.000000
    40  H    0.000000  -0.000032  -0.002296   0.008728   0.000007  -0.000801
    41  H    0.000000   0.001326  -0.000510   0.000687  -0.000007   0.000107
    42  H    0.000000  -0.000019  -0.000020   0.000006   0.000000   0.000001
    43  H    0.000000   0.000004   0.000000  -0.000002   0.000000   0.000000
    44  H    0.000000  -0.000032  -0.000004  -0.000021   0.000000   0.000000
              19         20         21         22         23         24
     1  C   -0.000001   0.000000   0.000001   0.000000   0.000000   0.000000
     2  C    0.000002   0.000001  -0.000007  -0.000003   0.000001   0.000011
     3  C   -0.001482   0.000017  -0.000382   0.000525   0.000026  -0.000187
     4  C   -0.000177   0.000072  -0.000275  -0.000617   0.000003  -0.000028
     5  C   -0.000001  -0.000002   0.000008  -0.000016   0.000000   0.000000
     6  H    0.000000   0.000000   0.000000   0.000000   0.000000   0.000000
     7  H    0.000000   0.000000   0.000000   0.000000   0.000000   0.000000
     8  H    0.000017   0.000055   0.000250   0.001548   0.000000   0.000002
     9  H    0.000002   0.000017   0.001814  -0.000295   0.000000  -0.000003
    10  O    0.000000   0.000000   0.000000   0.000000   0.000000   0.000000
    11  O    0.000000   0.000000   0.000001  -0.000001   0.000000   0.000000
    12  C    0.000001   0.000000  -0.000003   0.000000   0.000000   0.000000
    13  C    0.000000   0.000000   0.000000   0.000000   0.000000   0.000000
    14  C   -0.000069   0.000000   0.000000   0.000000   0.000001  -0.000012
    15  O   -0.017609   0.000499  -0.000394  -0.000459   0.000592  -0.000584
    16  Si   0.371523  -0.014472  -0.027172  -0.027875  -0.013632  -0.026564
    17  C   -0.033793  -0.000831  -0.001103   0.001470  -0.000686   0.001418
    18  C   -0.034490   0.372257   0.376863   0.374978  -0.000257  -0.001622
    19  C    5.139624  -0.000576   0.001326  -0.001543   0.368727   0.375233
    20  H   -0.000576   0.562414  -0.022564  -0.022338   0.000102  -0.000013
    21  H    0.001326  -0.022564   0.575286  -0.023074   0.000006   0.000005
    22  H   -0.001543  -0.022338  -0.023074   0.578056  -0.000005   0.000511
    23  H    0.368727   0.000102   0.000006  -0.000005   0.574163  -0.023653
    24  H    0.375233  -0.000013   0.000005   0.000511  -0.023653   0.583244
    25  H    0.378674   0.000016  -0.000024   0.000005  -0.023738  -0.022785
    26  H   -0.000446   0.000088  -0.000065   0.000003   0.000002   0.000003
    27  H   -0.001349   0.000010   0.000005  -0.000027  -0.000047   0.000007
    28  H    0.001370  -0.000035   0.000685   0.000001   0.000016  -0.000027
    29  H    0.000000   0.000000   0.000000   0.000000   0.000000   0.000000
    30  H   -0.000042   0.000000   0.000000   0.000000   0.000000  -0.000001
    31  H    0.000001   0.000000   0.000000   0.000000   0.000000  -0.000014
    32  H    0.000000   0.000000   0.000000   0.000000   0.000000   0.000000
    33  H    0.000003   0.000001  -0.000029   0.000001   0.000000   0.000000
    34  H    0.000000   0.000000   0.000000   0.000000   0.000000   0.000000
    35  H    0.000000   0.000000   0.000000   0.000000   0.000000   0.000000
    36  H    0.000000   0.000000   0.000000   0.000000   0.000000   0.000000
    37  C   -0.001020   0.000038   0.000149  -0.001084   0.000041   0.000034
    38  C    0.000098   0.000000   0.000003  -0.000036  -0.000001  -0.000026
    39  C    0.000000   0.000000   0.000000   0.000000   0.000000  -0.000004
    40  H   -0.002276  -0.000002  -0.000050   0.002874   0.000054   0.001300
    41  H   -0.000235  -0.000001  -0.000002  -0.000022   0.000029   0.000991
    42  H   -0.000001   0.000000   0.000000  -0.000006   0.000000   0.000001
    43  H    0.000000   0.000000   0.000000   0.000000   0.000000   0.000000
    44  H   -0.000001   0.000000   0.000000   0.000000   0.000000   0.000000
              25         26         27         28         29         30
     1  C    0.000000   0.000000   0.000000   0.000001  -0.004226  -0.006635
     2  C    0.000008   0.000000   0.000004  -0.000001  -0.030831  -0.028957
     3  C   -0.000011  -0.000013  -0.000024  -0.000043   0.004603  -0.008485
     4  C    0.000004   0.000002   0.000003  -0.000018  -0.000133   0.000202
     5  C    0.000000   0.000000   0.000000   0.000000   0.000009   0.000000
     6  H    0.000000   0.000000   0.000000   0.000000   0.004987  -0.000342
     7  H    0.000000   0.000000   0.000000   0.000000  -0.004146   0.005126
     8  H    0.000000   0.000000   0.000000   0.000000   0.000002  -0.000002
     9  H    0.000000   0.000005   0.000001  -0.000026   0.000003  -0.000001
    10  O    0.000000   0.000000   0.000000   0.000000   0.000026   0.000000
    11  O    0.000000   0.000000   0.000000   0.000000   0.000000   0.000000
    12  C    0.000000   0.000001  -0.000001  -0.000006  -0.000573   0.002078
    13  C    0.000000   0.000000   0.000000  -0.000001  -0.000045  -0.000080
    14  C    0.000013   0.000000  -0.000006   0.000001   0.374686   0.387549
    15  O   -0.000584   0.000492  -0.000413  -0.000428   0.000437   0.006207
    16  Si  -0.025346  -0.014645  -0.024370  -0.024920  -0.000058   0.001716
    17  C   -0.001135   0.373025   0.376422   0.375070   0.000000  -0.000029
    18  C    0.001310  -0.000741   0.001390  -0.001314   0.000000   0.000003
    19  C    0.378674  -0.000446  -0.001349   0.001370   0.000000  -0.000042
    20  H    0.000016   0.000088   0.000010  -0.000035   0.000000   0.000000
    21  H   -0.000024  -0.000065   0.000005   0.000685   0.000000   0.000000
    22  H    0.000005   0.000003  -0.000027   0.000001   0.000000   0.000000
    23  H   -0.023738   0.000002  -0.000047   0.000016   0.000000   0.000000
    24  H   -0.022785   0.000003   0.000007  -0.000027   0.000000  -0.000001
    25  H    0.574847  -0.000029   0.000572   0.000004   0.000000   0.000007
    26  H   -0.000029   0.567373  -0.023683  -0.023442   0.000000   0.000000
    27  H    0.000572  -0.023683   0.574549  -0.022085   0.000000   0.000038
    28  H    0.000004  -0.023442  -0.022085   0.578523   0.000000  -0.000004
    29  H    0.000000   0.000000   0.000000   0.000000   0.613505  -0.032818
    30  H    0.000007   0.000000   0.000038  -0.000004  -0.032818   0.569741
    31  H    0.000059   0.000000  -0.000001   0.000000  -0.030199  -0.028526
    32  H    0.000000   0.000000   0.000007  -0.000001   0.000327   0.002837
    33  H    0.000000   0.000001  -0.000011   0.000295   0.000034   0.000063
    34  H    0.000000   0.000000   0.000000   0.000001   0.000000   0.000007
    35  H    0.000000   0.000000   0.000000   0.000000   0.000003   0.000003
    36  H    0.000000   0.000000   0.000000   0.000000   0.000000   0.000001
    37  C   -0.000103   0.000002  -0.000002   0.000003  -0.000026  -0.000072
    38  C   -0.000003   0.000000   0.000000   0.000000   0.000004  -0.000005
    39  C    0.000000   0.000000   0.000000   0.000000   0.000001  -0.000006
    40  H    0.000033   0.000001   0.000001   0.000000   0.000002  -0.000005
    41  H    0.000323   0.000000  -0.000001   0.000000  -0.000082   0.000159
    42  H    0.000000   0.000000   0.000000   0.000000   0.000001   0.000000
    43  H    0.000000   0.000000   0.000000   0.000000   0.000000   0.000000
    44  H    0.000000   0.000000   0.000000   0.000000   0.000006   0.000000
              31         32         33         34         35         36
     1  C    0.004071  -0.027543  -0.029408   0.003988  -0.004820  -0.007836
     2  C   -0.026332  -0.003410  -0.005159  -0.000137   0.000027   0.000119
     3  C   -0.004231  -0.000072   0.001781  -0.000002   0.000004  -0.000012
     4  C    0.000003   0.000040  -0.002316   0.000014   0.000000   0.000045
     5  C   -0.000016   0.000156   0.001158  -0.000026  -0.000013   0.000550
     6  H   -0.000133  -0.000745   0.005713   0.000008   0.006272  -0.000136
     7  H   -0.004256  -0.000018  -0.000081   0.000003  -0.000005  -0.000002
     8  H   -0.000002  -0.000002   0.000167   0.000000   0.000000  -0.000001
     9  H    0.000001   0.000009   0.002679  -0.000010  -0.000001   0.000043
    10  O   -0.000063   0.002943  -0.002710   0.000098  -0.000271   0.007593
    11  O    0.000000   0.000001  -0.000028   0.000000   0.000000  -0.000035
    12  C    0.000078   0.375742   0.383398  -0.028878  -0.036541  -0.033082
    13  C    0.000001  -0.038747  -0.043317   0.381429   0.383753   0.387366
    14  C    0.377673   0.000904  -0.000052  -0.000001  -0.000010  -0.000008
[...]
    14  C   -0.000085   0.000000   0.000000   0.000000   0.000001  -0.000010
    15  O   -0.017096   0.000528  -0.000497  -0.000529   0.000551  -0.000538
    16  Si   0.366800  -0.014545  -0.024865  -0.025363  -0.013926  -0.024239
    17  C   -0.029985  -0.000595  -0.001113   0.001199  -0.000561   0.001213
    18  C   -0.032479   0.369581   0.377681   0.376449  -0.000246  -0.001372
    19  C    5.140949  -0.000413   0.001188  -0.001239   0.367812   0.376710
    20  H   -0.000413   0.568604  -0.023418  -0.023381   0.000099  -0.000033
    21  H    0.001188  -0.023418   0.571750  -0.023381   0.000003   0.000004
    22  H   -0.001239  -0.023381  -0.023381   0.573343  -0.000018   0.000413
    23  H    0.367812   0.000099   0.000003  -0.000018   0.574797  -0.023988
    24  H    0.376710  -0.000033   0.000004   0.000413  -0.023988   0.575887
    25  H    0.378619   0.000011  -0.000020   0.000002  -0.024184  -0.023332
    26  H   -0.000204   0.000057  -0.000056  -0.000001   0.000019   0.000001
    27  H   -0.001263   0.000006   0.000000  -0.000021  -0.000024   0.000005
    28  H    0.001200  -0.000028   0.000524   0.000004   0.000012  -0.000021
    29  H    0.000000   0.000000   0.000000   0.000000   0.000000   0.000000
    30  H   -0.000057   0.000000   0.000000   0.000000   0.000000   0.000000
    31  H    0.000000   0.000000   0.000000   0.000000   0.000000  -0.000011
    32  H    0.000000   0.000000   0.000000   0.000000   0.000000   0.000000
    33  H    0.000003   0.000000  -0.000016   0.000000   0.000000   0.000000
    34  H    0.000000   0.000000   0.000000   0.000000   0.000000   0.000000
    35  H    0.000000   0.000000   0.000000   0.000000   0.000000   0.000000
    36  H    0.000000   0.000000   0.000000   0.000000   0.000000   0.000000
    37  C   -0.000691   0.000035   0.000119  -0.000796   0.000040   0.000098
    38  C    0.000067   0.000000   0.000002  -0.000022  -0.000001  -0.000021
    39  C    0.000000   0.000000   0.000000   0.000000   0.000000  -0.000001
    40  H   -0.002088  -0.000012  -0.000053   0.002192   0.000047   0.000910
    41  H   -0.000104  -0.000001  -0.000001  -0.000009   0.000025   0.000670
    42  H   -0.000001   0.000000   0.000000  -0.000003   0.000000   0.000001
    43  H    0.000000   0.000000   0.000000   0.000000   0.000000   0.000000
    44  H    0.000000   0.000000   0.000000   0.000000   0.000000   0.000001
              25         26         27         28         29         30
     1  C    0.000000   0.000000   0.000000   0.000001  -0.004125  -0.006725
     2  C    0.000004   0.000000   0.000005   0.000000  -0.031851  -0.029073
     3  C   -0.000031  -0.000015  -0.000030  -0.000049   0.004654  -0.009289
     4  C    0.000002   0.000001   0.000004  -0.000015  -0.000129   0.000213
     5  C    0.000000   0.000000   0.000000   0.000000   0.000003   0.000002
     6  H    0.000000   0.000000   0.000000   0.000000   0.004848  -0.000307
     7  H    0.000000   0.000000   0.000000   0.000000  -0.003533   0.005064
     8  H    0.000000   0.000000   0.000000   0.000000   0.000002  -0.000003
     9  H    0.000000   0.000005   0.000000  -0.000017   0.000003   0.000000
    10  O    0.000000   0.000000   0.000000   0.000000   0.000029  -0.000006
    11  O    0.000000   0.000000   0.000000   0.000000   0.000000   0.000000
    12  C    0.000000   0.000001   0.000000  -0.000011  -0.000782   0.002139
    13  C    0.000000   0.000000   0.000000  -0.000001  -0.000046  -0.000048
    14  C    0.000022   0.000000  -0.000018   0.000001   0.375315   0.387269
    15  O   -0.000621   0.000675  -0.000600  -0.000526   0.000412   0.006763
    16  Si  -0.024165  -0.015069  -0.023562  -0.022957  -0.000075   0.001944
    17  C   -0.001095   0.368173   0.377520   0.376384   0.000000  -0.000014
    18  C    0.001191  -0.000415   0.001182  -0.001346   0.000000   0.000004
    19  C    0.378619  -0.000204  -0.001263   0.001200   0.000000  -0.000057
    20  H    0.000011   0.000057   0.000006  -0.000028   0.000000   0.000000
    21  H   -0.000020  -0.000056   0.000000   0.000524   0.000000   0.000000
    22  H    0.000002  -0.000001  -0.000021   0.000004   0.000000   0.000000
    23  H   -0.024184   0.000019  -0.000024   0.000012   0.000000   0.000000
    24  H   -0.023332   0.000001   0.000005  -0.000021   0.000000   0.000000
    25  H    0.572536  -0.000039   0.000444   0.000001   0.000000   0.000002
    26  H   -0.000039   0.576389  -0.024108  -0.024021   0.000000   0.000000
    27  H    0.000444  -0.024108   0.571193  -0.022548   0.000000   0.000204
    28  H    0.000001  -0.024021  -0.022548   0.573081   0.000000  -0.000008
    29  H    0.000000   0.000000   0.000000   0.000000   0.611787  -0.031387
    30  H    0.000002   0.000000   0.000204  -0.000008  -0.031387   0.568493
    31  H    0.000103   0.000000  -0.000003   0.000000  -0.030332  -0.029192
    32  H    0.000000   0.000000   0.000009   0.000002   0.000471   0.002339
    33  H    0.000000   0.000002  -0.000010   0.000334   0.000056   0.000184
    34  H    0.000000   0.000000   0.000000   0.000000   0.000000   0.000005
    35  H    0.000000   0.000000   0.000000   0.000000   0.000004   0.000003
    36  H    0.000000   0.000000   0.000000   0.000000   0.000000   0.000001
    37  C   -0.000110   0.000002  -0.000005   0.000003  -0.000027  -0.000025
    38  C   -0.000002   0.000000   0.000000   0.000000   0.000003  -0.000014
    39  C    0.000000   0.000000   0.000000   0.000000   0.000002  -0.000004
    40  H    0.000039   0.000001   0.000001   0.000000   0.000003  -0.000004
    41  H    0.000311   0.000000  -0.000001   0.000000  -0.000106   0.000118
    42  H    0.000000   0.000000   0.000000   0.000000   0.000001   0.000000
    43  H    0.000000   0.000000   0.000000   0.000000   0.000000   0.000000
    44  H    0.000000   0.000000   0.000000   0.000000   0.000003   0.000001
              31         32         33         34         35         36
     1  C    0.004169  -0.029389  -0.032075   0.003766  -0.004157  -0.007718
     2  C   -0.025969  -0.003418  -0.005709  -0.000124   0.000031   0.000107
     3  C   -0.003601  -0.000085   0.002358   0.000000   0.000003  -0.000011
     4  C   -0.000008   0.000083  -0.003105   0.000012  -0.000002   0.000074
     5  C   -0.000018   0.000136   0.001349  -0.000027  -0.000014   0.000769
     6  H   -0.000122  -0.002200   0.005844  -0.000014   0.005656  -0.000173
     7  H   -0.004865  -0.000050  -0.000054   0.000003  -0.000004  -0.000003
     8  H   -0.000001  -0.000002   0.000134   0.000000   0.000000  -0.000002
     9  H    0.000001  -0.000010   0.003374  -0.000011  -0.000001   0.000027
    10  O   -0.000058   0.003084  -0.002387   0.000127  -0.000286   0.007473
    11  O    0.000000   0.000001  -0.000031   0.000000   0.000000  -0.000056
    12  C    0.000079   0.373041   0.381806  -0.027981  -0.035364  -0.033084
    13  C    0.000001  -0.035910  -0.038286   0.381338   0.385038   0.388003
    14  C    0.377973   0.001559  -0.000239  -0.000001  -0.000012  -0.000007
    15  O   -0.000578  -0.000238   0.003366   0.000000  -0.000001   0.000000
    16  Si   0.000279   0.000080   0.001230  -0.000001   0.000001   0.000001
    17  C   -0.000004   0.000005   0.000001   0.000000   0.000000   0.000000
    18  C    0.000000   0.000000  -0.000049   0.000000   0.000000   0.000000
    19  C    0.000000   0.000000   0.000003   0.000000   0.000000   0.000000
    20  H    0.000000   0.000000   0.000000   0.000000   0.000000   0.000000
    21  H    0.000000   0.000000  -0.000016   0.000000   0.000000   0.000000
    22  H    0.000000   0.000000   0.000000   0.000000   0.000000   0.000000
    23  H    0.000000   0.000000   0.000000   0.000000   0.000000   0.000000
    24  H   -0.000011   0.000000   0.000000   0.000000   0.000000   0.000000
    25  H    0.000103   0.000000   0.000000   0.000000   0.000000   0.000000
    26  H    0.000000   0.000000   0.000002   0.000000   0.000000   0.000000
    27  H   -0.000003   0.000009  -0.000010   0.000000   0.000000   0.000000
    28  H    0.000000   0.000002   0.000334   0.000000   0.000000   0.000000
    29  H   -0.030332   0.000471   0.000056   0.000000   0.000004   0.000000
    30  H   -0.029192   0.002339   0.000184   0.000005   0.000003   0.000001
    31  H    0.598189  -0.000022  -0.000021   0.000000   0.000000   0.000000
    32  H   -0.000022   0.613537  -0.033050  -0.003367  -0.004407   0.005042
    33  H   -0.000021  -0.033050   0.603821  -0.002879   0.004959  -0.004059
    34  H    0.000000  -0.003367  -0.002879   0.604274  -0.031148  -0.030601
    35  H    0.000000  -0.004407   0.004959  -0.031148   0.603364  -0.031188
    36  H    0.000000   0.005042  -0.004059  -0.030601  -0.031188   0.585471
    37  C    0.001288  -0.000005   0.000025   0.000000   0.000000   0.000000
    38  C    0.000174   0.000000  -0.000004   0.000000   0.000000   0.000000
    39  C    0.000114   0.000000   0.000000   0.000000   0.000000   0.000000
    40  H   -0.000074   0.000000   0.000005   0.000000   0.000000   0.000000
    41  H    0.003102  -0.000001  -0.000001   0.000000   0.000000   0.000000
    42  H    0.000008   0.000000   0.000001   0.000000   0.000000   0.000000
    43  H   -0.000002   0.000000   0.000000   0.000000   0.000000   0.000000
    44  H    0.000183   0.000000   0.000000   0.000000   0.000000   0.000000
              37         38         39         40         41         42
     1  C    0.004012   0.000336   0.000007  -0.000143   0.000068  -0.000032
     2  C   -0.058060  -0.006765  -0.002033   0.005394  -0.009181  -0.000062
     3  C    0.362441  -0.036136  -0.001201  -0.031247  -0.029797  -0.004291
     4  C   -0.051850  -0.003597  -0.000104  -0.009810   0.005880   0.001355
     5  C   -0.001473   0.000623   0.000111   0.000178  -0.000081   0.001935
     6  H   -0.000195   0.000010   0.000006   0.000003   0.000001   0.000006
     7  H   -0.009875   0.012303   0.005313   0.000619  -0.000014  -0.000239
     8  H   -0.007750  -0.001004   0.000013   0.004035   0.000165   0.001480
     9  H    0.004088   0.000109  -0.000007   0.000012  -0.000162   0.000132
    10  O    0.000167  -0.000113  -0.000003  -0.000004   0.000001  -0.000158
    11  O   -0.000017  -0.001330  -0.000001  -0.000003   0.000000   0.003567
    12  C    0.000131  -0.000015  -0.000001  -0.000002  -0.000005  -0.000003
    13  C    0.000002   0.000000   0.000000   0.000000   0.000000   0.000000
    14  C   -0.004562  -0.000198   0.000214  -0.000051   0.001628  -0.000025
    15  O   -0.035445   0.002949  -0.000042  -0.003602  -0.000204  -0.000007
    16  Si   0.002257  -0.000500   0.000032   0.009755   0.001082   0.000025
    17  C   -0.000061   0.000000   0.000000   0.000010  -0.000010   0.000000
    18  C   -0.002000  -0.000002   0.000000  -0.000388   0.000068  -0.000001
    19  C   -0.000691   0.000067   0.000000  -0.002088  -0.000104  -0.000001
    20  H    0.000035   0.000000   0.000000  -0.000012  -0.000001   0.000000
    21  H    0.000119   0.000002   0.000000  -0.000053  -0.000001   0.000000
    22  H   -0.000796  -0.000022   0.000000   0.002192  -0.000009  -0.000003
    23  H    0.000040  -0.000001   0.000000   0.000047   0.000025   0.000000
    24  H    0.000098  -0.000021  -0.000001   0.000910   0.000670   0.000001
    25  H   -0.000110  -0.000002   0.000000   0.000039   0.000311   0.000000
    26  H    0.000002   0.000000   0.000000   0.000001   0.000000   0.000000
    27  H   -0.000005   0.000000   0.000000   0.000001  -0.000001   0.000000
    28  H    0.000003   0.000000   0.000000   0.000000   0.000000   0.000000
    29  H   -0.000027   0.000003   0.000002   0.000003  -0.000106   0.000001
    30  H   -0.000025  -0.000014  -0.000004  -0.000004   0.000118   0.000000
    31  H    0.001288   0.000174   0.000114  -0.000074   0.003102   0.000008
    32  H   -0.000005   0.000000   0.000000   0.000000  -0.000001   0.000000
    33  H    0.000025  -0.000004   0.000000   0.000005  -0.000001   0.000001
    34  H    0.000000   0.000000   0.000000   0.000000   0.000000   0.000000
    35  H    0.000000   0.000000   0.000000   0.000000   0.000000   0.000000
    36  H    0.000000   0.000000   0.000000   0.000000   0.000000   0.000000
    37  C    5.035325   0.355014  -0.034164   0.367313   0.378722  -0.051699
    38  C    0.355014   4.818010   0.661186  -0.032974  -0.038191   0.377789
    39  C   -0.034164   0.661186   4.912075   0.000539  -0.006619  -0.041273
    40  H    0.367313  -0.032974   0.000539   0.606848  -0.035671  -0.002322
    41  H    0.378722  -0.038191  -0.006619  -0.035671   0.600949   0.004667
    42  H   -0.051699   0.377789  -0.041273  -0.002322   0.004667   0.604233
    43  H    0.004296  -0.023791   0.376455  -0.000203   0.000135  -0.008272
    44  H   -0.011668  -0.037138   0.383987   0.000183   0.005785   0.005691
              43         44
     1  C    0.000000   0.000002
     2  C   -0.000036   0.000070
     3  C   -0.000051   0.000033
     4  C    0.000013   0.000009
     5  C   -0.000001  -0.000002
     6  H    0.000000   0.000000
     7  H    0.000019   0.000097
     8  H    0.000000   0.000001
     9  H    0.000000   0.000000
    10  O    0.000001   0.000000
    11  O   -0.000002   0.000000
    12  C    0.000000   0.000000
    13  C    0.000000   0.000000
    14  C    0.000002  -0.000038
    15  O    0.000000  -0.000003
    16  Si  -0.000002  -0.000016
    17  C    0.000000   0.000000
    18  C    0.000000   0.000000
    19  C    0.000000   0.000000
    20  H    0.000000   0.000000
    21  H    0.000000   0.000000
    22  H    0.000000   0.000000
    23  H    0.000000   0.000000
    24  H    0.000000   0.000001
    25  H    0.000000   0.000000
    26  H    0.000000   0.000000
    27  H    0.000000   0.000000
    28  H    0.000000   0.000000
    29  H    0.000000   0.000003
    30  H    0.000000   0.000001
    31  H   -0.000002   0.000183
    32  H    0.000000   0.000000
    33  H    0.000000   0.000000
    34  H    0.000000   0.000000
    35  H    0.000000   0.000000
    36  H    0.000000   0.000000
    37  C    0.004296  -0.011668
    38  C   -0.023791  -0.037138
    39  C    0.376455   0.383987
    40  H   -0.000203   0.000183
    41  H    0.000135   0.005785
    42  H   -0.008272   0.005691
    43  H    0.582739  -0.042661
    44  H   -0.042661   0.591643
 Mulliken charges:
               1
     1  C    0.150669
     2  C   -0.096688
     3  C    0.331330
     4  C   -0.304087
     5  C    0.591585
     6  H    0.113587
     7  H    0.113785
     8  H    0.134977
     9  H    0.161355
    10  O   -0.478064
    11  O   -0.506540
    12  C   -0.189062
    13  C   -0.326064
    14  C   -0.323328
    15  O   -0.647220
    16  Si   0.909911
    17  C   -0.533223
    18  C   -0.558144
    19  C   -0.546533
    20  H    0.123442
    21  H    0.121057
    22  H    0.120252
    23  H    0.119526
    24  H    0.117748
    25  H    0.120316
    26  H    0.118600
    27  H    0.121621
    28  H    0.120005
    29  H    0.104799
    30  H    0.131410
    31  H    0.109220
    32  H    0.112766
    33  H    0.113123
    34  H    0.106628
    35  H    0.107525
    36  H    0.119934
    37  C   -0.244898
    38  C   -0.046760
    39  C   -0.254600
    40  H    0.120564
    41  H    0.116781
    42  H    0.107496
    43  H    0.111360
    44  H    0.103839
 Sum of Mulliken charges =   0.00000
 Mulliken charges with hydrogens summed into heavy atoms:
               1
     1  C    0.264256
     2  C    0.017097
     3  C    0.331330
     4  C   -0.007755
     5  C    0.591585
    10  O   -0.478064
    11  O   -0.506540
    12  C    0.036826
    13  C    0.008023
    14  C    0.022102
    15  O   -0.647220
    16  Si   0.909911
    17  C   -0.172997
    18  C   -0.193392
    19  C   -0.188944
    37  C   -0.007553
    38  C    0.060736
    39  C   -0.039402
 Electronic spatial extent (au):  <R**2>=           5289.5349
 Charge=              0.0000 electrons
 Dipole moment (field-independent basis, Debye):
    X=             -4.3851    Y=             -1.0695    Z=             -3.0246  Tot=              5.4333
 Quadrupole moment (field-independent basis, Debye-Ang):
   XX=           -127.8329   YY=           -114.7773   ZZ=           -121.4334
   XY=             -4.0720   XZ=            -13.2194   YZ=             -4.0124
 Traceless Quadrupole moment (field-independent basis, Debye-Ang):
   XX=             -6.4851   YY=              6.5706   ZZ=             -0.0855
   XY=             -4.0720   XZ=            -13.2194   YZ=             -4.0124
 Octapole moment (field-independent basis, Debye-Ang**2):
  XXX=            -54.9188  YYY=              0.8632  ZZZ=            -19.0754  XYY=             12.6271
  XXY=            -18.0354  XXZ=            -31.0292  XZZ=            -16.6222  YZZ=             -9.1252
  YYZ=             -3.9985  XYZ=             -6.8822
 Hexadecapole moment (field-independent basis, Debye-Ang**3):
 XXXX=          -3636.1441 YYYY=          -2320.7672 ZZZZ=          -1238.6717 XXXY=             -5.3838
 XXXZ=           -116.0408 YYYX=             37.5371 YYYZ=            -17.0898 ZZZX=            -35.7990
 ZZZY=            -20.8482 XXYY=           -986.1226 XXZZ=           -852.4406 YYZZ=           -579.2243
 XXYZ=            -19.8570 YYXZ=             -3.6839 ZZXY=            -29.3832
 N-N= 1.636130850050D+03 E-N=-5.762644867808D+03  KE= 1.055904371772D+03
 1\1\GINC-CPU-E-611\FOpt\RB3LYP\6-31G(d,p)\C14H26O3Si1\KE291\06-Feb-201
 9\0\\# b3lyp/6-31g(d,p) Opt=(maxcycles=25) scrf=(solvent=chloroform)\\
 P_ng_4ginp005\\0,1\C,0.6021544114,1.790192004,-0.0777519919\C,-0.57134
 01212,0.9901322749,0.5137235916\C,-1.4399512616,1.82563775,1.498297632
 6\C,-1.3817893867,3.3311469391,1.0983118726\C,-0.96704592,3.6350275999
 ,-0.3270900943\H,1.0536073247,1.1810241382,-0.8685616311\H,-1.21738290
 25,0.7859026342,-0.3489425589\H,-2.3282442196,3.8430395195,1.280849839
 5\H,-0.6334089808,3.8092741989,1.7376687289\O,0.0677066615,2.928464782
 5,-0.8287134295\O,-1.4777180001,4.5035273329,-1.0048438291\C,1.7238819
 451,2.2283574131,0.8693047821\C,2.8512351959,2.980645826,0.1543454874\
 C,-0.120008172,-0.360142057,1.0808925882\O,-0.8924337436,1.679439348,2
 .8070680721\Si,-1.4351801914,1.9708433638,4.3749868859\C,0.1435177099,
 1.9468656997,5.3976834375\C,-2.292640189,3.645519556,4.5426801885\C,-2
 .5926687649,0.602759667,4.9680045466\H,-2.5596305803,3.8136693299,5.59
 27615294\H,-1.6415853364,4.4695668872,4.2326734999\H,-3.2170751651,3.7
 087637696,3.9592710053\H,-2.8018151888,0.7289062988,6.0369049882\H,-3.
 5522167584,0.6053132976,4.4419254576\H,-2.1380091081,-0.3846229747,4.8
 341877943\H,-0.0776087274,2.0915240731,6.4610349147\H,0.6665306852,0.9
 906057717,5.2925244956\H,0.8306858776,2.7405058399,5.086573483\H,0.449
 2691944,-0.9151726947,0.327813272\H,0.5017950002,-0.2382946077,1.96915
 17106\H,-0.9807626248,-0.974464652,1.3593989135\H,2.1266997338,1.32090
 0135,1.3332340392\H,1.3247610639,2.8311806672,1.6896202416\H,3.6468024
 011,3.2440655464,0.8577475696\H,3.295029078,2.3680119683,-0.6384671565
 \H,2.4848763765,3.9032139479,-0.3041292625\C,-2.9112227334,1.321526812
 9,1.4790498809\C,-3.6236518389,1.4634548841,0.1607373476\C,-4.17961856
 69,0.4554600285,-0.5141109837\H,-3.4575120426,1.9003506804,2.236276684
 3\H,-2.9290649422,0.2756467295,1.8022257786\H,-3.6944809914,2.47075188
 23,-0.2498443478\H,-4.6976830095,0.6178612159,-1.4545198392\H,-4.14255
 71915,-0.5674578278,-0.1464661352\\Version=ES64L-G09RevD.01\State=1-A\
 HF=-1064.4219826\RMSD=6.815e-09\RMSF=7.731e-06\Dipole=0.1045139,-1.339
 8478,1.6623374\Quadrupole=5.6155693,-1.6460524,-3.9695169,1.0185422,-1
 .6855682,10.4565329\PG=C01 [X(C14H26O3Si1)]\\@


 There are more things in heaven and earth, Horatio,
 than are dreamt of in your philosophy.
                   -- Hamlet, Act I, Scene 5
 Job cpu time:       0 days  1 hours 59 minutes 51.3 seconds.
 File lengths (MBytes):  RWF=    367 Int=      0 D2E=      0 Chk=     17 Scr=      1
 Normal termination of Gaussian 09 at Wed Feb  6 11:10:51 2019.
