 Entering Gaussian System, Link 0=/usr/local/shared/gaussian/em64t/09-D01/g09/g09
 Initial command:
 /usr/local/shared/gaussian/em64t/09-D01/g09/l1.exe "/scratch/ke291/P_ng_correct1ginp018/Gau-7525.inp" -scrdir="/scratch/ke291/P_ng_correct1ginp018/"
 Entering Link 1 = /usr/local/shared/gaussian/em64t/09-D01/g09/l1.exe PID=      7552.
  
 Copyright (c) 1988,1990,1992,1993,1995,1998,2003,2009,2013,
            Gaussian, Inc.  All Rights Reserved.
  
 This is part of the Gaussian(R) 09 program.  It is based on
 the Gaussian(R) 03 system (copyright 2003, Gaussian, Inc.),
 the Gaussian(R) 98 system (copyright 1998, Gaussian, Inc.),
 the Gaussian(R) 94 system (copyright 1995, Gaussian, Inc.),
 the Gaussian 92(TM) system (copyright 1992, Gaussian, Inc.),
 the Gaussian 90(TM) system (copyright 1990, Gaussian, Inc.),
 the Gaussian 88(TM) system (copyright 1988, Gaussian, Inc.),
 the Gaussian 86(TM) system (copyright 1986, Carnegie Mellon
 University), and the Gaussian 82(TM) system (copyright 1983,
 Carnegie Mellon University). Gaussian is a federally registered
 trademark of Gaussian, Inc.
  
 This software contains proprietary and confidential information,
 including trade secrets, belonging to Gaussian, Inc.
  
 This software is provided under written license and may be
 used, copied, transmitted, or stored only in accord with that
 written license.
  
 The following legend is applicable only to US Government
 contracts under FAR:
  
                    RESTRICTED RIGHTS LEGEND
  
 Use, reproduction and disclosure by the US Government is
 subject to restrictions as set forth in subparagraphs (a)
 and (c) of the Commercial Computer Software - Restricted
 Rights clause in FAR 52.227-19.
  
 Gaussian, Inc.
 340 Quinnipiac St., Bldg. 40, Wallingford CT 06492
  
  
 ---------------------------------------------------------------
 Warning -- This program may not be used in any manner that
 competes with the business of Gaussian, Inc. or will provide
 assistance to any competitor of Gaussian, Inc.  The licensee
 of this program is prohibited from giving any competitor of
 Gaussian, Inc. access to this program.  By using this program,
 the user acknowledges that Gaussian, Inc. is engaged in the
 business of creating and licensing software in the field of
 computational chemistry and represents and warrants to the
 licensee that it is not a competitor of Gaussian, Inc. and that
 it will not use this program in any manner prohibited above.
 ---------------------------------------------------------------
  

 Cite this work as:
 Gaussian 09, Revision D.01,
 M. J. Frisch, G. W. Trucks, H. B. Schlegel, G. E. Scuseria, 
 M. A. Robb, J. R. Cheeseman, G. Scalmani, V. Barone, B. Mennucci, 
 G. A. Petersson, H. Nakatsuji, M. Caricato, X. Li, H. P. Hratchian, 
 A. F. Izmaylov, J. Bloino, G. Zheng, J. L. Sonnenberg, M. Hada, 
 M. Ehara, K. Toyota, R. Fukuda, J. Hasegawa, M. Ishida, T. Nakajima, 
 Y. Honda, O. Kitao, H. Nakai, T. Vreven, J. A. Montgomery, Jr., 
 J. E. Peralta, F. Ogliaro, M. Bearpark, J. J. Heyd, E. Brothers, 
 K. N. Kudin, V. N. Staroverov, T. Keith, R. Kobayashi, J. Normand, 
 K. Raghavachari, A. Rendell, J. C. Burant, S. S. Iyengar, J. Tomasi, 
 M. Cossi, N. Rega, J. M. Millam, M. Klene, J. E. Knox, J. B. Cross, 
 V. Bakken, C. Adamo, J. Jaramillo, R. Gomperts, R. E. Stratmann, 
 O. Yazyev, A. J. Austin, R. Cammi, C. Pomelli, J. W. Ochterski, 
 R. L. Martin, K. Morokuma, V. G. Zakrzewski, G. A. Voth, 
 P. Salvador, J. J. Dannenberg, S. Dapprich, A. D. Daniels, 
 O. Farkas, J. B. Foresman, J. V. Ortiz, J. Cioslowski, 
 and D. J. Fox, Gaussian, Inc., Wallingford CT, 2013.
 
 ******************************************
 Gaussian 09:  EM64L-G09RevD.01 24-Apr-2013
                 6-Feb-2019 
 ******************************************
 %nprocshared=2
 Will use up to    2 processors via shared memory.
 %mem=6000MB
 %chk=P_ng_correct1ginp018.chk
 ---------------------------------------------------------------
 # b3lyp/6-31g(d,p) Opt=(maxcycles=50) scrf=(solvent=chloroform)
 ---------------------------------------------------------------
 1/6=50,14=-1,18=20,19=15,26=3,38=1/1,3;
 2/9=110,12=2,17=6,18=5,40=1/2;
 3/5=1,6=6,7=101,11=2,16=1,25=1,30=1,70=2201,71=1,72=7,74=-5/1,2,3;
 4//1;
 5/5=2,38=5,53=7/2;
 6/7=2,8=2,9=2,10=2,28=1/1;
 7//1,2,3,16;
 1/6=50,14=-1,18=20,19=15,26=3/3(2);
 2/9=110/2;
 99//99;
 2/9=110/2;
 3/5=1,6=6,7=101,11=2,16=1,25=1,30=1,70=2205,71=1,72=7,74=-5/1,2,3;
 4/5=5,16=3,69=1/1;
 5/5=2,38=5,53=7/2;
 7//1,2,3,16;
 1/6=50,14=-1,18=20,19=15,26=3/3(-5);
 2/9=110/2;
 6/7=2,8=2,9=2,10=2,19=2,28=1/1;
 99/9=1/99;
 --------------------
 P_ng_correct1ginp018
 --------------------
 Symbolic Z-matrix:
 Charge =  0 Multiplicity = 1
 C                     0.98203  -0.47972   0.36934 
 C                    -0.55359  -0.54764   0.38356 
 C                    -1.15725   0.52401   1.33967 
 C                    -0.66411   1.88969   0.84075 
 C                     0.82926   1.99049   0.60326 
 H                     1.36575  -0.85405   1.32759 
 H                    -0.9155   -0.27248  -0.61672 
 H                    -1.13655   2.09978  -0.12745 
 H                    -0.93696   2.69726   1.52053 
 O                     1.50518   0.87961   0.24578 
 O                     1.42536   3.04692   0.64324 
 C                     1.63458  -1.27115  -0.76574 
 C                     3.16615  -1.25558  -0.72544 
 C                    -1.04023  -1.97293   0.68978 
 O                    -2.56899   0.41226   1.24024 
 Si                   -3.94366   1.35653   1.04303 
 C                    -5.24977   0.54396   2.13057 
 C                    -3.7433    3.16693   1.53733 
 C                    -4.46352   1.25331  -0.76867 
 H                    -4.73423   3.63683   1.5346 
 H                    -3.32405   3.27919   2.54147 
 H                    -3.11366   3.72789   0.84012 
 H                    -3.71802   1.71951  -1.42285 
 H                    -4.57354   0.20905  -1.08065 
 H                    -5.42009   1.75893  -0.94076 
 H                    -4.97201   0.58381   3.18892 
 H                    -6.21559   1.04913   2.01784 
 H                    -5.38944  -0.50853   1.86204 
 H                    -0.86542  -2.64001  -0.15751 
 H                    -0.5324   -2.40314   1.55965 
 H                    -2.11297  -1.96124   0.89116 
 H                     1.2758   -0.86477  -1.71957 
 H                     1.28     -2.30462  -0.70748 
 H                     3.57836  -1.83399  -1.55781 
 H                     3.5542   -0.23623  -0.79415 
 H                     3.54016  -1.69697   0.20499 
 C                    -0.73609   0.289     2.81821 
 C                    -1.41792   1.18264   3.81747 
 C                    -0.81991   2.15798   4.50505 
 H                     0.34898   0.41339   2.90615 
 H                    -0.96236  -0.75324   3.07085 
 H                    -2.47475   0.9841    3.98832 
 H                    -1.36331   2.76193   5.22595 
 H                     0.23596   2.38502   4.37584 
 

 GradGradGradGradGradGradGradGradGradGradGradGradGradGradGradGradGradGrad
 Berny optimization.
 Initialization pass.
                           ----------------------------
                           !    Initial Parameters    !
                           ! (Angstroms and Degrees)  !
 --------------------------                            --------------------------
 ! Name  Definition              Value          Derivative Info.                !
 --------------------------------------------------------------------------------
 ! R1    R(1,2)                  1.5372         estimate D2E/DX2                !
 ! R2    R(1,6)                  1.098          estimate D2E/DX2                !
 ! R3    R(1,10)                 1.4618         estimate D2E/DX2                !
 ! R4    R(1,12)                 1.5299         estimate D2E/DX2                !
 ! R5    R(2,3)                  1.5579         estimate D2E/DX2                !
 ! R6    R(2,7)                  1.0988         estimate D2E/DX2                !
 ! R7    R(2,14)                 1.5369         estimate D2E/DX2                !
 ! R8    R(3,4)                  1.5353         estimate D2E/DX2                !
 ! R9    R(3,15)                 1.4197         estimate D2E/DX2                !
 ! R10   R(3,37)                 1.5552         estimate D2E/DX2                !
 ! R11   R(4,5)                  1.5155         estimate D2E/DX2                !
 ! R12   R(4,8)                  1.0976         estimate D2E/DX2                !
 ! R13   R(4,9)                  1.0903         estimate D2E/DX2                !
 ! R14   R(5,10)                 1.3486         estimate D2E/DX2                !
 ! R15   R(5,11)                 1.2137         estimate D2E/DX2                !
 ! R16   R(12,13)                1.5322         estimate D2E/DX2                !
 ! R17   R(12,32)                1.0971         estimate D2E/DX2                !
 ! R18   R(12,33)                1.0942         estimate D2E/DX2                !
 ! R19   R(13,34)                1.0942         estimate D2E/DX2                !
 ! R20   R(13,35)                1.0929         estimate D2E/DX2                !
 ! R21   R(13,36)                1.0956         estimate D2E/DX2                !
 ! R22   R(14,29)                1.0924         estimate D2E/DX2                !
 ! R23   R(14,30)                1.0953         estimate D2E/DX2                !
 ! R24   R(14,31)                1.0915         estimate D2E/DX2                !
 ! R25   R(15,16)                1.6794         estimate D2E/DX2                !
 ! R26   R(16,17)                1.8839         estimate D2E/DX2                !
 ! R27   R(16,18)                1.8873         estimate D2E/DX2                !
 ! R28   R(16,19)                1.8876         estimate D2E/DX2                !
 ! R29   R(17,26)                1.0949         estimate D2E/DX2                !
 ! R30   R(17,27)                1.0958         estimate D2E/DX2                !
 ! R31   R(17,28)                1.0951         estimate D2E/DX2                !
 ! R32   R(18,20)                1.0967         estimate D2E/DX2                !
 ! R33   R(18,21)                1.0939         estimate D2E/DX2                !
 ! R34   R(18,22)                1.0942         estimate D2E/DX2                !
 ! R35   R(19,23)                1.0959         estimate D2E/DX2                !
 ! R36   R(19,24)                1.0954         estimate D2E/DX2                !
 ! R37   R(19,25)                1.0956         estimate D2E/DX2                !
 ! R38   R(37,38)                1.504          estimate D2E/DX2                !
 ! R39   R(37,40)                1.0957         estimate D2E/DX2                !
 ! R40   R(37,41)                1.096          estimate D2E/DX2                !
 ! R41   R(38,39)                1.3348         estimate D2E/DX2                !
 ! R42   R(38,42)                1.0888         estimate D2E/DX2                !
 ! R43   R(39,43)                1.0862         estimate D2E/DX2                !
 ! R44   R(39,44)                1.0877         estimate D2E/DX2                !
 ! A1    A(2,1,6)              109.025          estimate D2E/DX2                !
 ! A2    A(2,1,10)             113.5406         estimate D2E/DX2                !
 ! A3    A(2,1,12)             114.2111         estimate D2E/DX2                !
 ! A4    A(6,1,10)             105.4103         estimate D2E/DX2                !
 ! A5    A(6,1,12)             108.7887         estimate D2E/DX2                !
 ! A6    A(10,1,12)            105.4081         estimate D2E/DX2                !
 ! A7    A(1,2,3)              111.246          estimate D2E/DX2                !
 ! A8    A(1,2,7)              108.0329         estimate D2E/DX2                !
 ! A9    A(1,2,14)             111.0472         estimate D2E/DX2                !
 ! A10   A(3,2,7)              105.0001         estimate D2E/DX2                !
 ! A11   A(3,2,14)             113.1391         estimate D2E/DX2                !
 ! A12   A(7,2,14)             108.0193         estimate D2E/DX2                !
 ! A13   A(2,3,4)              106.7375         estimate D2E/DX2                !
 ! A14   A(2,3,15)             106.75           estimate D2E/DX2                !
 ! A15   A(2,3,37)             111.9989         estimate D2E/DX2                !
 ! A16   A(4,3,15)             111.5103         estimate D2E/DX2                !
 ! A17   A(4,3,37)             110.878          estimate D2E/DX2                !
 ! A18   A(15,3,37)            108.9043         estimate D2E/DX2                !
 ! A19   A(3,4,5)              115.2519         estimate D2E/DX2                !
 ! A20   A(3,4,8)              108.5818         estimate D2E/DX2                !
 ! A21   A(3,4,9)              112.0779         estimate D2E/DX2                !
 ! A22   A(5,4,8)              105.8534         estimate D2E/DX2                !
 ! A23   A(5,4,9)              107.1603         estimate D2E/DX2                !
 ! A24   A(8,4,9)              107.4865         estimate D2E/DX2                !
 ! A25   A(4,5,10)             118.7269         estimate D2E/DX2                !
 ! A26   A(4,5,11)             122.4608         estimate D2E/DX2                !
 ! A27   A(10,5,11)            118.6579         estimate D2E/DX2                !
 ! A28   A(1,10,5)             124.3486         estimate D2E/DX2                !
 ! A29   A(1,12,13)            113.6776         estimate D2E/DX2                !
 ! A30   A(1,12,32)            108.2967         estimate D2E/DX2                !
 ! A31   A(1,12,33)            108.1128         estimate D2E/DX2                !
 ! A32   A(13,12,32)           110.2424         estimate D2E/DX2                !
 ! A33   A(13,12,33)           109.3985         estimate D2E/DX2                !
 ! A34   A(32,12,33)           106.8684         estimate D2E/DX2                !
 ! A35   A(12,13,34)           110.5595         estimate D2E/DX2                !
 ! A36   A(12,13,35)           111.2693         estimate D2E/DX2                !
 ! A37   A(12,13,36)           111.0677         estimate D2E/DX2                !
 ! A38   A(34,13,35)           108.1472         estimate D2E/DX2                !
 ! A39   A(34,13,36)           107.7252         estimate D2E/DX2                !
 ! A40   A(35,13,36)           107.9352         estimate D2E/DX2                !
 ! A41   A(2,14,29)            111.1676         estimate D2E/DX2                !
 ! A42   A(2,14,30)            112.067          estimate D2E/DX2                !
 ! A43   A(2,14,31)            109.756          estimate D2E/DX2                !
 ! A44   A(29,14,30)           107.5739         estimate D2E/DX2                !
 ! A45   A(29,14,31)           107.8715         estimate D2E/DX2                !
 ! A46   A(30,14,31)           108.2604         estimate D2E/DX2                !
 ! A47   A(3,15,16)            141.0752         estimate D2E/DX2                !
 ! A48   A(15,16,17)           104.9039         estimate D2E/DX2                !
 ! A49   A(15,16,18)           114.9425         estimate D2E/DX2                !
 ! A50   A(15,16,19)           107.9023         estimate D2E/DX2                !
 ! A51   A(17,16,18)           109.6431         estimate D2E/DX2                !
 ! A52   A(17,16,19)           109.8487         estimate D2E/DX2                !
 ! A53   A(18,16,19)           109.4547         estimate D2E/DX2                !
 ! A54   A(16,17,26)           111.496          estimate D2E/DX2                !
 ! A55   A(16,17,27)           110.6618         estimate D2E/DX2                !
 ! A56   A(16,17,28)           111.1864         estimate D2E/DX2                !
 ! A57   A(26,17,27)           107.8336         estimate D2E/DX2                !
 ! A58   A(26,17,28)           107.7189         estimate D2E/DX2                !
 ! A59   A(27,17,28)           107.7833         estimate D2E/DX2                !
 ! A60   A(16,18,20)           108.3262         estimate D2E/DX2                !
 ! A61   A(16,18,21)           112.305          estimate D2E/DX2                !
 ! A62   A(16,18,22)           112.7045         estimate D2E/DX2                !
 ! A63   A(20,18,21)           107.7345         estimate D2E/DX2                !
 ! A64   A(20,18,22)           107.3792         estimate D2E/DX2                !
 ! A65   A(21,18,22)           108.1647         estimate D2E/DX2                !
 ! A66   A(16,19,23)           111.2419         estimate D2E/DX2                !
 ! A67   A(16,19,24)           110.6801         estimate D2E/DX2                !
 ! A68   A(16,19,25)           111.4681         estimate D2E/DX2                !
 ! A69   A(23,19,24)           107.6886         estimate D2E/DX2                !
 ! A70   A(23,19,25)           107.6884         estimate D2E/DX2                !
 ! A71   A(24,19,25)           107.9101         estimate D2E/DX2                !
 ! A72   A(3,37,38)            114.7775         estimate D2E/DX2                !
 ! A73   A(3,37,40)            109.1061         estimate D2E/DX2                !
 ! A74   A(3,37,41)            107.8744         estimate D2E/DX2                !
 ! A75   A(38,37,40)           109.1573         estimate D2E/DX2                !
 ! A76   A(38,37,41)           108.5584         estimate D2E/DX2                !
 ! A77   A(40,37,41)           107.0914         estimate D2E/DX2                !
 ! A78   A(37,38,39)           124.9817         estimate D2E/DX2                !
 ! A79   A(37,38,42)           115.8452         estimate D2E/DX2                !
 ! A80   A(39,38,42)           119.161          estimate D2E/DX2                !
 ! A81   A(38,39,43)           121.605          estimate D2E/DX2                !
 ! A82   A(38,39,44)           121.7508         estimate D2E/DX2                !
 ! A83   A(43,39,44)           116.6435         estimate D2E/DX2                !
 ! D1    D(6,1,2,3)             71.2102         estimate D2E/DX2                !
 ! D2    D(6,1,2,7)           -174.0427         estimate D2E/DX2                !
 ! D3    D(6,1,2,14)           -55.7582         estimate D2E/DX2                !
 ! D4    D(10,1,2,3)           -45.972          estimate D2E/DX2                !
 ! D5    D(10,1,2,7)            68.7752         estimate D2E/DX2                !
 ! D6    D(10,1,2,14)         -172.9403         estimate D2E/DX2                !
 ! D7    D(12,1,2,3)          -166.8795         estimate D2E/DX2                !
 ! D8    D(12,1,2,7)           -52.1323         estimate D2E/DX2                !
 ! D9    D(12,1,2,14)           66.1522         estimate D2E/DX2                !
 ! D10   D(2,1,10,5)            23.8834         estimate D2E/DX2                !
 ! D11   D(6,1,10,5)           -95.386          estimate D2E/DX2                !
 ! D12   D(12,1,10,5)          149.6207         estimate D2E/DX2                !
 ! D13   D(2,1,12,13)         -176.9701         estimate D2E/DX2                !
 ! D14   D(2,1,12,32)           60.1482         estimate D2E/DX2                !
 ! D15   D(2,1,12,33)          -55.3014         estimate D2E/DX2                !
 ! D16   D(6,1,12,13)          -54.9301         estimate D2E/DX2                !
 ! D17   D(6,1,12,32)         -177.8118         estimate D2E/DX2                !
 ! D18   D(6,1,12,33)           66.7386         estimate D2E/DX2                !
 ! D19   D(10,1,12,13)          57.7081         estimate D2E/DX2                !
 ! D20   D(10,1,12,32)         -65.1735         estimate D2E/DX2                !
 ! D21   D(10,1,12,33)         179.3769         estimate D2E/DX2                !
 ! D22   D(1,2,3,4)             58.4108         estimate D2E/DX2                !
 ! D23   D(1,2,3,15)           177.7753         estimate D2E/DX2                !
 ! D24   D(1,2,3,37)           -63.1137         estimate D2E/DX2                !
 ! D25   D(7,2,3,4)            -58.2067         estimate D2E/DX2                !
 ! D26   D(7,2,3,15)            61.1577         estimate D2E/DX2                !
 ! D27   D(7,2,3,37)          -179.7313         estimate D2E/DX2                !
 ! D28   D(14,2,3,4)          -175.773          estimate D2E/DX2                !
 ! D29   D(14,2,3,15)          -56.4085         estimate D2E/DX2                !
 ! D30   D(14,2,3,37)           62.7025         estimate D2E/DX2                !
 ! D31   D(1,2,14,29)          -71.9461         estimate D2E/DX2                !
 ! D32   D(1,2,14,30)           48.475          estimate D2E/DX2                !
 ! D33   D(1,2,14,31)          168.796          estimate D2E/DX2                !
 ! D34   D(3,2,14,29)          162.1314         estimate D2E/DX2                !
 ! D35   D(3,2,14,30)          -77.4476         estimate D2E/DX2                !
 ! D36   D(3,2,14,31)           42.8734         estimate D2E/DX2                !
 ! D37   D(7,2,14,29)           46.3466         estimate D2E/DX2                !
 ! D38   D(7,2,14,30)          166.7676         estimate D2E/DX2                !
 ! D39   D(7,2,14,31)          -72.9113         estimate D2E/DX2                !
 ! D40   D(2,3,4,5)            -50.1403         estimate D2E/DX2                !
 ! D41   D(2,3,4,8)             68.3637         estimate D2E/DX2                !
 ! D42   D(2,3,4,9)           -173.052          estimate D2E/DX2                !
 ! D43   D(15,3,4,5)          -166.3717         estimate D2E/DX2                !
 ! D44   D(15,3,4,8)           -47.8676         estimate D2E/DX2                !
 ! D45   D(15,3,4,9)            70.7166         estimate D2E/DX2                !
 ! D46   D(37,3,4,5)            72.092          estimate D2E/DX2                !
 ! D47   D(37,3,4,8)          -169.404          estimate D2E/DX2                !
 ! D48   D(37,3,4,9)           -50.8198         estimate D2E/DX2                !
 ! D49   D(2,3,15,16)         -132.6593         estimate D2E/DX2                !
 ! D50   D(4,3,15,16)          -16.4355         estimate D2E/DX2                !
 ! D51   D(37,3,15,16)         106.2391         estimate D2E/DX2                !
 ! D52   D(2,3,37,38)         -172.7837         estimate D2E/DX2                !
 ! D53   D(2,3,37,40)           64.3691         estimate D2E/DX2                !
 ! D54   D(2,3,37,41)          -51.6403         estimate D2E/DX2                !
 ! D55   D(4,3,37,38)           68.1039         estimate D2E/DX2                !
 ! D56   D(4,3,37,40)          -54.7433         estimate D2E/DX2                !
 ! D57   D(4,3,37,41)         -170.7527         estimate D2E/DX2                !
 ! D58   D(15,3,37,38)         -54.9502         estimate D2E/DX2                !
 ! D59   D(15,3,37,40)        -177.7975         estimate D2E/DX2                !
 ! D60   D(15,3,37,41)          66.1931         estimate D2E/DX2                !
 ! D61   D(3,4,5,10)            29.4514         estimate D2E/DX2                !
 ! D62   D(3,4,5,11)          -155.13           estimate D2E/DX2                !
 ! D63   D(8,4,5,10)           -90.562          estimate D2E/DX2                !
 ! D64   D(8,4,5,11)            84.8566         estimate D2E/DX2                !
 ! D65   D(9,4,5,10)           154.9435         estimate D2E/DX2                !
 ! D66   D(9,4,5,11)           -29.638          estimate D2E/DX2                !
 ! D67   D(4,5,10,1)           -15.115          estimate D2E/DX2                !
 ! D68   D(11,5,10,1)          169.2899         estimate D2E/DX2                !
 ! D69   D(1,12,13,34)        -179.9346         estimate D2E/DX2                !
 ! D70   D(1,12,13,35)         -59.7385         estimate D2E/DX2                !
 ! D71   D(1,12,13,36)          60.5315         estimate D2E/DX2                !
 ! D72   D(32,12,13,34)        -58.1272         estimate D2E/DX2                !
 ! D73   D(32,12,13,35)         62.069          estimate D2E/DX2                !
 ! D74   D(32,12,13,36)       -177.6611         estimate D2E/DX2                !
 ! D75   D(33,12,13,34)         59.1144         estimate D2E/DX2                !
 ! D76   D(33,12,13,35)        179.3106         estimate D2E/DX2                !
 ! D77   D(33,12,13,36)        -60.4195         estimate D2E/DX2                !
 ! D78   D(3,15,16,17)        -142.6843         estimate D2E/DX2                !
 ! D79   D(3,15,16,18)         -22.1917         estimate D2E/DX2                !
 ! D80   D(3,15,16,19)         100.237          estimate D2E/DX2                !
 ! D81   D(15,16,17,26)         63.9446         estimate D2E/DX2                !
 ! D82   D(15,16,17,27)       -176.0362         estimate D2E/DX2                !
 ! D83   D(15,16,17,28)        -56.2846         estimate D2E/DX2                !
 ! D84   D(18,16,17,26)        -59.9973         estimate D2E/DX2                !
 ! D85   D(18,16,17,27)         60.0219         estimate D2E/DX2                !
 ! D86   D(18,16,17,28)        179.7735         estimate D2E/DX2                !
 ! D87   D(19,16,17,26)        179.683          estimate D2E/DX2                !
 ! D88   D(19,16,17,27)        -60.2978         estimate D2E/DX2                !
 ! D89   D(19,16,17,28)         59.4538         estimate D2E/DX2                !
 ! D90   D(15,16,18,20)       -170.2194         estimate D2E/DX2                !
 ! D91   D(15,16,18,21)        -51.3567         estimate D2E/DX2                !
 ! D92   D(15,16,18,22)         71.1168         estimate D2E/DX2                !
 ! D93   D(17,16,18,20)        -52.3676         estimate D2E/DX2                !
 ! D94   D(17,16,18,21)         66.4951         estimate D2E/DX2                !
 ! D95   D(17,16,18,22)       -171.0314         estimate D2E/DX2                !
 ! D96   D(19,16,18,20)         68.1915         estimate D2E/DX2                !
 ! D97   D(19,16,18,21)       -172.9458         estimate D2E/DX2                !
 ! D98   D(19,16,18,22)        -50.4723         estimate D2E/DX2                !
 ! D99   D(15,16,19,23)        -66.1305         estimate D2E/DX2                !
 ! D100  D(15,16,19,24)         53.5506         estimate D2E/DX2                !
 ! D101  D(15,16,19,25)        173.6603         estimate D2E/DX2                !
 ! D102  D(17,16,19,23)       -179.9569         estimate D2E/DX2                !
 ! D103  D(17,16,19,24)        -60.2758         estimate D2E/DX2                !
 ! D104  D(17,16,19,25)         59.8339         estimate D2E/DX2                !
 ! D105  D(18,16,19,23)         59.6093         estimate D2E/DX2                !
 ! D106  D(18,16,19,24)        179.2904         estimate D2E/DX2                !
 ! D107  D(18,16,19,25)        -60.5999         estimate D2E/DX2                !
 ! D108  D(3,37,38,39)        -110.4866         estimate D2E/DX2                !
 ! D109  D(3,37,38,42)          70.793          estimate D2E/DX2                !
 ! D110  D(40,37,38,39)         12.3332         estimate D2E/DX2                !
 ! D111  D(40,37,38,42)       -166.3873         estimate D2E/DX2                !
 ! D112  D(41,37,38,39)        128.7454         estimate D2E/DX2                !
 ! D113  D(41,37,38,42)        -49.9751         estimate D2E/DX2                !
 ! D114  D(37,38,39,43)       -179.0622         estimate D2E/DX2                !
 ! D115  D(37,38,39,44)          0.6326         estimate D2E/DX2                !
 ! D116  D(42,38,39,43)         -0.3809         estimate D2E/DX2                !
 ! D117  D(42,38,39,44)        179.3139         estimate D2E/DX2                !
 --------------------------------------------------------------------------------
 Trust Radius=3.00D-01 FncErr=1.00D-07 GrdErr=1.00D-06
 Number of steps in this run=     50 maximum allowed number of steps=    264.
 GradGradGradGradGradGradGradGradGradGradGradGradGradGradGradGradGradGrad

                          Input orientation:                          
 ---------------------------------------------------------------------
 Center     Atomic      Atomic             Coordinates (Angstroms)
 Number     Number       Type             X           Y           Z
 ---------------------------------------------------------------------
      1          6           0        0.982029   -0.479720    0.369343
      2          6           0       -0.553585   -0.547642    0.383560
      3          6           0       -1.157245    0.524011    1.339673
      4          6           0       -0.664108    1.889685    0.840751
      5          6           0        0.829259    1.990488    0.603261
      6          1           0        1.365747   -0.854048    1.327588
      7          1           0       -0.915499   -0.272477   -0.616725
      8          1           0       -1.136549    2.099775   -0.127454
      9          1           0       -0.936965    2.697260    1.520528
     10          8           0        1.505180    0.879608    0.245779
     11          8           0        1.425356    3.046917    0.643243
     12          6           0        1.634579   -1.271152   -0.765739
     13          6           0        3.166155   -1.255582   -0.725438
     14          6           0       -1.040226   -1.972932    0.689775
     15          8           0       -2.568995    0.412260    1.240239
     16         14           0       -3.943656    1.356534    1.043031
     17          6           0       -5.249767    0.543958    2.130568
     18          6           0       -3.743297    3.166931    1.537332
     19          6           0       -4.463518    1.253308   -0.768666
     20          1           0       -4.734235    3.636834    1.534597
     21          1           0       -3.324047    3.279195    2.541471
     22          1           0       -3.113657    3.727888    0.840117
     23          1           0       -3.718024    1.719509   -1.422852
     24          1           0       -4.573543    0.209047   -1.080654
     25          1           0       -5.420089    1.758931   -0.940760
     26          1           0       -4.972013    0.583810    3.188924
     27          1           0       -6.215593    1.049127    2.017837
     28          1           0       -5.389440   -0.508528    1.862035
     29          1           0       -0.865425   -2.640015   -0.157506
     30          1           0       -0.532405   -2.403139    1.559652
     31          1           0       -2.112972   -1.961244    0.891162
     32          1           0        1.275802   -0.864774   -1.719571
     33          1           0        1.279997   -2.304624   -0.707483
     34          1           0        3.578355   -1.833990   -1.557806
     35          1           0        3.554202   -0.236226   -0.794150
     36          1           0        3.540164   -1.696968    0.204994
     37          6           0       -0.736091    0.289000    2.818212
     38          6           0       -1.417917    1.182635    3.817469
     39          6           0       -0.819913    2.157979    4.505053
     40          1           0        0.348983    0.413393    2.906153
     41          1           0       -0.962365   -0.753235    3.070854
     42          1           0       -2.474752    0.984099    3.988316
     43          1           0       -1.363313    2.761927    5.225951
     44          1           0        0.235957    2.385016    4.375839
 ---------------------------------------------------------------------
                    Distance matrix (angstroms):
                    1          2          3          4          5
     1  C    0.000000
     2  C    1.537182   0.000000
     3  C    2.554508   1.557882   0.000000
     4  C    2.923367   2.482298   1.535308   0.000000
     5  C    2.485958   2.898730   2.576637   1.515490   0.000000
     6  H    1.097995   2.160766   2.874836   3.447520   2.983932
     7  H    2.148463   1.098757   2.126106   2.619614   3.107017
     8  H    3.374756   2.758586   2.153119   1.097615   2.100069
     9  H    3.885996   3.459634   2.191859   1.090286   2.111978
    10  O    1.461755   2.508892   2.900269   2.465778   1.348598
    11  O    3.564931   4.111508   3.676941   2.396676   1.213661
    12  C    1.529901   2.575348   3.930605   4.225596   3.627809
    13  C    2.563379   3.945570   5.111108   5.197746   4.214676
    14  C    2.534142   1.536892   2.582786   3.883821   4.383054
    15  O    3.763490   2.391064   1.419652   2.443556   3.800615
    16  Si   5.299817   3.943776   2.923213   3.328754   4.834875
    17  C    6.556303   5.128133   4.168290   4.950038   6.432703
    18  C    6.082019   5.030258   3.702939   3.405581   4.812980
    19  C    5.826872   4.456301   3.988535   4.175011   5.517165
    20  H    7.139994   6.025990   4.745790   4.483289   5.876250
    21  H    6.114725   5.193911   3.705453   3.449414   4.761026
    22  H    5.890691   5.004255   3.787074   3.062561   4.315234
    23  H    5.489907   4.291477   3.952006   3.805163   4.985615
    24  H    5.782843   4.344717   4.198604   4.669050   5.932907
    25  H    6.907608   5.545896   4.989714   5.080377   6.441427
    26  H    6.673211   5.354694   4.239783   5.077132   6.505317
    27  H    7.540601   6.105641   5.130549   5.736815   7.246870
    28  H    6.544049   5.056966   4.387536   5.396592   6.819224
    29  H    2.890939   2.183580   3.512516   4.642761   4.989216
    30  H    2.722110   2.196932   3.001170   4.354595   4.698167
    31  H    3.470769   2.165090   2.700198   4.114778   4.935159
    32  H    2.144325   2.805422   4.148182   4.231495   3.707758
    33  H    2.139770   2.763944   4.258189   4.875326   4.513225
    34  H    3.505547   4.743051   6.031705   6.133297   5.182121
    35  H    2.833563   4.284612   5.227705   4.998654   3.786334
    36  H    2.837738   4.255775   5.318449   5.562748   4.594013
    37  C    3.088660   2.580854   1.555210   2.545137   3.201779
    38  C    4.518045   3.941149   2.577054   3.151031   4.004192
    39  C    5.225758   4.937410   3.578166   3.677413   4.239316
    40  H    2.762933   2.846347   2.175964   2.733437   2.832173
    41  H    3.339706   2.725971   2.160168   3.470928   4.102066
    42  H    5.214313   4.362496   2.993796   3.742416   4.836104
    43  H    6.292499   5.920950   4.489308   4.525447   5.174142
    44  H    4.981500   5.016189   3.823958   3.681347   3.839271
                    6          7          8          9         10
     6  H    0.000000
     7  H    3.053303   0.000000
     8  H    4.135662   2.432248   0.000000
     9  H    4.236921   3.658913   1.764275   0.000000
    10  O    2.048246   2.816185   2.933742   3.300442   0.000000
    11  O    3.960986   4.252705   2.838029   2.544100   2.204899
    12  C    2.151340   2.742709   4.410182   5.252442   2.380269
    13  C    2.760002   4.199787   5.489013   6.124126   2.874219
    14  C    2.728995   2.148033   4.155007   4.744629   3.848793
    15  O    4.134412   2.578997   2.601959   2.821934   4.219747
    16  Si   5.758247   3.818141   3.130862   3.326521   5.527466
    17  C    6.809128   5.196158   4.943460   4.858922   7.020997
    18  C    6.504966   4.946304   3.271921   2.845412   5.869111
    19  C    6.543360   3.865171   3.492332   4.445445   6.065814
    20  H    7.577642   5.873129   4.250684   3.911810   6.942165
    21  H    6.367996   5.328196   3.646826   2.660664   5.860857
    22  H    6.426260   4.791368   2.737864   2.502627   5.458900
    23  H    6.327152   3.531572   2.913190   4.165786   5.547218
    24  H    6.496535   3.718654   4.036877   5.116841   6.257791
    25  H    7.617128   4.952065   4.373370   5.199693   7.080991
    26  H    6.760119   5.627743   5.292192   4.850962   7.120648
    27  H    7.846989   6.064532   5.612738   5.552258   7.923336
    28  H    6.785099   5.120168   5.371070   5.497112   7.216300
    29  H    3.220762   2.412183   4.747633   5.595304   4.262646
    30  H    2.460999   3.069707   4.846396   5.116568   4.080985
    31  H    3.676661   2.561171   4.299169   4.845695   4.645210
    32  H    3.048504   2.523665   4.140390   5.299308   2.637818
    33  H    2.500607   2.993002   5.057159   5.907436   3.331478
    34  H    3.765822   4.849607   6.304819   7.099048   3.861941
    35  H    3.110114   4.473367   5.282474   5.842402   2.554414
    36  H    2.588207   4.749455   6.033027   6.409723   3.283529
    37  C    2.818908   3.485144   3.480836   2.743000   3.462589
    38  C    4.253983   4.693809   4.059892   2.793088   4.625288
    39  C    4.893434   5.669996   4.643680   3.035114   5.018138
    40  H    2.265410   3.805259   3.775375   2.964738   2.937982
    41  H    2.910197   3.719081   4.289427   3.782866   4.090966
    42  H    5.020726   5.021618   4.469349   3.374861   5.464189
    43  H    5.976644   6.598863   5.398963   3.730431   6.047602
    44  H    4.589096   5.771812   4.716438   3.102587   4.575432
                   11         12         13         14         15
    11  O    0.000000
    12  C    4.546947   0.000000
    13  C    4.838922   1.532185   0.000000
    14  C    5.592866   3.124996   4.495671   0.000000
    15  O    4.822101   4.952560   6.287887   2.886050   0.000000
    16  Si   5.643006   6.425970   7.778177   4.431708   1.679356
    17  C    7.282458   7.686184   9.067682   5.111834   2.827820
    18  C    5.246786   7.343177   8.509951   5.868827   3.009229
    19  C    6.315802   6.599976   8.031706   4.924896   2.886569
    20  H    6.251646   8.363113   9.563454   6.769705   3.895227
    21  H    5.119965   7.498751   8.565022   6.019090   3.237688
    22  H    4.594030   7.079189   8.168352   6.068036   3.383806
    23  H    5.699572   6.166539   7.531897   5.026720   3.181387
    24  H    6.856539   6.389909   7.885064   4.514397   3.073443
    25  H    7.143395   7.679868   9.102595   5.980689   3.833930
    26  H    7.312572   7.920056   9.216038   5.314284   3.098596
    27  H    8.016531   8.646223  10.042630   6.138486   3.782583
    28  H    7.782550   7.538145   8.969465   4.736489   3.031401
    29  H    6.183047   2.914404   4.300329   1.092447   3.764602
    30  H    5.863083   3.374116   4.496428   1.095284   3.489441
    31  H    6.137011   4.155199   5.566016   1.091548   2.441994
    32  H    4.572372   1.097113   2.171281   3.520930   5.017345
    33  H    5.521285   1.094160   2.158333   2.728697   5.098021
    34  H    5.770900   2.173114   1.094213   5.138309   7.117908
    35  H    4.168587   2.181016   1.092880   5.130979   6.484814
    36  H    5.212382   2.180573   1.095632   4.614232   6.545410
    37  C    4.124130   4.571526   5.492787   3.120749   2.421720
    38  C    4.651393   6.028648   6.899030   4.459005   2.925846
    39  C    4.554670   6.750164   7.409398   5.627549   4.094610
    40  H    3.635215   4.239485   4.889825   3.540731   3.360039
    41  H    5.102515   4.661738   5.631062   2.676427   2.700147
    42  H    5.536747   6.676361   7.684756   4.656422   2.808524
    43  H    5.372067   7.820066   8.489728   6.565071   4.781266
    44  H    3.973041   6.462162   6.918312   5.848711   4.646667
                   16         17         18         19         20
    16  Si   0.000000
    17  C    1.883864   0.000000
    18  C    1.887330   3.082429   0.000000
    19  C    1.887633   3.086572   3.081931   0.000000
    20  H    2.463011   3.191683   1.096711   3.325584   0.000000
    21  H    2.515127   3.370276   1.093924   4.044703   1.769274
    22  H    2.520594   4.045447   1.094179   3.245590   1.765465
    23  H    2.502647   4.044126   3.295202   1.095931   3.668150
    24  H    2.494699   3.298695   4.036364   1.095410   4.314521
    25  H    2.505435   3.307299   3.306816   1.095582   3.181872
    26  H    2.501894   1.094920   3.303031   4.045901   3.480559
    27  H    2.491273   1.095776   3.290627   3.297887   3.020624
    28  H    2.497902   1.095146   4.040323   3.298786   4.209577
    29  H    5.185480   5.881787   6.698898   5.336456   7.565034
    30  H    5.102810   5.591496   6.429308   5.851865   7.357804
    31  H    3.792376   4.201386   5.419748   4.314330   6.214782
    32  H    6.309431   7.706565   7.214805   6.191146   8.183803
    33  H    6.614751   7.668557   7.759548   6.756522   8.746362
    34  H    8.574640   9.858726   9.391255   8.650195  10.420750
    35  H    7.882258   9.309808   8.382766   8.154949   9.440437
    36  H    8.126114   9.273212   8.858974   8.585515   9.933930
    37  C    3.818294   4.572868   4.355046   5.262062   5.370365
    38  C    3.755943   4.235164   3.813639   5.505753   4.715142
    39  C    4.731351   5.278906   4.286202   6.473516   5.131524
    40  H    4.773624   5.653722   5.118828   6.113094   6.173398
    41  H    4.177474   4.576971   5.045094   5.570117   5.988305
    42  H    3.312264   3.368332   3.518705   5.162998   4.261808
    43  H    5.111763   5.441075   4.408431   6.915391   5.074906
    44  H    5.443763   6.206763   4.950048   7.059162   5.860249
                   21         22         23         24         25
    21  H    0.000000
    22  H    1.772059   0.000000
    23  H    4.278282   3.085430   0.000000
    24  H    4.909872   4.266483   1.769325   0.000000
    25  H    4.339416   3.516809   1.769461   1.771539   0.000000
    26  H    3.224917   4.342304   4.912309   4.304476   4.316940
    27  H    3.688961   4.264363   4.304138   3.605927   3.144828
    28  H    4.367416   4.916373   4.306770   3.136881   3.605269
    29  H    6.954591   6.826418   5.361332   4.766498   6.380375
    30  H    6.406727   6.691045   6.003310   5.488673   6.889437
    31  H    5.626048   5.776694   4.634523   3.827876   5.304023
    32  H    7.515821   6.849226   5.630707   5.981317   7.233625
    33  H    7.932966   7.621710   6.456440   6.381358   7.839519
    34  H    9.517977   9.025938   8.116818   8.417549   9.708853
    35  H    8.413968   7.927507   7.556814   8.144974   9.194566
    36  H    8.794243   8.608471   8.185566   8.433150   9.671718
    37  C    3.964261   4.625108   5.378188   5.471160   6.183074
    38  C    3.107582   4.268309   5.748016   5.907407   6.244217
    39  C    3.373940   4.599743   6.612970   7.006297   7.139870
    40  H    4.673004   5.219603   6.081675   6.337795   7.063385
    41  H    4.703007   5.448367   5.822501   5.585841   6.501948
    42  H    2.842908   4.224658   5.600651   5.540766   5.794063
    43  H    3.364294   4.819991   7.130069   7.523034   7.449279
    44  H    4.103424   5.052183   7.049943   7.592065   7.787751
                   26         27         28         29         30
    26  H    0.000000
    27  H    1.770439   0.000000
    28  H    1.768638   1.770054   0.000000
    29  H    6.201266   6.853188   5.393376   0.000000
    30  H    5.593434   6.665335   5.222239   1.765119   0.000000
    31  H    4.464429   5.211835   3.713250   1.765449   1.772101
    32  H    8.076317   8.587912   7.574976   3.190043   4.048392
    33  H    7.912817   8.652103   7.369517   2.240044   2.904205
    34  H   10.074026  10.817532   9.688835   4.728392   5.190455
    35  H    9.446358  10.247355   9.333713   5.071155   5.190014
    36  H    9.303920  10.295738   9.159476   4.519950   4.349665
    37  C    4.262320   5.589573   4.817051   4.177410   2.978770
    38  C    3.658587   5.125836   4.738855   5.542412   4.328931
    39  C    4.631430   6.043936   5.914083   6.690461   5.437080
    40  H    5.331229   6.654841   5.905050   4.492670   3.243880
    41  H    4.228346   5.652766   4.595663   3.740540   2.278328
    42  H    2.652465   4.228582   3.904409   5.736896   4.598315
    43  H    4.681494   6.063851   6.182354   7.642674   6.388275
    44  H    5.637026   6.997662   6.807121   6.856763   5.607827
                   31         32         33         34         35
    31  H    0.000000
    32  H    4.416102   0.000000
    33  H    3.766406   1.759973   0.000000
    34  H    6.197164   2.503457   2.495395   0.000000
    35  H    6.158962   2.538224   3.075351   1.771046   0.000000
    36  H    5.700755   3.086070   2.512014   1.768529   1.769817
    37  C    3.266944   5.096114   4.818923   6.501620   5.633084
    38  C    4.350902   6.488976   6.317824   7.934503   6.928359
    39  C    5.630294   7.230145   7.176000   8.487570   7.276445
    40  H    3.969925   4.887742   4.616575   5.950336   4.938388
    41  H    2.744857   5.288667   4.659488   6.573482   5.966986
    42  H    4.289323   7.075659   6.853055   8.679931   7.791627
    43  H    6.454512   8.267899   8.237880   9.568798   8.331416
    44  H    6.045694   6.985445   6.994491   8.011229   6.679106
                   36         37         38         39         40
    36  H    0.000000
    37  C    5.390671   0.000000
    38  C    6.776773   1.503990   0.000000
    39  C    7.236117   2.519036   1.334794   0.000000
    40  H    4.683323   1.095715   2.131705   2.639390   0.000000
    41  H    5.420013   1.096030   2.124278   3.248444   1.762889
    42  H    7.594791   2.207996   1.088809   2.093682   3.077379
    43  H    8.314796   3.507988   2.116829   1.086154   3.718741
    44  H    6.706439   2.786461   2.119622   1.087706   2.461718
                   41         42         43         44
    41  H    0.000000
    42  H    2.479391   0.000000
    43  H    4.142652   2.434689   0.000000
    44  H    3.603829   3.075823   1.849977   0.000000
 Stoichiometry    C14H26O3Si
 Framework group  C1[X(C14H26O3Si)]
 Deg. of freedom   126
 Full point group                 C1      NOp   1
 Largest Abelian subgroup         C1      NOp   1
 Largest concise Abelian subgroup C1      NOp   1
                         Standard orientation:                         
 ---------------------------------------------------------------------
 Center     Atomic      Atomic             Coordinates (Angstroms)
 Number     Number       Type             X           Y           Z
 ---------------------------------------------------------------------
      1          6           0       -2.496920   -0.440404   -0.295442
      2          6           0       -1.097204   -1.069740   -0.382953
      3          6           0        0.015527    0.019540   -0.335063
      4          6           0       -0.170639    0.784114    0.983247
      5          6           0       -1.579102    1.274155    1.253068
      6          1           0       -2.713682    0.082562   -1.236247
      7          1           0       -0.940107   -1.676611    0.519430
      8          1           0        0.077696    0.112528    1.815148
      9          1           0        0.489607    1.649016    1.052128
     10          8           0       -2.616369    0.574621    0.749634
     11          8           0       -1.811795    2.224359    1.971356
     12          6           0       -3.619272   -1.442620   -0.018876
     13          6           0       -5.016484   -0.813930   -0.007012
     14          6           0       -0.983736   -1.995713   -1.604320
     15          8           0        1.259185   -0.664250   -0.369089
     16         14           0        2.750103   -0.703496    0.402831
     17          6           0        3.997250   -1.038207   -0.968860
     18          6           0        3.217587    0.882915    1.312101
     19          6           0        2.734970   -2.145266    1.621120
     20          1           0        4.266892    0.806466    1.621761
     21          1           0        3.121070    1.768886    0.677742
     22          1           0        2.621157    1.043445    2.215278
     23          1           0        2.015254   -1.974298    2.429725
     24          1           0        2.453319   -3.075580    1.116033
     25          1           0        3.719539   -2.294612    2.077868
     26          1           0        4.024069   -0.219417   -1.695300
     27          1           0        5.005439   -1.152998   -0.555215
     28          1           0        3.751687   -1.957255   -1.511439
     29          1           0       -1.555743   -2.914722   -1.457108
     30          1           0       -1.353791   -1.518653   -2.518170
     31          1           0        0.060323   -2.272567   -1.761704
     32          1           0       -3.415072   -1.932034    0.941558
     33          1           0       -3.577399   -2.220736   -0.786970
     34          1           0       -5.777803   -1.573230    0.195861
     35          1           0       -5.095989   -0.038909    0.759414
     36          1           0       -5.250888   -0.356763   -0.974721
     37          6           0       -0.061923    0.985320   -1.551595
     38          6           0        1.082264    1.955395   -1.660109
     39          6           0        0.990303    3.272352   -1.463026
     40          1           0       -1.003674    1.543622   -1.506910
     41          1           0       -0.091054    0.376923   -2.462795
     42          1           0        2.042805    1.526867   -1.941589
     43          1           0        1.851419    3.925514   -1.570683
     44          1           0        0.049599    3.746178   -1.191608
 ---------------------------------------------------------------------
 Rotational constants (GHZ):      0.5349543      0.2494141      0.2237377
 Standard basis: 6-31G(d,p) (6D, 7F)
 There are   404 symmetry adapted cartesian basis functions of A   symmetry.
 There are   404 symmetry adapted basis functions of A   symmetry.
   404 basis functions,   710 primitive gaussians,   404 cartesian basis functions
    74 alpha electrons       74 beta electrons
       nuclear repulsion energy      1619.2692358805 Hartrees.
 NAtoms=   44 NActive=   44 NUniq=   44 SFac= 1.00D+00 NAtFMM=   60 NAOKFM=F Big=F
 Integral buffers will be    131072 words long.
 Raffenetti 2 integral format.
 Two-electron integral symmetry is turned on.
 ------------------------------------------------------------------------------
 Polarizable Continuum Model (PCM)
 =================================
 Model                : PCM (using non-symmetric T matrix).
 Atomic radii         : UFF (Universal Force Field).
 Polarization charges : Total charges.
 Charge compensation  : None.
 Solution method      : On-the-fly selection.
 Cavity type          : Scaled VdW (van der Waals Surface) (Alpha=1.100).
 Cavity algorithm     : GePol (No added spheres)
                        Default sphere list used, NSphG=   44.
                        Lebedev-Laikov grids with approx.  5.0 points / Ang**2.
                        Smoothing algorithm: Karplus/York (Gamma=1.0000).
                        Polarization charges: spherical gaussians, with
                                              point-specific exponents (IZeta= 3).
                        Self-potential: point-specific (ISelfS= 7).
                        Self-field    : sphere-specific E.n sum rule (ISelfD= 2).
 1st derivatives      : Analytical E(r).r(x)/FMM algorithm (CHGder, D1EAlg=3).
                        Cavity 1st derivative terms included.
 Solvent              : Chloroform, Eps=   4.711300 Eps(inf)=   2.090627
 ------------------------------------------------------------------------------
 One-electron integrals computed using PRISM.
 NBasis=   404 RedAO= T EigKep=  1.68D-03  NBF=   404
 NBsUse=   404 1.00D-06 EigRej= -1.00D+00 NBFU=   404
 ExpMin= 7.78D-02 ExpMax= 1.61D+04 ExpMxC= 2.43D+03 IAcc=2 IRadAn=         4 AccDes= 0.00D+00
 Harris functional with IExCor=  402 and IRadAn=       4 diagonalized for initial guess.
 HarFok:  IExCor=  402 AccDes= 0.00D+00 IRadAn=         4 IDoV= 1 UseB2=F ITyADJ=14
 ICtDFT=  3500011 ScaDFX=  1.000000  1.000000  1.000000  1.000000
 FoFCou: FMM=F IPFlag=           0 FMFlag=      100000 FMFlg1=           0
         NFxFlg=           0 DoJE=T BraDBF=F KetDBF=T FulRan=T
         wScrn=  0.000000 ICntrl=     500 IOpCl=  0 I1Cent=   200000004 NGrid=           0
         NMat0=    1 NMatS0=      1 NMatT0=    0 NMatD0=    1 NMtDS0=    0 NMtDT0=    0
 Petite list used in FoFCou.
 Requested convergence on RMS density matrix=1.00D-08 within 128 cycles.
 Requested convergence on MAX density matrix=1.00D-06.
 Requested convergence on             energy=1.00D-06.
 No special actions if energy rises.
 Inv3:  Mode=1 IEnd=    25807467.
 Iteration    1 A*A^-1 deviation from unit magnitude is 9.33D-15 for   2683.
 Iteration    1 A*A^-1 deviation from orthogonality  is 6.00D-15 for   2699   1251.
 Iteration    1 A^-1*A deviation from unit magnitude is 8.88D-15 for   2683.
 Iteration    1 A^-1*A deviation from orthogonality  is 1.96D-11 for   2438   2431.
 Error on total polarization charges =  0.00940
 SCF Done:  E(RB3LYP) =  -1064.42308320     A.U. after   13 cycles
            NFock= 13  Conv=0.50D-08     -V/T= 2.0081

 **********************************************************************

            Population analysis using the SCF density.

 **********************************************************************

 Orbital symmetries:
       Occupied  (A) (A) (A) (A) (A) (A) (A) (A) (A) (A) (A) (A)
                 (A) (A) (A) (A) (A) (A) (A) (A) (A) (A) (A) (A)
                 (A) (A) (A) (A) (A) (A) (A) (A) (A) (A) (A) (A)
                 (A) (A) (A) (A) (A) (A) (A) (A) (A) (A) (A) (A)
                 (A) (A) (A) (A) (A) (A) (A) (A) (A) (A) (A) (A)
                 (A) (A) (A) (A) (A) (A) (A) (A) (A) (A) (A) (A)
                 (A) (A)
       Virtual   (A) (A) (A) (A) (A) (A) (A) (A) (A) (A) (A) (A)
                 (A) (A) (A) (A) (A) (A) (A) (A) (A) (A) (A) (A)
                 (A) (A) (A) (A) (A) (A) (A) (A) (A) (A) (A) (A)
                 (A) (A) (A) (A) (A) (A) (A) (A) (A) (A) (A) (A)
                 (A) (A) (A) (A) (A) (A) (A) (A) (A) (A) (A) (A)
                 (A) (A) (A) (A) (A) (A) (A) (A) (A) (A) (A) (A)
                 (A) (A) (A) (A) (A) (A) (A) (A) (A) (A) (A) (A)
                 (A) (A) (A) (A) (A) (A) (A) (A) (A) (A) (A) (A)
                 (A) (A) (A) (A) (A) (A) (A) (A) (A) (A) (A) (A)
                 (A) (A) (A) (A) (A) (A) (A) (A) (A) (A) (A) (A)
                 (A) (A) (A) (A) (A) (A) (A) (A) (A) (A) (A) (A)
                 (A) (A) (A) (A) (A) (A) (A) (A) (A) (A) (A) (A)
                 (A) (A) (A) (A) (A) (A) (A) (A) (A) (A) (A) (A)
                 (A) (A) (A) (A) (A) (A) (A) (A) (A) (A) (A) (A)
                 (A) (A) (A) (A) (A) (A) (A) (A) (A) (A) (A) (A)
                 (A) (A) (A) (A) (A) (A) (A) (A) (A) (A) (A) (A)
                 (A) (A) (A) (A) (A) (A) (A) (A) (A) (A) (A) (A)
                 (A) (A) (A) (A) (A) (A) (A) (A) (A) (A) (A) (A)
                 (A) (A) (A) (A) (A) (A) (A) (A) (A) (A) (A) (A)
                 (A) (A) (A) (A) (A) (A) (A) (A) (A) (A) (A) (A)
                 (A) (A) (A) (A) (A) (A) (A) (A) (A) (A) (A) (A)
                 (A) (A) (A) (A) (A) (A) (A) (A) (A) (A) (A) (A)
                 (A) (A) (A) (A) (A) (A) (A) (A) (A) (A) (A) (A)
                 (A) (A) (A) (A) (A) (A) (A) (A) (A) (A) (A) (A)
                 (A) (A) (A) (A) (A) (A) (A) (A) (A) (A) (A) (A)
                 (A) (A) (A) (A) (A) (A) (A) (A) (A) (A) (A) (A)
                 (A) (A) (A) (A) (A) (A) (A) (A) (A) (A) (A) (A)
                 (A) (A) (A) (A) (A) (A)
 The electronic state is 1-A.
 Alpha  occ. eigenvalues --  -66.14443 -19.18797 -19.13650 -19.13054 -10.31864
 Alpha  occ. eigenvalues --  -10.26276 -10.25310 -10.19995 -10.19810 -10.19268
 Alpha  occ. eigenvalues --  -10.19133 -10.18907 -10.18215 -10.17924 -10.17445
 Alpha  occ. eigenvalues --  -10.15975 -10.15815 -10.15798  -5.28453  -3.64562
 Alpha  occ. eigenvalues --   -3.64258  -3.64236  -1.09559  -1.01306  -1.00620
 Alpha  occ. eigenvalues --   -0.82832  -0.80297  -0.77716  -0.74912  -0.71288
 Alpha  occ. eigenvalues --   -0.69871  -0.69244  -0.67594  -0.67471  -0.64119
 Alpha  occ. eigenvalues --   -0.61245  -0.59616  -0.56528  -0.53919  -0.51541
 Alpha  occ. eigenvalues --   -0.49777  -0.47740  -0.47232  -0.46706  -0.45308
 Alpha  occ. eigenvalues --   -0.44196  -0.43267  -0.42852  -0.42271  -0.41710
 Alpha  occ. eigenvalues --   -0.40564  -0.40463  -0.40221  -0.39496  -0.39177
 Alpha  occ. eigenvalues --   -0.38867  -0.38608  -0.37785  -0.37617  -0.36906
 Alpha  occ. eigenvalues --   -0.36527  -0.36190  -0.35265  -0.34773  -0.34371
 Alpha  occ. eigenvalues --   -0.33934  -0.32484  -0.31813  -0.30419  -0.29192
 Alpha  occ. eigenvalues --   -0.28511  -0.26888  -0.26432  -0.25298
 Alpha virt. eigenvalues --    0.00451   0.01181   0.06743   0.07838   0.08737
 Alpha virt. eigenvalues --    0.09368   0.10135   0.10651   0.11096   0.11438
 Alpha virt. eigenvalues --    0.12085   0.12804   0.12944   0.13677   0.14404
 Alpha virt. eigenvalues --    0.14709   0.15225   0.16166   0.16603   0.16899
 Alpha virt. eigenvalues --    0.17323   0.17483   0.18082   0.18538   0.19077
 Alpha virt. eigenvalues --    0.19187   0.19769   0.20461   0.20882   0.21031
 Alpha virt. eigenvalues --    0.21550   0.21910   0.22333   0.23172   0.23852
 Alpha virt. eigenvalues --    0.24618   0.25787   0.26203   0.27136   0.27883
 Alpha virt. eigenvalues --    0.29082   0.31184   0.32908   0.35019   0.36294
 Alpha virt. eigenvalues --    0.37765   0.38701   0.39678   0.40576   0.43065
 Alpha virt. eigenvalues --    0.47015   0.47986   0.48655   0.49741   0.50989
 Alpha virt. eigenvalues --    0.51594   0.52203   0.53865   0.54717   0.55447
 Alpha virt. eigenvalues --    0.56753   0.58491   0.59399   0.60003   0.60868
 Alpha virt. eigenvalues --    0.61416   0.61974   0.64022   0.64635   0.65143
 Alpha virt. eigenvalues --    0.65741   0.66520   0.66984   0.68099   0.69454
 Alpha virt. eigenvalues --    0.70097   0.70925   0.71868   0.72573   0.73707
 Alpha virt. eigenvalues --    0.74478   0.74966   0.75644   0.77005   0.77728
 Alpha virt. eigenvalues --    0.79171   0.79863   0.80408   0.82383   0.82807
 Alpha virt. eigenvalues --    0.83143   0.83603   0.84989   0.85413   0.85706
 Alpha virt. eigenvalues --    0.85925   0.86616   0.87415   0.88028   0.88407
 Alpha virt. eigenvalues --    0.88712   0.89833   0.90052   0.90772   0.91219
 Alpha virt. eigenvalues --    0.91789   0.92184   0.93075   0.93453   0.93795
 Alpha virt. eigenvalues --    0.94496   0.94929   0.95688   0.96502   0.97206
 Alpha virt. eigenvalues --    0.98703   0.99113   1.00422   1.00929   1.01551
 Alpha virt. eigenvalues --    1.01886   1.03489   1.03749   1.05543   1.08184
 Alpha virt. eigenvalues --    1.08734   1.11005   1.11667   1.15534   1.17219
 Alpha virt. eigenvalues --    1.20401   1.22214   1.22341   1.24128   1.26372
 Alpha virt. eigenvalues --    1.28077   1.29336   1.30127   1.31881   1.34315
 Alpha virt. eigenvalues --    1.35985   1.38128   1.39560   1.41272   1.43044
 Alpha virt. eigenvalues --    1.43626   1.44340   1.46223   1.47169   1.48182
 Alpha virt. eigenvalues --    1.49424   1.51242   1.52905   1.56198   1.56806
 Alpha virt. eigenvalues --    1.60328   1.60630   1.62221   1.64414   1.65169
 Alpha virt. eigenvalues --    1.65869   1.67867   1.68139   1.70417   1.72400
 Alpha virt. eigenvalues --    1.74405   1.75383   1.76213   1.78128   1.80150
 Alpha virt. eigenvalues --    1.81186   1.81958   1.84525   1.84641   1.85935
 Alpha virt. eigenvalues --    1.86297   1.87843   1.89158   1.90033   1.91071
 Alpha virt. eigenvalues --    1.92381   1.93213   1.94946   1.95962   1.97587
 Alpha virt. eigenvalues --    1.98494   1.99517   2.00165   2.01621   2.02010
 Alpha virt. eigenvalues --    2.04157   2.04962   2.05102   2.05220   2.05703
 Alpha virt. eigenvalues --    2.06243   2.06909   2.07529   2.08856   2.09175
 Alpha virt. eigenvalues --    2.09370   2.10411   2.11091   2.11720   2.11891
 Alpha virt. eigenvalues --    2.12645   2.12774   2.13208   2.13673   2.14191
 Alpha virt. eigenvalues --    2.14742   2.15399   2.15934   2.16330   2.18621
 Alpha virt. eigenvalues --    2.19106   2.21058   2.23060   2.25813   2.26052
 Alpha virt. eigenvalues --    2.27122   2.28503   2.30191   2.30891   2.32134
 Alpha virt. eigenvalues --    2.32639   2.33871   2.34162   2.35767   2.36320
 Alpha virt. eigenvalues --    2.36942   2.37943   2.38404   2.38934   2.40510
 Alpha virt. eigenvalues --    2.43388   2.44969   2.47167   2.48893   2.50466
 Alpha virt. eigenvalues --    2.51667   2.52129   2.53852   2.56375   2.58712
 Alpha virt. eigenvalues --    2.59522   2.62972   2.64451   2.64935   2.64938
 Alpha virt. eigenvalues --    2.65509   2.67054   2.68655   2.69216   2.69534
 Alpha virt. eigenvalues --    2.72342   2.72980   2.73639   2.75054   2.75732
 Alpha virt. eigenvalues --    2.78053   2.79414   2.80317   2.81338   2.81833
 Alpha virt. eigenvalues --    2.82817   2.83126   2.84213   2.84670   2.84959
 Alpha virt. eigenvalues --    2.85300   2.86304   2.86751   2.88394   2.89744
 Alpha virt. eigenvalues --    2.91413   2.91645   2.92542   2.93176   2.95756
 Alpha virt. eigenvalues --    2.96995   2.99127   3.04197   3.08436   3.11022
 Alpha virt. eigenvalues --    3.18272   3.19794   3.20026   3.20332   3.21301
 Alpha virt. eigenvalues --    3.21731   3.23772   3.25171   3.28908   3.31999
 Alpha virt. eigenvalues --    3.34170   3.35984   3.40771   3.43249   3.43387
 Alpha virt. eigenvalues --    3.43839   3.44418   3.44549   3.45112   3.45940
 Alpha virt. eigenvalues --    3.46706   3.47054   3.48295   3.49425   3.51675
 Alpha virt. eigenvalues --    3.53413   3.56273   3.67697   4.02430   4.14870
 Alpha virt. eigenvalues --    4.21099   4.23562   4.35147   4.40557   4.44714
 Alpha virt. eigenvalues --    4.46193   4.47999   4.49137   4.53558   4.61573
 Alpha virt. eigenvalues --    4.65194   4.65802   4.70500   4.78202   4.81969
          Condensed to atoms (all electrons):
               1          2          3          4          5          6
     1  C    4.813525   0.325762  -0.031031  -0.008327  -0.007520   0.377638
     2  C    0.325762   5.085310   0.343641  -0.051152  -0.015035  -0.045393
     3  C   -0.031031   0.343641   4.820930   0.293919  -0.015947  -0.012004
     4  C   -0.008327  -0.051152   0.293919   5.340075   0.289379   0.001380
     5  C   -0.007520  -0.015035  -0.015947   0.289379   4.354683  -0.001495
     6  H    0.377638  -0.045393  -0.012004   0.001380  -0.001495   0.642243
     7  H   -0.040025   0.371896  -0.043104  -0.007482   0.000602   0.006595
     8  H    0.000467  -0.007142  -0.026093   0.364495  -0.024627   0.000004
     9  H    0.000106   0.005456  -0.029810   0.358412  -0.021340   0.000068
    10  O    0.160953  -0.026545   0.003132  -0.093481   0.263100  -0.041569
    11  O    0.002478  -0.000103   0.002230  -0.080491   0.582048   0.000004
    12  C    0.382880  -0.034414   0.004778  -0.000699   0.001446  -0.051572
    13  C   -0.036412   0.003916  -0.000083  -0.000013   0.000094  -0.006234
    14  C   -0.036149   0.349980  -0.028145   0.005096   0.000477  -0.004759
    15  O    0.003032  -0.046067   0.186375  -0.027498   0.001523  -0.000038
    16  Si   0.000266  -0.002017  -0.013750  -0.001187   0.000027  -0.000020
    17  C    0.000000  -0.000024   0.000658  -0.000075   0.000000   0.000000
    18  C    0.000002  -0.000057  -0.001217   0.000356   0.000070   0.000000
    19  C   -0.000001   0.000009   0.000865  -0.000819  -0.000011   0.000000
    20  H    0.000000   0.000001   0.000013   0.000075  -0.000001   0.000000
    21  H    0.000000   0.000001   0.000017  -0.001127  -0.000011   0.000000
    22  H    0.000000  -0.000009  -0.000038  -0.000199  -0.000009   0.000000
    23  H   -0.000001  -0.000025   0.000146  -0.000296  -0.000006   0.000000
    24  H    0.000000   0.000050  -0.000154   0.000046   0.000001   0.000000
    25  H    0.000000   0.000002  -0.000010   0.000011   0.000000   0.000000
    26  H    0.000000  -0.000001  -0.000057  -0.000011   0.000000   0.000000
    27  H    0.000000   0.000000  -0.000010   0.000002   0.000000   0.000000
    28  H    0.000000   0.000000  -0.000054   0.000003   0.000000   0.000000
    29  H   -0.003550  -0.026633   0.003848  -0.000128  -0.000011  -0.000112
    30  H   -0.006612  -0.035282  -0.005325   0.000019  -0.000009   0.006685
    31  H    0.004021  -0.029880  -0.009026   0.000359  -0.000023  -0.000068
    32  H   -0.034856  -0.006658  -0.000139   0.000001   0.000228   0.006431
    33  H   -0.033652  -0.004948  -0.000004   0.000038  -0.000051  -0.000481
    34  H    0.003840  -0.000096   0.000001   0.000001  -0.000002  -0.000050
    35  H   -0.008208   0.000152  -0.000006   0.000044   0.000301   0.000111
    36  H   -0.004628   0.000073   0.000000   0.000001  -0.000017   0.005331
    37  C   -0.001516  -0.056543   0.338859  -0.071041   0.001253   0.004935
    38  C    0.000008   0.004959  -0.035856  -0.007829  -0.000209   0.000007
    39  C   -0.000016  -0.000009  -0.003085  -0.000250   0.000062   0.000002
    40  H    0.001921  -0.003703  -0.025386  -0.005645   0.002519  -0.000035
    41  H   -0.000657  -0.009866  -0.032650   0.006281  -0.000063   0.000465
    42  H    0.000005  -0.000091  -0.003668  -0.000115   0.000003   0.000001
    43  H    0.000000   0.000003  -0.000025  -0.000045  -0.000002   0.000000
    44  H   -0.000006  -0.000014  -0.000058  -0.000065   0.000325   0.000006
               7          8          9         10         11         12
     1  C   -0.040025   0.000467   0.000106   0.160953   0.002478   0.382880
     2  C    0.371896  -0.007142   0.005456  -0.026545  -0.000103  -0.034414
     3  C   -0.043104  -0.026093  -0.029810   0.003132   0.002230   0.004778
     4  C   -0.007482   0.364495   0.358412  -0.093481  -0.080491  -0.000699
     5  C    0.000602  -0.024627  -0.021340   0.263100   0.582048   0.001446
     6  H    0.006595   0.000004   0.000068  -0.041569   0.000004  -0.051572
     7  H    0.642246   0.004468   0.000020  -0.000319  -0.000040  -0.009611
     8  H    0.004468   0.553715  -0.025592   0.000413  -0.000755  -0.000016
     9  H    0.000020  -0.025592   0.553330   0.002865   0.002215   0.000006
    10  O   -0.000319   0.000413   0.002865   8.340743  -0.083905  -0.048540
    11  O   -0.000040  -0.000755   0.002215  -0.083905   8.075954  -0.000078
    12  C   -0.009611  -0.000016   0.000006  -0.048540  -0.000078   4.930163
    13  C    0.000035   0.000001   0.000000  -0.004834  -0.000010   0.364407
    14  C   -0.038926  -0.000025  -0.000123   0.002401   0.000001  -0.004883
    15  O    0.000091  -0.003581  -0.000421  -0.000004  -0.000014  -0.000037
    16  Si   0.000506   0.003833   0.000785  -0.000005  -0.000070  -0.000010
    17  C   -0.000001   0.000006  -0.000012   0.000000   0.000000   0.000000
    18  C   -0.000004  -0.000916  -0.001068   0.000000  -0.000002   0.000000
    19  C    0.000134  -0.000086   0.000026   0.000000   0.000000   0.000000
    20  H    0.000000   0.000018   0.000088   0.000000   0.000000   0.000000
    21  H    0.000000   0.000026   0.001564   0.000000   0.000000   0.000000
    22  H   -0.000001   0.000598   0.000748   0.000000   0.000003   0.000000
    23  H    0.000153   0.000921  -0.000006   0.000000   0.000000   0.000000
    24  H    0.000046  -0.000028   0.000000   0.000000   0.000000   0.000000
    25  H    0.000005   0.000008   0.000000   0.000000   0.000000   0.000000
    26  H    0.000000   0.000000  -0.000002   0.000000   0.000000   0.000000
    27  H    0.000000   0.000000   0.000000   0.000000   0.000000   0.000000
    28  H    0.000000   0.000000   0.000000   0.000000   0.000000   0.000000
    29  H   -0.006637  -0.000005   0.000003  -0.000019   0.000000   0.000804
    30  H    0.005430   0.000003   0.000004   0.000026   0.000000  -0.000921
    31  H   -0.001223   0.000005  -0.000008  -0.000047   0.000000   0.000108
    32  H    0.006424   0.000009   0.000001  -0.000432  -0.000023   0.376439
    33  H    0.000126  -0.000002   0.000000   0.003373   0.000001   0.375502
    34  H   -0.000004   0.000000   0.000000   0.000133   0.000000  -0.027350
    35  H    0.000003  -0.000001   0.000000   0.009314   0.000025  -0.033675
    36  H    0.000012   0.000000   0.000000  -0.000258   0.000000  -0.035999
    37  C    0.006186   0.005561  -0.008610  -0.002615   0.000120  -0.000051
    38  C   -0.000131   0.000132   0.008086   0.000023  -0.000021  -0.000002
    39  C   -0.000001  -0.000012   0.004951  -0.000004  -0.000052   0.000000
    40  H   -0.000108   0.000103   0.000120   0.001901  -0.000330   0.000148
    41  H    0.000059  -0.000168   0.000159   0.000049   0.000001  -0.000026
    42  H    0.000002   0.000014  -0.000067   0.000000   0.000000   0.000000
    43  H    0.000000  -0.000001   0.000048   0.000000   0.000000   0.000000
    44  H    0.000000   0.000007   0.000140  -0.000010   0.000105   0.000000
              13         14         15         16         17         18
     1  C   -0.036412  -0.036149   0.003032   0.000266   0.000000   0.000002
     2  C    0.003916   0.349980  -0.046067  -0.002017  -0.000024  -0.000057
     3  C   -0.000083  -0.028145   0.186375  -0.013750   0.000658  -0.001217
     4  C   -0.000013   0.005096  -0.027498  -0.001187  -0.000075   0.000356
     5  C    0.000094   0.000477   0.001523   0.000027   0.000000   0.000070
     6  H   -0.006234  -0.004759  -0.000038  -0.000020   0.000000   0.000000
     7  H    0.000035  -0.038926   0.000091   0.000506  -0.000001  -0.000004
     8  H    0.000001  -0.000025  -0.003581   0.003833   0.000006  -0.000916
     9  H    0.000000  -0.000123  -0.000421   0.000785  -0.000012  -0.001068
    10  O   -0.004834   0.002401  -0.000004  -0.000005   0.000000   0.000000
    11  O   -0.000010   0.000001  -0.000014  -0.000070   0.000000  -0.000002
    12  C    0.364407  -0.004883  -0.000037  -0.000010   0.000000   0.000000
    13  C    4.926800   0.000057   0.000000   0.000000   0.000000   0.000000
    14  C    0.000057   4.969370  -0.009970   0.000190  -0.000015  -0.000001
    15  O    0.000000  -0.009970   8.323561   0.331586  -0.023684  -0.013250
    16  Si   0.000000   0.000190   0.331586  11.834650   0.375344   0.361356
    17  C    0.000000  -0.000015  -0.023684   0.375344   5.127171  -0.027768
    18  C    0.000000  -0.000001  -0.013250   0.361356  -0.027768   5.161338
    19  C    0.000000  -0.000007  -0.022007   0.370933  -0.031468  -0.031613
    20  H    0.000000   0.000000   0.000450  -0.014675  -0.000987   0.368096
    21  H    0.000000   0.000000  -0.000612  -0.022518  -0.000976   0.373076
    22  H    0.000000   0.000000  -0.000211  -0.024271   0.001227   0.378136
    23  H    0.000000  -0.000001  -0.000749  -0.024687   0.001194  -0.001286
    24  H    0.000000   0.000008  -0.000790  -0.024386  -0.001292   0.001254
    25  H    0.000000   0.000000   0.000664  -0.013142  -0.000116  -0.000067
    26  H    0.000000   0.000000  -0.000749  -0.026319   0.377278  -0.000977
    27  H    0.000000   0.000000   0.000699  -0.014110   0.367042  -0.000600
    28  H    0.000000  -0.000010  -0.000671  -0.022300   0.377479   0.001219
    29  H   -0.000077   0.379631   0.000095  -0.000055   0.000000   0.000000
    30  H   -0.000037   0.382697   0.000079  -0.000084   0.000000   0.000000
    31  H    0.000001   0.379042   0.011654   0.002354  -0.000068   0.000008
    32  H   -0.038284  -0.000234  -0.000002  -0.000007   0.000000   0.000000
    33  H   -0.035253   0.001937   0.000000   0.000000   0.000000   0.000000
    34  H    0.380628  -0.000001   0.000000   0.000000   0.000000   0.000000
    35  H    0.388607  -0.000007   0.000000   0.000000   0.000000   0.000000
    36  H    0.385324  -0.000016   0.000000   0.000000   0.000000   0.000000
    37  C   -0.000001  -0.010281  -0.064293  -0.004029   0.000157   0.000168
    38  C    0.000000   0.000075   0.003485   0.006093  -0.000973  -0.002357
    39  C    0.000000   0.000002   0.000374   0.000878  -0.000008  -0.001167
    40  H    0.000004   0.000177   0.003427   0.000368  -0.000001  -0.000011
    41  H    0.000000   0.003343  -0.000181   0.000528  -0.000015  -0.000005
    42  H    0.000000  -0.000007   0.001357   0.003159   0.000423  -0.000616
    43  H    0.000000   0.000000   0.000004   0.000088  -0.000001  -0.000021
    44  H    0.000000   0.000000   0.000002   0.000064   0.000000  -0.000002
              19         20         21         22         23         24
     1  C   -0.000001   0.000000   0.000000   0.000000  -0.000001   0.000000
     2  C    0.000009   0.000001   0.000001  -0.000009  -0.000025   0.000050
     3  C    0.000865   0.000013   0.000017  -0.000038   0.000146  -0.000154
     4  C   -0.000819   0.000075  -0.001127  -0.000199  -0.000296   0.000046
     5  C   -0.000011  -0.000001  -0.000011  -0.000009  -0.000006   0.000001
     6  H    0.000000   0.000000   0.000000   0.000000   0.000000   0.000000
     7  H    0.000134   0.000000   0.000000  -0.000001   0.000153   0.000046
     8  H   -0.000086   0.000018   0.000026   0.000598   0.000921  -0.000028
     9  H    0.000026   0.000088   0.001564   0.000748  -0.000006   0.000000
    10  O    0.000000   0.000000   0.000000   0.000000   0.000000   0.000000
    11  O    0.000000   0.000000   0.000000   0.000003   0.000000   0.000000
    12  C    0.000000   0.000000   0.000000   0.000000   0.000000   0.000000
    13  C    0.000000   0.000000   0.000000   0.000000   0.000000   0.000000
    14  C   -0.000007   0.000000   0.000000   0.000000  -0.000001   0.000008
    15  O   -0.022007   0.000450  -0.000612  -0.000211  -0.000749  -0.000790
    16  Si   0.370933  -0.014675  -0.022518  -0.024271  -0.024687  -0.024386
    17  C   -0.031468  -0.000987  -0.000976   0.001227   0.001194  -0.001292
    18  C   -0.031613   0.368096   0.373076   0.378136  -0.001286   0.001254
    19  C    5.133150  -0.000283   0.001200  -0.001451   0.376135   0.377828
    20  H   -0.000283   0.571947  -0.022409  -0.023590  -0.000012   0.000001
    21  H    0.001200  -0.022409   0.565216  -0.023797   0.000004  -0.000020
    22  H   -0.001451  -0.023590  -0.023797   0.571673   0.000621   0.000010
    23  H    0.376135  -0.000012   0.000004   0.000621   0.579619  -0.023073
    24  H    0.377828   0.000001  -0.000020   0.000010  -0.023073   0.575005
    25  H    0.366840   0.000004   0.000004  -0.000065  -0.024370  -0.024351
    26  H    0.001169  -0.000033   0.000358   0.000004  -0.000022   0.000000
    27  H    0.000045   0.000159  -0.000029  -0.000006   0.000008  -0.000025
    28  H   -0.001382   0.000016  -0.000004  -0.000021   0.000007   0.000497
    29  H    0.000000   0.000000   0.000000   0.000000   0.000000   0.000000
    30  H    0.000000   0.000000   0.000000   0.000000   0.000000   0.000000
    31  H   -0.000090   0.000000   0.000000   0.000000  -0.000003   0.000037
    32  H    0.000000   0.000000   0.000000   0.000000   0.000000   0.000000
    33  H    0.000000   0.000000   0.000000   0.000000   0.000000   0.000000
    34  H    0.000000   0.000000   0.000000   0.000000   0.000000   0.000000
    35  H    0.000000   0.000000   0.000000   0.000000   0.000000   0.000000
    36  H    0.000000   0.000000   0.000000   0.000000   0.000000   0.000000
    37  C   -0.000059   0.000001  -0.000088   0.000031  -0.000001  -0.000004
    38  C    0.000009   0.000024   0.003660  -0.000068   0.000001   0.000001
    39  C    0.000001   0.000012   0.002546  -0.000012   0.000000   0.000000
    40  H    0.000001   0.000000   0.000004   0.000000   0.000000   0.000000
    41  H    0.000000   0.000000   0.000015   0.000000   0.000000   0.000000
    42  H    0.000004   0.000013  -0.000140   0.000027   0.000000   0.000000
    43  H    0.000000   0.000000   0.000235  -0.000002   0.000000   0.000000
    44  H    0.000000   0.000000  -0.000019   0.000001   0.000000   0.000000
              25         26         27         28         29         30
     1  C    0.000000   0.000000   0.000000   0.000000  -0.003550  -0.006612
     2  C    0.000002  -0.000001   0.000000   0.000000  -0.026633  -0.035282
     3  C   -0.000010  -0.000057  -0.000010  -0.000054   0.003848  -0.005325
     4  C    0.000011  -0.000011   0.000002   0.000003  -0.000128   0.000019
     5  C    0.000000   0.000000   0.000000   0.000000  -0.000011  -0.000009
     6  H    0.000000   0.000000   0.000000   0.000000  -0.000112   0.006685
     7  H    0.000005   0.000000   0.000000   0.000000  -0.006637   0.005430
     8  H    0.000008   0.000000   0.000000   0.000000  -0.000005   0.000003
     9  H    0.000000  -0.000002   0.000000   0.000000   0.000003   0.000004
    10  O    0.000000   0.000000   0.000000   0.000000  -0.000019   0.000026
    11  O    0.000000   0.000000   0.000000   0.000000   0.000000   0.000000
    12  C    0.000000   0.000000   0.000000   0.000000   0.000804  -0.000921
    13  C    0.000000   0.000000   0.000000   0.000000  -0.000077  -0.000037
    14  C    0.000000   0.000000   0.000000  -0.000010   0.379631   0.382697
    15  O    0.000664  -0.000749   0.000699  -0.000671   0.000095   0.000079
    16  Si  -0.013142  -0.026319  -0.014110  -0.022300  -0.000055  -0.000084
    17  C   -0.000116   0.377278   0.367042   0.377479   0.000000   0.000000
    18  C   -0.000067  -0.000977  -0.000600   0.001219   0.000000   0.000000
    19  C    0.366840   0.001169   0.000045  -0.001382   0.000000   0.000000
    20  H    0.000004  -0.000033   0.000159   0.000016   0.000000   0.000000
    21  H    0.000004   0.000358  -0.000029  -0.000004   0.000000   0.000000
    22  H   -0.000065   0.000004  -0.000006  -0.000021   0.000000   0.000000
    23  H   -0.024370  -0.000022   0.000008   0.000007   0.000000   0.000000
    24  H   -0.024351   0.000000  -0.000025   0.000497   0.000000   0.000000
    25  H    0.577421   0.000004  -0.000092  -0.000019   0.000000   0.000000
    26  H    0.000004   0.575631  -0.023750  -0.022743   0.000000   0.000000
    27  H   -0.000092  -0.023750   0.577722  -0.024640   0.000000   0.000000
    28  H   -0.000019  -0.022743  -0.024640   0.571318   0.000000   0.000000
    29  H    0.000000   0.000000   0.000000   0.000000   0.596422  -0.032206
    30  H    0.000000   0.000000   0.000000   0.000000  -0.032206   0.599614
    31  H    0.000000  -0.000004   0.000000   0.000117  -0.027388  -0.028695
    32  H    0.000000   0.000000   0.000000   0.000000   0.000421   0.000092
    33  H    0.000000   0.000000   0.000000   0.000000   0.001958   0.000711
    34  H    0.000000   0.000000   0.000000   0.000000   0.000003   0.000000
    35  H    0.000000   0.000000   0.000000   0.000000   0.000000   0.000000
    36  H    0.000000   0.000000   0.000000   0.000000   0.000011   0.000004
    37  C    0.000001   0.000038  -0.000001  -0.000001   0.000156   0.001273
    38  C    0.000000  -0.000477   0.000015   0.000020   0.000000  -0.000053
    39  C    0.000000  -0.000004   0.000000   0.000000   0.000000   0.000000
    40  H    0.000000   0.000000   0.000000   0.000000  -0.000013  -0.000002
    41  H    0.000000  -0.000004   0.000000  -0.000001  -0.000132   0.002532
    42  H    0.000000   0.002143  -0.000028  -0.000030   0.000000   0.000005
    43  H    0.000000  -0.000003   0.000000   0.000000   0.000000   0.000000
    44  H    0.000000   0.000000   0.000000   0.000000   0.000000   0.000000
              31         32         33         34         35         36
     1  C    0.004021  -0.034856  -0.033652   0.003840  -0.008208  -0.004628
     2  C   -0.029880  -0.006658  -0.004948  -0.000096   0.000152   0.000073
     3  C   -0.009026  -0.000139  -0.000004   0.000001  -0.000006   0.000000
     4  C    0.000359   0.000001   0.000038   0.000001   0.000044   0.000001
     5  C   -0.000023   0.000228  -0.000051  -0.000002   0.000301  -0.000017
     6  H   -0.000068   0.006431  -0.000481  -0.000050   0.000111   0.005331
     7  H   -0.001223   0.006424   0.000126  -0.000004   0.000003   0.000012
     8  H    0.000005   0.000009  -0.000002   0.000000  -0.000001   0.000000
     9  H   -0.000008   0.000001   0.000000   0.000000   0.000000   0.000000
    10  O   -0.000047  -0.000432   0.003373   0.000133   0.009314  -0.000258
    11  O    0.000000  -0.000023   0.000001   0.000000   0.000025   0.000000
    12  C    0.000108   0.376439   0.375502  -0.027350  -0.033675  -0.035999
    13  C    0.000001  -0.038284  -0.035253   0.380628   0.388607   0.385324
    14  C    0.379042  -0.000234   0.001937  -0.000001  -0.000007  -0.000016
[...]
    20  H   -0.000128   0.574359  -0.023862  -0.023882  -0.000030   0.000003
    21  H    0.001178  -0.023862   0.570631  -0.023243   0.000000  -0.000021
    22  H   -0.001308  -0.023882  -0.023243   0.573263   0.000423   0.000004
    23  H    0.376322  -0.000030   0.000000   0.000423   0.576311  -0.023715
    24  H    0.378023   0.000003  -0.000021   0.000004  -0.023715   0.572249
    25  H    0.368698   0.000061   0.000010  -0.000030  -0.023474  -0.023647
    26  H    0.001187  -0.000029   0.000444   0.000006  -0.000021   0.000000
    27  H   -0.000382   0.000006  -0.000038   0.000002  -0.000002  -0.000050
    28  H   -0.001301   0.000008   0.000000  -0.000021   0.000006   0.000535
    29  H   -0.000003   0.000000   0.000000   0.000000   0.000000   0.000060
    30  H    0.000004   0.000000   0.000000   0.000000   0.000000  -0.000002
    31  H   -0.000267   0.000000   0.000000   0.000000   0.000002   0.000081
    32  H   -0.000004   0.000000   0.000000   0.000000   0.000007   0.000001
    33  H    0.000000   0.000000   0.000000   0.000000   0.000000   0.000000
    34  H    0.000000   0.000000   0.000000   0.000000   0.000000   0.000000
    35  H    0.000000   0.000000   0.000000   0.000000   0.000000   0.000000
    36  H    0.000000   0.000000   0.000000   0.000000   0.000000   0.000000
    37  C   -0.000060   0.000000   0.000010   0.000009  -0.000004  -0.000004
    38  C    0.000004   0.000002   0.000128  -0.000032   0.000000   0.000000
    39  C    0.000000   0.000000   0.000010  -0.000006   0.000000   0.000000
    40  H    0.000001   0.000000   0.000000   0.000000   0.000000   0.000000
    41  H    0.000000   0.000000   0.000001   0.000000   0.000000   0.000000
    42  H    0.000005   0.000001   0.000396  -0.000011   0.000000   0.000000
    43  H    0.000000   0.000000  -0.000001   0.000000   0.000000   0.000000
    44  H    0.000000   0.000000   0.000000   0.000000   0.000000   0.000000
              25         26         27         28         29         30
     1  C    0.000000   0.000000   0.000000   0.000000  -0.003115  -0.006918
     2  C    0.000050   0.000003   0.000001  -0.000009  -0.027394  -0.034076
     3  C   -0.000013  -0.000047  -0.000015  -0.000051   0.004017  -0.006143
     4  C    0.000041  -0.000006   0.000002   0.000002  -0.000129   0.000018
     5  C    0.000000   0.000000   0.000000   0.000000  -0.000010  -0.000008
     6  H    0.000000   0.000000   0.000000   0.000000  -0.000149   0.007074
     7  H    0.000026   0.000000   0.000000  -0.000007  -0.006392   0.005470
     8  H   -0.000021   0.000001   0.000001   0.000000  -0.000004   0.000002
     9  H   -0.000001   0.000000   0.000000   0.000000   0.000003   0.000004
    10  O    0.000000   0.000000   0.000000   0.000000  -0.000016   0.000031
    11  O    0.000000   0.000000   0.000000   0.000000   0.000000   0.000000
    12  C    0.000000   0.000000   0.000000   0.000000   0.000602  -0.000594
    13  C    0.000000   0.000000   0.000000   0.000000  -0.000101  -0.000028
    14  C   -0.000003   0.000000   0.000001  -0.000029   0.379504   0.382792
    15  O    0.000531  -0.000546   0.000678  -0.000615   0.000117   0.000049
    16  Si  -0.013929  -0.022959  -0.015204  -0.024118  -0.000126  -0.000230
    17  C   -0.000663   0.377428   0.368487   0.377155   0.000000   0.000002
    18  C   -0.000253  -0.001245  -0.000218   0.001179   0.000000   0.000000
    19  C    0.368698   0.001187  -0.000382  -0.001301  -0.000003   0.000004
    20  H    0.000061  -0.000029   0.000006   0.000008   0.000000   0.000000
    21  H    0.000010   0.000444  -0.000038   0.000000   0.000000   0.000000
    22  H   -0.000030   0.000006   0.000002  -0.000021   0.000000   0.000000
    23  H   -0.023474  -0.000021  -0.000002   0.000006   0.000000   0.000000
    24  H   -0.023647   0.000000  -0.000050   0.000535   0.000060  -0.000002
    25  H    0.569613   0.000007   0.000074  -0.000020   0.000000   0.000000
    26  H    0.000007   0.569803  -0.024052  -0.022455   0.000000   0.000000
    27  H    0.000074  -0.024052   0.576069  -0.024046   0.000000   0.000000
    28  H   -0.000020  -0.022455  -0.024046   0.572734  -0.000001  -0.000001
    29  H    0.000000   0.000000   0.000000  -0.000001   0.596211  -0.031940
    30  H    0.000000   0.000000   0.000000  -0.000001  -0.031940   0.595176
    31  H    0.000003  -0.000007   0.000002   0.000499  -0.027468  -0.027789
    32  H    0.000000   0.000000   0.000000   0.000000   0.000316   0.000062
    33  H    0.000000   0.000000   0.000000   0.000000   0.002473   0.000498
    34  H    0.000000   0.000000   0.000000   0.000000   0.000003   0.000000
    35  H    0.000000   0.000000   0.000000   0.000000   0.000000   0.000001
    36  H    0.000000   0.000000   0.000000   0.000000   0.000012   0.000000
    37  C    0.000001   0.000009   0.000000  -0.000002   0.000132   0.001999
    38  C    0.000000  -0.000015   0.000000   0.000000  -0.000001  -0.000045
    39  C    0.000000   0.000000   0.000000   0.000000   0.000000   0.000000
    40  H    0.000000   0.000000   0.000000   0.000000  -0.000013   0.000043
    41  H    0.000000  -0.000002   0.000000   0.000000  -0.000094   0.002130
    42  H    0.000000   0.000093   0.000000  -0.000001   0.000000   0.000003
    43  H    0.000000   0.000000   0.000000   0.000000   0.000000   0.000000
    44  H    0.000000   0.000000   0.000000   0.000000   0.000000   0.000000
              31         32         33         34         35         36
     1  C    0.003880  -0.033953  -0.034311   0.003861  -0.008086  -0.004699
     2  C   -0.029707  -0.007417  -0.004224  -0.000099   0.000160   0.000067
     3  C   -0.008853  -0.000149   0.000010   0.000001  -0.000005  -0.000001
     4  C    0.000311   0.000000   0.000042   0.000001   0.000045   0.000001
     5  C   -0.000023   0.000337  -0.000047  -0.000002   0.000324  -0.000013
     6  H   -0.000023   0.006363  -0.000399  -0.000039   0.000098   0.005333
     7  H   -0.001572   0.006901   0.000080  -0.000005   0.000001   0.000014
     8  H    0.000007   0.000027  -0.000004   0.000000  -0.000001   0.000000
     9  H   -0.000007   0.000001   0.000000   0.000000   0.000000   0.000000
    10  O   -0.000047  -0.000516   0.003412   0.000127   0.009175  -0.000254
    11  O    0.000000  -0.000034   0.000001   0.000000   0.000022   0.000000
    12  C    0.000079   0.375798   0.374864  -0.027243  -0.033633  -0.036158
    13  C    0.000001  -0.038090  -0.035423   0.380503   0.388619   0.385624
    14  C    0.379440  -0.000080   0.001343  -0.000001  -0.000008  -0.000011
    15  O    0.009935  -0.000002   0.000000   0.000000   0.000000   0.000000
    16  Si   0.003155  -0.000030  -0.000002   0.000000   0.000000   0.000000
    17  C   -0.000128   0.000000   0.000000   0.000000   0.000000   0.000000
    18  C    0.000011   0.000000   0.000000   0.000000   0.000000   0.000000
    19  C   -0.000267  -0.000004   0.000000   0.000000   0.000000   0.000000
    20  H    0.000000   0.000000   0.000000   0.000000   0.000000   0.000000
    21  H    0.000000   0.000000   0.000000   0.000000   0.000000   0.000000
    22  H    0.000000   0.000000   0.000000   0.000000   0.000000   0.000000
    23  H    0.000002   0.000007   0.000000   0.000000   0.000000   0.000000
    24  H    0.000081   0.000001   0.000000   0.000000   0.000000   0.000000
    25  H    0.000003   0.000000   0.000000   0.000000   0.000000   0.000000
    26  H   -0.000007   0.000000   0.000000   0.000000   0.000000   0.000000
    27  H    0.000002   0.000000   0.000000   0.000000   0.000000   0.000000
    28  H    0.000499   0.000000   0.000000   0.000000   0.000000   0.000000
    29  H   -0.027468   0.000316   0.002473   0.000003   0.000000   0.000012
    30  H   -0.027789   0.000062   0.000498   0.000000   0.000001   0.000000
    31  H    0.565110  -0.000021  -0.000017   0.000000   0.000000   0.000000
    32  H   -0.000021   0.616334  -0.032231  -0.003151  -0.003761   0.005147
    33  H   -0.000017  -0.032231   0.615136  -0.003478   0.005001  -0.004224
    34  H    0.000000  -0.003151  -0.003478   0.603697  -0.029973  -0.031234
    35  H    0.000000  -0.003761   0.005001  -0.029973   0.576535  -0.030569
    36  H    0.000000   0.005147  -0.004224  -0.031234  -0.030569   0.604110
    37  C   -0.000573   0.000009  -0.000004   0.000000   0.000000  -0.000001
    38  C   -0.000061   0.000000   0.000000   0.000000   0.000000   0.000000
    39  C    0.000000   0.000000   0.000000   0.000000   0.000000   0.000000
    40  H    0.000046  -0.000004  -0.000003   0.000000   0.000000  -0.000005
    41  H    0.001187   0.000000  -0.000001   0.000000   0.000000   0.000000
    42  H    0.000000   0.000000   0.000000   0.000000   0.000000   0.000000
    43  H    0.000000   0.000000   0.000000   0.000000   0.000000   0.000000
    44  H    0.000000   0.000000   0.000000   0.000000   0.000000   0.000000
              37         38         39         40         41         42
     1  C   -0.001350  -0.000025  -0.000020   0.002285  -0.000479   0.000002
     2  C   -0.056687   0.005058  -0.000031  -0.004181  -0.009169   0.000044
     3  C    0.346998  -0.036275  -0.002113  -0.025812  -0.032171  -0.004782
     4  C   -0.071551  -0.009435  -0.000569  -0.004842   0.006379  -0.000363
     5  C    0.001869  -0.000300   0.000296   0.002524  -0.000110   0.000031
     6  H    0.004538  -0.000017   0.000002  -0.000253   0.000115   0.000001
     7  H    0.005904  -0.000125   0.000000  -0.000059  -0.000006   0.000000
     8  H    0.005614   0.000151   0.000009   0.000034  -0.000164  -0.000002
     9  H   -0.009814   0.011571   0.004348   0.000165   0.000207   0.000292
    10  O   -0.003105   0.000047  -0.000007   0.002477   0.000064  -0.000001
    11  O    0.000173  -0.000075  -0.000027  -0.000319   0.000001   0.000000
    12  C   -0.000034  -0.000002   0.000000   0.000171  -0.000022   0.000000
    13  C    0.000000   0.000000   0.000000   0.000004   0.000000   0.000000
    14  C   -0.009828   0.000071   0.000002   0.000104   0.003261  -0.000005
    15  O   -0.065989   0.001185   0.000468   0.003542  -0.000291   0.005134
    16  Si  -0.001898   0.001231   0.000127   0.000118   0.000464   0.002094
    17  C   -0.000012  -0.000036   0.000000   0.000000  -0.000012  -0.000065
    18  C    0.000030  -0.000176  -0.000011   0.000000   0.000001  -0.000073
    19  C   -0.000060   0.000004   0.000000   0.000001   0.000000   0.000005
    20  H    0.000000   0.000002   0.000000   0.000000   0.000000   0.000001
    21  H    0.000010   0.000128   0.000010   0.000000   0.000001   0.000396
    22  H    0.000009  -0.000032  -0.000006   0.000000   0.000000  -0.000011
    23  H   -0.000004   0.000000   0.000000   0.000000   0.000000   0.000000
    24  H   -0.000004   0.000000   0.000000   0.000000   0.000000   0.000000
    25  H    0.000001   0.000000   0.000000   0.000000   0.000000   0.000000
    26  H    0.000009  -0.000015   0.000000   0.000000  -0.000002   0.000093
    27  H    0.000000   0.000000   0.000000   0.000000   0.000000   0.000000
    28  H   -0.000002   0.000000   0.000000   0.000000   0.000000  -0.000001
    29  H    0.000132  -0.000001   0.000000  -0.000013  -0.000094   0.000000
    30  H    0.001999  -0.000045   0.000000   0.000043   0.002130   0.000003
    31  H   -0.000573  -0.000061   0.000000   0.000046   0.001187   0.000000
    32  H    0.000009   0.000000   0.000000  -0.000004   0.000000   0.000000
    33  H   -0.000004   0.000000   0.000000  -0.000003  -0.000001   0.000000
    34  H    0.000000   0.000000   0.000000   0.000000   0.000000   0.000000
    35  H    0.000000   0.000000   0.000000   0.000000   0.000000   0.000000
    36  H   -0.000001   0.000000   0.000000  -0.000005   0.000000   0.000000
    37  C    5.064193   0.385988  -0.040809   0.362306   0.367654  -0.049779
    38  C    0.385988   4.765501   0.655333  -0.038563  -0.032875   0.385430
    39  C   -0.040809   0.655333   4.933894  -0.006016   0.001031  -0.045772
    40  H    0.362306  -0.038563  -0.006016   0.619093  -0.030766   0.005182
    41  H    0.367654  -0.032875   0.001031  -0.030766   0.604389  -0.002168
    42  H   -0.049779   0.385430  -0.045772   0.005182  -0.002168   0.600829
    43  H    0.004681  -0.025971   0.376578   0.000090  -0.000213  -0.007952
    44  H   -0.012038  -0.034141   0.381726   0.006186   0.000182   0.005610
              43         44
     1  C    0.000000  -0.000006
     2  C    0.000003  -0.000010
     3  C   -0.000046   0.000059
     4  C   -0.000050  -0.000025
     5  C   -0.000003   0.000207
     6  H    0.000000   0.000004
     7  H    0.000000   0.000000
     8  H    0.000000   0.000001
     9  H    0.000064   0.000020
    10  O    0.000000  -0.000012
    11  O    0.000000   0.000034
    12  C    0.000000   0.000000
    13  C    0.000000   0.000000
    14  C    0.000000   0.000000
    15  O    0.000003  -0.000002
    16  Si   0.000012   0.000011
    17  C    0.000000   0.000000
    18  C    0.000000   0.000000
    19  C    0.000000   0.000000
    20  H    0.000000   0.000000
    21  H   -0.000001   0.000000
    22  H    0.000000   0.000000
    23  H    0.000000   0.000000
    24  H    0.000000   0.000000
    25  H    0.000000   0.000000
    26  H    0.000000   0.000000
    27  H    0.000000   0.000000
    28  H    0.000000   0.000000
    29  H    0.000000   0.000000
    30  H    0.000000   0.000000
    31  H    0.000000   0.000000
    32  H    0.000000   0.000000
    33  H    0.000000   0.000000
    34  H    0.000000   0.000000
    35  H    0.000000   0.000000
    36  H    0.000000   0.000000
    37  C    0.004681  -0.012038
    38  C   -0.025971  -0.034141
    39  C    0.376578   0.381726
    40  H    0.000090   0.006186
    41  H   -0.000213   0.000182
    42  H   -0.007952   0.005610
    43  H    0.591379  -0.043459
    44  H   -0.043459   0.591857
 Mulliken charges:
               1
     1  C    0.179308
     2  C   -0.096916
     3  C    0.309982
     4  C   -0.298862
     5  C    0.589415
     6  H    0.112796
     7  H    0.101773
     8  H    0.149333
     9  H    0.148302
    10  O   -0.486348
    11  O   -0.499721
    12  C   -0.187940
    13  C   -0.328529
    14  C   -0.339797
    15  O   -0.653864
    16  Si   0.917056
    17  C   -0.535118
    18  C   -0.549190
    19  C   -0.557437
    20  H    0.119701
    21  H    0.121761
    22  H    0.119524
    23  H    0.118626
    24  H    0.121319
    25  H    0.122937
    26  H    0.122406
    27  H    0.118686
    28  H    0.120557
    29  H    0.113507
    30  H    0.112416
    31  H    0.132815
    32  H    0.108139
    33  H    0.111509
    34  H    0.107034
    35  H    0.126057
    36  H    0.106862
    37  C   -0.228575
    38  C   -0.033531
    39  C   -0.258441
    40  H    0.106465
    41  H    0.121478
    42  H    0.105825
    43  H    0.104886
    44  H    0.103798
 Sum of Mulliken charges =   0.00000
 Mulliken charges with hydrogens summed into heavy atoms:
               1
     1  C    0.292104
     2  C    0.004857
     3  C    0.309982
     4  C   -0.001227
     5  C    0.589415
    10  O   -0.486348
    11  O   -0.499721
    12  C    0.031708
    13  C    0.011423
    14  C    0.018941
    15  O   -0.653864
    16  Si   0.917056
    17  C   -0.173469
    18  C   -0.188205
    19  C   -0.194555
    37  C   -0.000632
    38  C    0.072294
    39  C   -0.049757
 Electronic spatial extent (au):  <R**2>=           5543.7390
 Charge=              0.0000 electrons
 Dipole moment (field-independent basis, Debye):
    X=              2.2238    Y=             -3.8528    Z=             -2.7483  Tot=              5.2290
 Quadrupole moment (field-independent basis, Debye-Ang):
   XX=           -118.2097   YY=           -119.1900   ZZ=           -124.8062
   XY=              7.1685   XZ=             11.8403   YZ=             -6.8059
 Traceless Quadrupole moment (field-independent basis, Debye-Ang):
   XX=              2.5256   YY=              1.5453   ZZ=             -4.0709
   XY=              7.1685   XZ=             11.8403   YZ=             -6.8059
 Octapole moment (field-independent basis, Debye-Ang**2):
  XXX=             17.1834  YYY=             -2.9101  ZZZ=             -7.9683  XYY=              6.7127
  XXY=            -21.9965  XXZ=            -14.9844  XZZ=             11.0032  YZZ=            -22.9577
  YYZ=            -12.2577  XYZ=             11.7489
 Hexadecapole moment (field-independent basis, Debye-Ang**3):
 XXXX=          -4223.9957 YYYY=          -2020.3395 ZZZZ=          -1177.5783 XXXY=             25.7566
 XXXZ=             54.0529 YYYX=             26.9680 YYYZ=              0.0532 ZZZX=             23.2797
 ZZZY=            -11.0310 XXYY=          -1035.7145 XXZZ=           -930.2328 YYZZ=           -590.2284
 XXYZ=            -47.7695 YYXZ=             21.7795 ZZXY=             27.2658
 N-N= 1.622784554242D+03 E-N=-5.735891205295D+03  KE= 1.055909234044D+03
 1\1\GINC-SWANNODE-0-15\FOpt\RB3LYP\6-31G(d,p)\C14H26O3Si1\KE291\06-Feb
 -2019\0\\# b3lyp/6-31g(d,p) Opt=(maxcycles=50) scrf=(solvent=chlorofor
 m)\\P_ng_correct1ginp018\\0,1\C,0.8189482785,-0.4356006901,0.391797765
 1\C,-0.7070646513,-0.4485356672,0.5837308381\C,-1.1577679791,0.6257585
 604,1.6143104765\C,-0.6774006013,1.9844126763,1.0855574738\C,0.7940103
 937,2.0393455326,0.7246657739\H,1.2917143181,-0.9123927532,1.260249137
 5\H,-1.1670212769,-0.1536366844,-0.3691833033\H,-1.2194296347,2.230349
 0266,0.1643570141\H,-0.8666957192,2.7869514071,1.8003751081\O,1.405927
 4789,0.9028701165,0.3343793988\O,1.4281164958,3.0737026484,0.718367603
 2\C,1.2875568144,-1.1472963359,-0.87982706\C,2.8110038455,-1.215900197
 3,-1.0226636323\C,-1.1980259459,-1.8634043453,0.9280659946\O,-2.575871
 4157,0.5879689393,1.7470868208\Si,-3.8984311737,1.2645663856,0.9561019
 625\C,-5.3636583756,0.3324949309,1.67878654\C,-4.0513546546,3.10472867
 08,1.3426219813\C,-3.8336280543,1.0031330336,-0.9136646717\H,-4.995174
 0572,3.4953383789,0.9443323677\H,-4.0500423098,3.2799104336,2.42368446
 45\H,-3.2407760576,3.6967984132,0.9064998523\H,-2.9996782899,1.5268547
 441,-1.3925735356\H,-3.7552189939,-0.0592317333,-1.1677805669\H,-4.756
 4549024,1.3833245111,-1.3676521247\H,-5.411566708,0.4510085849,2.76623
 14077\H,-6.3064683793,0.7019615712,1.2602139897\H,-5.2970483597,-0.738
 5040452,1.4608775842\H,-1.1182992194,-2.5312392812,0.0669286174\H,-0.6
 223286313,-2.3081045511,1.7463804404\H,-2.2463861226,-1.8288532684,1.2
 308443481\H,0.8482273643,-0.6323341158,-1.7434205285\H,0.876204754,-2.
 1620864197,-0.8738353041\H,3.0877385624,-1.7425664348,-1.9408883044\H,
 3.2498869851,-0.2158871036,-1.0575451859\H,3.262134638,-1.7531836101,-
 0.1808726734\C,-0.5876002546,0.3553963173,3.0334237576\C,-1.02784939,1
 .3533665442,4.0696439424\C,-0.204132933,2.1155115687,4.7910378922\H,0.
 5071387394,0.3294735128,2.9954776459\H,-0.92578575,-0.6433049559,3.334
 5494169\H,-2.1023036425,1.4286718519,4.2251128897\H,-0.5780267792,2.81
 08193233,5.5370631718\H,0.8754435947,2.0701775095,4.6656552139\\Versio
 n=EM64L-G09RevD.01\State=1-A\HF=-1064.425082\RMSD=8.757e-09\RMSF=4.096
 e-06\Dipole=-1.4045127,-1.4765661,-0.2818089\Quadrupole=-2.8690221,-0.
 8094078,3.6784299,-10.6247223,2.6221981,2.7450283\PG=C01 [X(C14H26O3Si
 1)]\\@


 IF I AM NOT FOR MYSELF, WHO WILL BE?
 BUT IF I AM ONLY FOR MYSELF, WHAT AM I?
 THOUGH A SEEKER SINCE MY BIRTH,
 HERE IS ALL I'VE LEARNED ON EARTH,
 THIS IS THE GIST OF WHAT I KNOW:
 GIVE ADVICE AND BUY A FOE.

 PRESSED FOR RULES AND VERITIES,
 ALL I RECOLLECT ARE THESE:
 FEED A COLD TO STARVE A FEVER,
 ARGUE WITH NO TRUE-BELIEVER.
 THINK-TOO-LONG IS NEVER-ACT,
 SCRATCH A MYTH AND FIND A FACT.

 STITCH IN TIME SAVES TWENTY STITCHES,
 GIVE THE RICH TO PLEASE THEM, RICHES.
 GIVE TO LOVE YOU HEARTH AND HALL,
 BUT DO NOT GIVE ADVICE AT ALL.

                                  -- HILLEL
 Job cpu time:       0 days  6 hours 18 minutes 44.8 seconds.
 File lengths (MBytes):  RWF=    380 Int=      0 D2E=      0 Chk=     17 Scr=      1
 Normal termination of Gaussian 09 at Wed Feb  6 16:06:36 2019.
