 Entering Gaussian System, Link 0=/usr/local/Cluster-Apps/gaussian/g09/g09
 Initial command:
 /usr/local/Cluster-Apps/gaussian/g09/l1.exe "/home/ke291/rds/hpc-work/06Feb0927IP1/Gau-172726.inp" -scrdir="/home/ke291/rds/hpc-work/06Feb0927IP1/"
 Entering Link 1 = /usr/local/Cluster-Apps/gaussian/g09/l1.exe PID=    172733.
  
 Copyright (c) 1988,1990,1992,1993,1995,1998,2003,2009,2013,
            Gaussian, Inc.  All Rights Reserved.
  
 This is part of the Gaussian(R) 09 program.  It is based on
 the Gaussian(R) 03 system (copyright 2003, Gaussian, Inc.),
 the Gaussian(R) 98 system (copyright 1998, Gaussian, Inc.),
 the Gaussian(R) 94 system (copyright 1995, Gaussian, Inc.),
 the Gaussian 92(TM) system (copyright 1992, Gaussian, Inc.),
 the Gaussian 90(TM) system (copyright 1990, Gaussian, Inc.),
 the Gaussian 88(TM) system (copyright 1988, Gaussian, Inc.),
 the Gaussian 86(TM) system (copyright 1986, Carnegie Mellon
 University), and the Gaussian 82(TM) system (copyright 1983,
 Carnegie Mellon University). Gaussian is a federally registered
 trademark of Gaussian, Inc.
  
 This software contains proprietary and confidential information,
 including trade secrets, belonging to Gaussian, Inc.
  
 This software is provided under written license and may be
 used, copied, transmitted, or stored only in accord with that
 written license.
  
 The following legend is applicable only to US Government
 contracts under FAR:
  
                    RESTRICTED RIGHTS LEGEND
  
 Use, reproduction and disclosure by the US Government is
 subject to restrictions as set forth in subparagraphs (a)
 and (c) of the Commercial Computer Software - Restricted
 Rights clause in FAR 52.227-19.
  
 Gaussian, Inc.
 340 Quinnipiac St., Bldg. 40, Wallingford CT 06492
  
  
 ---------------------------------------------------------------
 Warning -- This program may not be used in any manner that
 competes with the business of Gaussian, Inc. or will provide
 assistance to any competitor of Gaussian, Inc.  The licensee
 of this program is prohibited from giving any competitor of
 Gaussian, Inc. access to this program.  By using this program,
 the user acknowledges that Gaussian, Inc. is engaged in the
 business of creating and licensing software in the field of
 computational chemistry and represents and warrants to the
 licensee that it is not a competitor of Gaussian, Inc. and that
 it will not use this program in any manner prohibited above.
 ---------------------------------------------------------------
  

 Cite this work as:
 Gaussian 09, Revision D.01,
 M. J. Frisch, G. W. Trucks, H. B. Schlegel, G. E. Scuseria, 
 M. A. Robb, J. R. Cheeseman, G. Scalmani, V. Barone, B. Mennucci, 
 G. A. Petersson, H. Nakatsuji, M. Caricato, X. Li, H. P. Hratchian, 
 A. F. Izmaylov, J. Bloino, G. Zheng, J. L. Sonnenberg, M. Hada, 
 M. Ehara, K. Toyota, R. Fukuda, J. Hasegawa, M. Ishida, T. Nakajima, 
 Y. Honda, O. Kitao, H. Nakai, T. Vreven, J. A. Montgomery, Jr., 
 J. E. Peralta, F. Ogliaro, M. Bearpark, J. J. Heyd, E. Brothers, 
 K. N. Kudin, V. N. Staroverov, T. Keith, R. Kobayashi, J. Normand, 
 K. Raghavachari, A. Rendell, J. C. Burant, S. S. Iyengar, J. Tomasi, 
 M. Cossi, N. Rega, J. M. Millam, M. Klene, J. E. Knox, J. B. Cross, 
 V. Bakken, C. Adamo, J. Jaramillo, R. Gomperts, R. E. Stratmann, 
 O. Yazyev, A. J. Austin, R. Cammi, C. Pomelli, J. W. Ochterski, 
 R. L. Martin, K. Morokuma, V. G. Zakrzewski, G. A. Voth, 
 P. Salvador, J. J. Dannenberg, S. Dapprich, A. D. Daniels, 
 O. Farkas, J. B. Foresman, J. V. Ortiz, J. Cioslowski, 
 and D. J. Fox, Gaussian, Inc., Wallingford CT, 2013.
 
 ******************************************
 Gaussian 09:  ES64L-G09RevD.01 24-Apr-2013
                 6-Feb-2019 
 ******************************************
 %nprocshared=2
 Will use up to    2 processors via shared memory.
 %mem=6000MB
 %chk=/home/ke291/rds/hpc-work/06Feb0927IP1/P_ng_2ginp016.chk
 ---------------------------------------------------------------
 # b3lyp/6-31g(d,p) Opt=(maxcycles=25) scrf=(solvent=chloroform)
 ---------------------------------------------------------------
 1/6=25,14=-1,18=20,19=15,26=3,38=1/1,3;
 2/9=110,12=2,17=6,18=5,40=1/2;
 3/5=1,6=6,7=101,11=2,16=1,25=1,30=1,70=2201,71=1,72=7,74=-5/1,2,3;
 4//1;
 5/5=2,38=5,53=7/2;
 6/7=2,8=2,9=2,10=2,28=1/1;
 7//1,2,3,16;
 1/6=25,14=-1,18=20,19=15,26=3/3(2);
 2/9=110/2;
 99//99;
 2/9=110/2;
 3/5=1,6=6,7=101,11=2,16=1,25=1,30=1,70=2205,71=1,72=7,74=-5/1,2,3;
 4/5=5,16=3,69=1/1;
 5/5=2,38=5,53=7/2;
 7//1,2,3,16;
 1/6=25,14=-1,18=20,19=15,26=3/3(-5);
 2/9=110/2;
 6/7=2,8=2,9=2,10=2,19=2,28=1/1;
 99/9=1/99;
 -------------
 P_ng_2ginp016
 -------------
 Symbolic Z-matrix:
 Charge =  0 Multiplicity = 1
 C                    -0.40473  -0.03683   1.35395 
 C                    -1.19652   1.11277   0.71353 
 C                    -2.26442   1.63239   1.7166 
 C                    -1.50217   2.11721   2.95944 
 C                    -0.59283   1.07792   3.54784 
 H                    -1.05249  -0.91559   1.45908 
 H                    -0.50254   1.94618   0.55552 
 H                    -0.86564   2.98011   2.7381 
 H                    -2.21112   2.44001   3.73205 
 O                     0.06353   0.27141   2.68855 
 O                    -0.36624   1.03606   4.75308 
 C                     0.82177  -0.50492   0.54912 
 C                     1.88203   0.56856   0.33713 
 C                    -1.71918   0.74897  -0.68065 
 O                    -3.09104   2.65379   1.11735 
 Si                   -2.77199   4.27388   0.86236 
 C                    -1.07967   4.59822   0.12249 
 C                    -4.04953   4.95309  -0.35703 
 C                    -2.94303   5.26436   2.4513 
 H                    -3.87834   6.01836  -0.53673 
 H                    -3.98164   4.42309  -1.31148 
 H                    -5.06023   4.82465   0.04095 
 H                    -2.87439   6.33614   2.24201 
 H                    -3.91122   5.0687    2.92149 
 H                    -2.15603   5.00917   3.1657 
 H                    -0.96562   5.66018  -0.11584 
 H                    -0.28143   4.32478   0.81774 
 H                    -0.94489   4.02863  -0.8017 
 H                    -2.44122   1.47999  -1.05479 
 H                    -0.89412   0.72653  -1.40124 
 H                    -2.18358  -0.23994  -0.70145 
 H                     0.51187  -0.90615  -0.42184 
 H                     1.29671  -1.33116   1.09377 
 H                     2.76041   0.13334  -0.15065 
 H                     1.51523   1.37354  -0.30605 
 H                     2.20722   1.00375   1.28695 
 C                    -3.29328   0.54997   2.20987 
 C                    -4.15684  -0.08429   1.15263 
 C                    -4.29473  -1.40566   0.98329 
 H                    -3.98913   1.04047   2.90582 
 H                    -2.79101  -0.23213   2.79094 
 H                    -4.71585   0.59396   0.50941 
 H                    -4.9469   -1.79853   0.20871 
 H                    -3.77433  -2.12326   1.60987 
 

 GradGradGradGradGradGradGradGradGradGradGradGradGradGradGradGradGradGrad
 Berny optimization.
 Initialization pass.
                           ----------------------------
                           !    Initial Parameters    !
                           ! (Angstroms and Degrees)  !
 --------------------------                            --------------------------
 ! Name  Definition              Value          Derivative Info.                !
 --------------------------------------------------------------------------------
 ! R1    R(1,2)                  1.5358         estimate D2E/DX2                !
 ! R2    R(1,6)                  1.0968         estimate D2E/DX2                !
 ! R3    R(1,10)                 1.4476         estimate D2E/DX2                !
 ! R4    R(1,12)                 1.5399         estimate D2E/DX2                !
 ! R5    R(2,3)                  1.5545         estimate D2E/DX2                !
 ! R6    R(2,7)                  1.096          estimate D2E/DX2                !
 ! R7    R(2,14)                 1.5327         estimate D2E/DX2                !
 ! R8    R(3,4)                  1.5365         estimate D2E/DX2                !
 ! R9    R(3,15)                 1.4442         estimate D2E/DX2                !
 ! R10   R(3,37)                 1.5727         estimate D2E/DX2                !
 ! R11   R(4,5)                  1.5011         estimate D2E/DX2                !
 ! R12   R(4,8)                  1.0949         estimate D2E/DX2                !
 ! R13   R(4,9)                  1.0971         estimate D2E/DX2                !
 ! R14   R(5,10)                 1.3489         estimate D2E/DX2                !
 ! R15   R(5,11)                 1.2271         estimate D2E/DX2                !
 ! R16   R(12,13)                1.5236         estimate D2E/DX2                !
 ! R17   R(12,32)                1.0954         estimate D2E/DX2                !
 ! R18   R(12,33)                1.0977         estimate D2E/DX2                !
 ! R19   R(13,34)                1.0949         estimate D2E/DX2                !
 ! R20   R(13,35)                1.0937         estimate D2E/DX2                !
 ! R21   R(13,36)                1.0942         estimate D2E/DX2                !
 ! R22   R(14,29)                1.0935         estimate D2E/DX2                !
 ! R23   R(14,30)                1.0957         estimate D2E/DX2                !
 ! R24   R(14,31)                1.0927         estimate D2E/DX2                !
 ! R25   R(15,16)                1.6708         estimate D2E/DX2                !
 ! R26   R(16,17)                1.8752         estimate D2E/DX2                !
 ! R27   R(16,18)                1.8922         estimate D2E/DX2                !
 ! R28   R(16,19)                1.8802         estimate D2E/DX2                !
 ! R29   R(17,26)                1.0943         estimate D2E/DX2                !
 ! R30   R(17,27)                1.0933         estimate D2E/DX2                !
 ! R31   R(17,28)                1.0939         estimate D2E/DX2                !
 ! R32   R(18,20)                1.0938         estimate D2E/DX2                !
 ! R33   R(18,21)                1.0938         estimate D2E/DX2                !
 ! R34   R(18,22)                1.0938         estimate D2E/DX2                !
 ! R35   R(19,23)                1.0942         estimate D2E/DX2                !
 ! R36   R(19,24)                1.094          estimate D2E/DX2                !
 ! R37   R(19,25)                1.0931         estimate D2E/DX2                !
 ! R38   R(37,38)                1.5053         estimate D2E/DX2                !
 ! R39   R(37,40)                1.0996         estimate D2E/DX2                !
 ! R40   R(37,41)                1.0962         estimate D2E/DX2                !
 ! R41   R(38,39)                1.3393         estimate D2E/DX2                !
 ! R42   R(38,42)                1.0891         estimate D2E/DX2                !
 ! R43   R(39,43)                1.0861         estimate D2E/DX2                !
 ! R44   R(39,44)                1.0855         estimate D2E/DX2                !
 ! A1    A(2,1,6)              109.5868         estimate D2E/DX2                !
 ! A2    A(2,1,10)             113.069          estimate D2E/DX2                !
 ! A3    A(2,1,12)             114.8497         estimate D2E/DX2                !
 ! A4    A(6,1,10)             105.8602         estimate D2E/DX2                !
 ! A5    A(6,1,12)             106.0787         estimate D2E/DX2                !
 ! A6    A(10,1,12)            106.7955         estimate D2E/DX2                !
 ! A7    A(1,2,3)              109.5912         estimate D2E/DX2                !
 ! A8    A(1,2,7)              107.6302         estimate D2E/DX2                !
 ! A9    A(1,2,14)             112.1749         estimate D2E/DX2                !
 ! A10   A(3,2,7)              105.8932         estimate D2E/DX2                !
 ! A11   A(3,2,14)             115.5954         estimate D2E/DX2                !
 ! A12   A(7,2,14)             105.3834         estimate D2E/DX2                !
 ! A13   A(2,3,4)              106.6551         estimate D2E/DX2                !
 ! A14   A(2,3,15)             111.2148         estimate D2E/DX2                !
 ! A15   A(2,3,37)             114.9439         estimate D2E/DX2                !
 ! A16   A(4,3,15)             113.3554         estimate D2E/DX2                !
 ! A17   A(4,3,37)             106.7387         estimate D2E/DX2                !
 ! A18   A(15,3,37)            104.032          estimate D2E/DX2                !
 ! A19   A(3,4,5)              113.5246         estimate D2E/DX2                !
 ! A20   A(3,4,8)              111.9366         estimate D2E/DX2                !
 ! A21   A(3,4,9)              109.9923         estimate D2E/DX2                !
 ! A22   A(5,4,8)              105.8262         estimate D2E/DX2                !
 ! A23   A(5,4,9)              108.6097         estimate D2E/DX2                !
 ! A24   A(8,4,9)              106.6271         estimate D2E/DX2                !
 ! A25   A(4,5,10)             117.3234         estimate D2E/DX2                !
 ! A26   A(4,5,11)             121.3657         estimate D2E/DX2                !
 ! A27   A(10,5,11)            121.0263         estimate D2E/DX2                !
 ! A28   A(1,10,5)             123.8636         estimate D2E/DX2                !
 ! A29   A(1,12,13)            114.3818         estimate D2E/DX2                !
 ! A30   A(1,12,32)            110.4455         estimate D2E/DX2                !
 ! A31   A(1,12,33)            108.3073         estimate D2E/DX2                !
 ! A32   A(13,12,32)           109.3671         estimate D2E/DX2                !
 ! A33   A(13,12,33)           107.3539         estimate D2E/DX2                !
 ! A34   A(32,12,33)           106.6503         estimate D2E/DX2                !
 ! A35   A(12,13,34)           109.8878         estimate D2E/DX2                !
 ! A36   A(12,13,35)           111.5304         estimate D2E/DX2                !
 ! A37   A(12,13,36)           111.4846         estimate D2E/DX2                !
 ! A38   A(34,13,35)           107.4346         estimate D2E/DX2                !
 ! A39   A(34,13,36)           107.8407         estimate D2E/DX2                !
 ! A40   A(35,13,36)           108.5066         estimate D2E/DX2                !
 ! A41   A(2,14,29)            112.1917         estimate D2E/DX2                !
 ! A42   A(2,14,30)            110.2618         estimate D2E/DX2                !
 ! A43   A(2,14,31)            112.151          estimate D2E/DX2                !
 ! A44   A(29,14,30)           106.6124         estimate D2E/DX2                !
 ! A45   A(29,14,31)           108.5336         estimate D2E/DX2                !
 ! A46   A(30,14,31)           106.7969         estimate D2E/DX2                !
 ! A47   A(3,15,16)            129.7791         estimate D2E/DX2                !
 ! A48   A(15,16,17)           113.5937         estimate D2E/DX2                !
 ! A49   A(15,16,18)           108.5113         estimate D2E/DX2                !
 ! A50   A(15,16,19)           111.3751         estimate D2E/DX2                !
 ! A51   A(17,16,18)           107.0356         estimate D2E/DX2                !
 ! A52   A(17,16,19)           108.93           estimate D2E/DX2                !
 ! A53   A(18,16,19)           107.1035         estimate D2E/DX2                !
 ! A54   A(16,17,26)           110.3538         estimate D2E/DX2                !
 ! A55   A(16,17,27)           111.3914         estimate D2E/DX2                !
 ! A56   A(16,17,28)           110.7601         estimate D2E/DX2                !
 ! A57   A(26,17,27)           107.7639         estimate D2E/DX2                !
 ! A58   A(26,17,28)           107.9654         estimate D2E/DX2                !
 ! A59   A(27,17,28)           108.4854         estimate D2E/DX2                !
 ! A60   A(16,18,20)           110.4751         estimate D2E/DX2                !
 ! A61   A(16,18,21)           110.2728         estimate D2E/DX2                !
 ! A62   A(16,18,22)           110.3191         estimate D2E/DX2                !
 ! A63   A(20,18,21)           108.5913         estimate D2E/DX2                !
 ! A64   A(20,18,22)           108.5879         estimate D2E/DX2                !
 ! A65   A(21,18,22)           108.538          estimate D2E/DX2                !
 ! A66   A(16,19,23)           110.4057         estimate D2E/DX2                !
 ! A67   A(16,19,24)           110.4577         estimate D2E/DX2                !
 ! A68   A(16,19,25)           111.3367         estimate D2E/DX2                !
 ! A69   A(23,19,24)           108.236          estimate D2E/DX2                !
 ! A70   A(23,19,25)           107.9706         estimate D2E/DX2                !
 ! A71   A(24,19,25)           108.3322         estimate D2E/DX2                !
 ! A72   A(3,37,38)            116.4238         estimate D2E/DX2                !
 ! A73   A(3,37,40)            107.7871         estimate D2E/DX2                !
 ! A74   A(3,37,41)            110.9504         estimate D2E/DX2                !
 ! A75   A(38,37,40)           105.6314         estimate D2E/DX2                !
 ! A76   A(38,37,41)           109.5452         estimate D2E/DX2                !
 ! A77   A(40,37,41)           105.8264         estimate D2E/DX2                !
 ! A78   A(37,38,39)           124.305          estimate D2E/DX2                !
 ! A79   A(37,38,42)           116.5425         estimate D2E/DX2                !
 ! A80   A(39,38,42)           119.1356         estimate D2E/DX2                !
 ! A81   A(38,39,43)           120.5886         estimate D2E/DX2                !
 ! A82   A(38,39,44)           121.9969         estimate D2E/DX2                !
 ! A83   A(43,39,44)           117.4125         estimate D2E/DX2                !
 ! D1    D(6,1,2,3)             69.4088         estimate D2E/DX2                !
 ! D2    D(6,1,2,7)           -175.8761         estimate D2E/DX2                !
 ! D3    D(6,1,2,14)           -60.4015         estimate D2E/DX2                !
 ! D4    D(10,1,2,3)           -48.4201         estimate D2E/DX2                !
 ! D5    D(10,1,2,7)            66.295          estimate D2E/DX2                !
 ! D6    D(10,1,2,14)         -178.2304         estimate D2E/DX2                !
 ! D7    D(12,1,2,3)          -171.3326         estimate D2E/DX2                !
 ! D8    D(12,1,2,7)           -56.6176         estimate D2E/DX2                !
 ! D9    D(12,1,2,14)           58.8571         estimate D2E/DX2                !
 ! D10   D(2,1,10,5)            31.5407         estimate D2E/DX2                !
 ! D11   D(6,1,10,5)           -88.4456         estimate D2E/DX2                !
 ! D12   D(12,1,10,5)          158.8176         estimate D2E/DX2                !
 ! D13   D(2,1,12,13)           61.0449         estimate D2E/DX2                !
 ! D14   D(2,1,12,32)          -62.8407         estimate D2E/DX2                !
 ! D15   D(2,1,12,33)         -179.2922         estimate D2E/DX2                !
 ! D16   D(6,1,12,13)         -177.7592         estimate D2E/DX2                !
 ! D17   D(6,1,12,32)           58.3552         estimate D2E/DX2                !
 ! D18   D(6,1,12,33)          -58.0964         estimate D2E/DX2                !
 ! D19   D(10,1,12,13)         -65.1721         estimate D2E/DX2                !
 ! D20   D(10,1,12,32)         170.9423         estimate D2E/DX2                !
 ! D21   D(10,1,12,33)          54.4907         estimate D2E/DX2                !
 ! D22   D(1,2,3,4)             59.8758         estimate D2E/DX2                !
 ! D23   D(1,2,3,15)          -176.0684         estimate D2E/DX2                !
 ! D24   D(1,2,3,37)           -58.2033         estimate D2E/DX2                !
 ! D25   D(7,2,3,4)            -55.9476         estimate D2E/DX2                !
 ! D26   D(7,2,3,15)            68.1082         estimate D2E/DX2                !
 ! D27   D(7,2,3,37)          -174.0267         estimate D2E/DX2                !
 ! D28   D(14,2,3,4)          -172.1934         estimate D2E/DX2                !
 ! D29   D(14,2,3,15)          -48.1376         estimate D2E/DX2                !
 ! D30   D(14,2,3,37)           69.7275         estimate D2E/DX2                !
 ! D31   D(1,2,14,29)          168.7487         estimate D2E/DX2                !
 ! D32   D(1,2,14,30)          -72.5841         estimate D2E/DX2                !
 ! D33   D(1,2,14,31)           46.2888         estimate D2E/DX2                !
 ! D34   D(3,2,14,29)           42.1129         estimate D2E/DX2                !
 ! D35   D(3,2,14,30)          160.78           estimate D2E/DX2                !
 ! D36   D(3,2,14,31)          -80.347          estimate D2E/DX2                !
 ! D37   D(7,2,14,29)          -74.4206         estimate D2E/DX2                !
 ! D38   D(7,2,14,30)           44.2466         estimate D2E/DX2                !
 ! D39   D(7,2,14,31)          163.1195         estimate D2E/DX2                !
 ! D40   D(2,3,4,5)            -54.5841         estimate D2E/DX2                !
 ! D41   D(2,3,4,8)             65.1502         estimate D2E/DX2                !
 ! D42   D(2,3,4,9)           -176.5047         estimate D2E/DX2                !
 ! D43   D(15,3,4,5)          -177.3088         estimate D2E/DX2                !
 ! D44   D(15,3,4,8)           -57.5745         estimate D2E/DX2                !
 ! D45   D(15,3,4,9)            60.7705         estimate D2E/DX2                !
 ! D46   D(37,3,4,5)            68.7588         estimate D2E/DX2                !
 ! D47   D(37,3,4,8)          -171.5069         estimate D2E/DX2                !
 ! D48   D(37,3,4,9)           -53.1619         estimate D2E/DX2                !
 ! D49   D(2,3,15,16)          -78.9699         estimate D2E/DX2                !
 ! D50   D(4,3,15,16)           41.1958         estimate D2E/DX2                !
 ! D51   D(37,3,15,16)         156.7447         estimate D2E/DX2                !
 ! D52   D(2,3,37,38)          -61.4866         estimate D2E/DX2                !
 ! D53   D(2,3,37,40)         -179.8724         estimate D2E/DX2                !
 ! D54   D(2,3,37,41)           64.6905         estimate D2E/DX2                !
 ! D55   D(4,3,37,38)         -179.5186         estimate D2E/DX2                !
 ! D56   D(4,3,37,40)           62.0956         estimate D2E/DX2                !
 ! D57   D(4,3,37,41)          -53.3416         estimate D2E/DX2                !
 ! D58   D(15,3,37,38)          60.3575         estimate D2E/DX2                !
 ! D59   D(15,3,37,40)         -58.0283         estimate D2E/DX2                !
 ! D60   D(15,3,37,41)        -173.4655         estimate D2E/DX2                !
 ! D61   D(3,4,5,10)            37.558          estimate D2E/DX2                !
 ! D62   D(3,4,5,11)          -148.5099         estimate D2E/DX2                !
 ! D63   D(8,4,5,10)           -85.5963         estimate D2E/DX2                !
 ! D64   D(8,4,5,11)            88.3358         estimate D2E/DX2                !
 ! D65   D(9,4,5,10)           160.2446         estimate D2E/DX2                !
 ! D66   D(9,4,5,11)           -25.8234         estimate D2E/DX2                !
 ! D67   D(4,5,10,1)           -25.5282         estimate D2E/DX2                !
 ! D68   D(11,5,10,1)          160.518          estimate D2E/DX2                !
 ! D69   D(1,12,13,34)         174.2621         estimate D2E/DX2                !
 ! D70   D(1,12,13,35)         -66.7097         estimate D2E/DX2                !
 ! D71   D(1,12,13,36)          54.7561         estimate D2E/DX2                !
 ! D72   D(32,12,13,34)        -61.2771         estimate D2E/DX2                !
 ! D73   D(32,12,13,35)         57.7511         estimate D2E/DX2                !
 ! D74   D(32,12,13,36)        179.2169         estimate D2E/DX2                !
 ! D75   D(33,12,13,34)         54.0666         estimate D2E/DX2                !
 ! D76   D(33,12,13,35)        173.0948         estimate D2E/DX2                !
 ! D77   D(33,12,13,36)        -65.4395         estimate D2E/DX2                !
 ! D78   D(3,15,16,17)          46.2969         estimate D2E/DX2                !
 ! D79   D(3,15,16,18)         165.2024         estimate D2E/DX2                !
 ! D80   D(3,15,16,19)         -77.1455         estimate D2E/DX2                !
 ! D81   D(15,16,17,26)        174.2746         estimate D2E/DX2                !
 ! D82   D(15,16,17,27)        -66.0682         estimate D2E/DX2                !
 ! D83   D(15,16,17,28)         54.7727         estimate D2E/DX2                !
 ! D84   D(18,16,17,26)         54.527          estimate D2E/DX2                !
 ! D85   D(18,16,17,27)        174.1842         estimate D2E/DX2                !
 ! D86   D(18,16,17,28)        -64.9749         estimate D2E/DX2                !
 ! D87   D(19,16,17,26)        -60.9577         estimate D2E/DX2                !
 ! D88   D(19,16,17,27)         58.6995         estimate D2E/DX2                !
 ! D89   D(19,16,17,28)        179.5404         estimate D2E/DX2                !
 ! D90   D(15,16,18,20)        179.2159         estimate D2E/DX2                !
 ! D91   D(15,16,18,21)        -60.7372         estimate D2E/DX2                !
 ! D92   D(15,16,18,22)         59.1434         estimate D2E/DX2                !
 ! D93   D(17,16,18,20)        -57.8245         estimate D2E/DX2                !
 ! D94   D(17,16,18,21)         62.2224         estimate D2E/DX2                !
 ! D95   D(17,16,18,22)       -177.897          estimate D2E/DX2                !
 ! D96   D(19,16,18,20)         58.8733         estimate D2E/DX2                !
 ! D97   D(19,16,18,21)        178.9202         estimate D2E/DX2                !
 ! D98   D(19,16,18,22)        -61.1992         estimate D2E/DX2                !
 ! D99   D(15,16,19,23)       -171.8231         estimate D2E/DX2                !
 ! D100  D(15,16,19,24)        -52.1445         estimate D2E/DX2                !
 ! D101  D(15,16,19,25)         68.2612         estimate D2E/DX2                !
 ! D102  D(17,16,19,23)         62.1176         estimate D2E/DX2                !
 ! D103  D(17,16,19,24)       -178.2038         estimate D2E/DX2                !
 ! D104  D(17,16,19,25)        -57.7981         estimate D2E/DX2                !
 ! D105  D(18,16,19,23)        -53.3233         estimate D2E/DX2                !
 ! D106  D(18,16,19,24)         66.3553         estimate D2E/DX2                !
 ! D107  D(18,16,19,25)       -173.239          estimate D2E/DX2                !
 ! D108  D(3,37,38,39)         128.0478         estimate D2E/DX2                !
 ! D109  D(3,37,38,42)         -53.4672         estimate D2E/DX2                !
 ! D110  D(40,37,38,39)       -112.3974         estimate D2E/DX2                !
 ! D111  D(40,37,38,42)         66.0876         estimate D2E/DX2                !
 ! D112  D(41,37,38,39)          1.171          estimate D2E/DX2                !
 ! D113  D(41,37,38,42)        179.6559         estimate D2E/DX2                !
 ! D114  D(37,38,39,43)        179.076          estimate D2E/DX2                !
 ! D115  D(37,38,39,44)         -0.3968         estimate D2E/DX2                !
 ! D116  D(42,38,39,43)          0.6277         estimate D2E/DX2                !
 ! D117  D(42,38,39,44)       -178.8451         estimate D2E/DX2                !
 --------------------------------------------------------------------------------
 Trust Radius=3.00D-01 FncErr=1.00D-07 GrdErr=1.00D-06
 Number of steps in this run=     25 maximum allowed number of steps=    264.
 GradGradGradGradGradGradGradGradGradGradGradGradGradGradGradGradGradGrad

                          Input orientation:                          
 ---------------------------------------------------------------------
 Center     Atomic      Atomic             Coordinates (Angstroms)
 Number     Number       Type             X           Y           Z
 ---------------------------------------------------------------------
      1          6           0       -0.404730   -0.036828    1.353951
      2          6           0       -1.196521    1.112773    0.713531
      3          6           0       -2.264424    1.632386    1.716597
      4          6           0       -1.502174    2.117206    2.959440
      5          6           0       -0.592829    1.077916    3.547842
      6          1           0       -1.052489   -0.915592    1.459077
      7          1           0       -0.502541    1.946175    0.555521
      8          1           0       -0.865642    2.980108    2.738098
      9          1           0       -2.211120    2.440014    3.732050
     10          8           0        0.063525    0.271406    2.688550
     11          8           0       -0.366235    1.036056    4.753076
     12          6           0        0.821765   -0.504922    0.549124
     13          6           0        1.882030    0.568561    0.337130
     14          6           0       -1.719178    0.748966   -0.680651
     15          8           0       -3.091036    2.653788    1.117351
     16         14           0       -2.771994    4.273884    0.862357
     17          6           0       -1.079670    4.598215    0.122485
     18          6           0       -4.049530    4.953088   -0.357027
     19          6           0       -2.943026    5.264365    2.451295
     20          1           0       -3.878343    6.018356   -0.536732
     21          1           0       -3.981642    4.423094   -1.311483
     22          1           0       -5.060235    4.824645    0.040949
     23          1           0       -2.874385    6.336136    2.242006
     24          1           0       -3.911216    5.068699    2.921489
     25          1           0       -2.156034    5.009167    3.165704
     26          1           0       -0.965617    5.660182   -0.115841
     27          1           0       -0.281433    4.324782    0.817739
     28          1           0       -0.944889    4.028629   -0.801703
     29          1           0       -2.441224    1.479989   -1.054789
     30          1           0       -0.894121    0.726528   -1.401243
     31          1           0       -2.183585   -0.239940   -0.701454
     32          1           0        0.511867   -0.906152   -0.421844
     33          1           0        1.296711   -1.331161    1.093770
     34          1           0        2.760411    0.133338   -0.150649
     35          1           0        1.515228    1.373535   -0.306048
     36          1           0        2.207224    1.003753    1.286950
     37          6           0       -3.293280    0.549971    2.209873
     38          6           0       -4.156836   -0.084285    1.152627
     39          6           0       -4.294731   -1.405662    0.983289
     40          1           0       -3.989131    1.040473    2.905821
     41          1           0       -2.791013   -0.232134    2.790944
     42          1           0       -4.715848    0.593957    0.509408
     43          1           0       -4.946897   -1.798525    0.208714
     44          1           0       -3.774329   -2.123265    1.609873
 ---------------------------------------------------------------------
                    Distance matrix (angstroms):
                    1          2          3          4          5
     1  C    0.000000
     2  C    1.535791   0.000000
     3  C    2.525124   1.554528   0.000000
     4  C    2.902041   2.479197   1.536468   0.000000
     5  C    2.468034   2.898099   2.540694   1.501083   0.000000
     6  H    1.096754   2.165837   2.833248   3.413381   2.923748
     7  H    2.139944   1.095963   2.133259   2.609089   3.117052
     8  H    3.351150   2.774039   2.194632   1.094881   2.085293
     9  H    3.879838   3.449991   2.171901   1.097149   2.123231
    10  O    1.447558   2.489240   2.866410   2.435523   1.348941
    11  O    3.564634   4.124704   3.630280   2.382514   1.227064
    12  C    1.539853   2.591803   3.931366   4.252749   3.674066
    13  C    2.574819   3.148860   4.497525   4.552763   4.085712
    14  C    2.546537   1.532733   2.612379   3.894796   4.388282
    15  O    3.809414   2.475275   1.444176   2.491123   3.825140
    16  Si   4.942453   3.535094   2.822209   3.265189   4.709013
    17  C    4.843106   3.537131   3.569450   3.792391   4.935847
    18  C    6.411807   4.902425   4.302741   5.052742   6.497210
    19  C    5.979110   4.827610   3.767168   3.498410   4.924652
    20  H    7.232283   5.728880   5.188348   5.752249   7.203214
    21  H    6.307911   4.776589   4.461632   5.450290   6.803478
    22  H    6.857960   5.399875   4.562332   5.339252   6.803969
    23  H    6.892206   5.695172   4.772145   4.494112   5.878740
    24  H    6.388977   5.281477   3.996490   3.810018   5.227845
    25  H    5.640176   4.702734   3.676181   2.972123   4.247867
    26  H    5.910229   4.628186   4.611710   4.722068   5.878665
    27  H    4.396176   3.341444   3.462542   3.309151   4.253536
    28  H    4.633202   3.295674   3.718197   4.255620   5.267750
    29  H    3.500010   2.193419   2.781198   4.171558   4.976187
    30  H    2.900571   2.170921   3.524094   4.617279   4.970683
    31  H    2.725852   2.192330   3.059266   4.407108   4.724803
    32  H    2.179294   2.878146   4.327227   4.962876   4.573323
    33  H    2.153577   3.511923   4.674634   4.817231   3.923835
    34  H    3.508689   4.166943   5.566212   5.637199   5.080874
    35  H    2.903611   2.908801   4.294632   4.507901   4.402700
    36  H    2.812401   3.453429   4.536013   4.218606   3.599643
    37  C    3.069309   2.636699   1.572733   2.495223   3.059628
    38  C    3.757803   3.223231   2.616533   3.893375   4.448585
    39  C    4.140435   4.001773   3.726878   4.910616   5.142876
    40  H    4.051766   3.551061   2.176977   2.710569   3.456654
    41  H    2.792390   2.943947   2.215390   2.684939   2.668546
    42  H    4.438117   3.563215   2.923204   4.318639   5.144471
    43  H    5.004640   4.774496   4.608744   5.896233   6.195288
    44  H    3.971513   4.233257   4.049212   4.996560   4.911744
                    6          7          8          9         10
     6  H    0.000000
     7  H    3.050994   0.000000
     8  H    4.104544   2.442233   0.000000
     9  H    4.215320   3.640530   1.757826   0.000000
    10  O    2.041092   2.770396   2.864066   3.311459   0.000000
    11  O    3.889769   4.297251   2.844096   2.533218   2.243134
    12  C    2.123557   2.785983   4.447964   5.291697   2.398907
    13  C    3.474605   2.762552   4.373775   5.637526   2.987380
    14  C    2.791713   2.107519   4.170655   4.751166   3.841563
    15  O    4.124673   2.741656   2.772307   2.767057   4.253900
    16  Si   5.499403   3.265393   2.970932   3.451492   5.234021
    17  C    5.673560   2.748439   3.083101   4.355109   5.158765
    18  C    6.835342   4.738713   4.858970   5.139635   6.936203
    19  C    6.538386   4.534348   3.100905   3.186374   5.833119
    20  H    7.749086   5.401085   5.388119   5.814350   7.679076
    21  H    6.690105   4.661006   5.309498   5.701279   7.042738
    22  H    7.143069   5.415067   5.317099   5.237189   7.348108
    23  H    7.517968   5.267033   3.942598   4.223733   6.753641
    24  H    6.791370   5.192979   3.697481   3.233778   6.234328
    25  H    6.263638   4.350749   2.442343   2.631412   5.253618
    26  H    6.762301   3.802501   3.916345   5.169819   6.161384
    27  H    5.335481   2.403210   2.416035   3.971052   4.477587
    28  H    5.437649   2.524746   3.692678   4.968094   5.226422
    29  H    3.739908   2.562990   4.372506   4.887578   4.663371
    30  H    3.301980   2.338760   4.713128   5.569669   4.225000
    31  H    2.530569   3.030675   4.892464   5.180624   4.099159
    32  H    2.446459   3.181200   5.194784   5.988850   3.355921
    33  H    2.413480   3.777294   5.095746   5.786809   2.575324
    34  H    4.269623   3.798935   5.440333   6.716564   3.918330
    35  H    3.866386   2.267512   4.185265   5.597257   3.505674
    36  H    3.786719   2.960739   3.931198   5.250059   2.663881
    37  C    2.780776   3.531924   3.475344   2.657133   3.402186
    38  C    3.228305   4.222934   4.768247   4.100161   4.505222
    39  C    3.313409   5.079223   5.837207   5.165883   4.971405
    40  H    3.813545   4.301223   3.680557   2.408878   4.130701
    41  H    2.294221   3.870304   3.745443   2.891770   2.900418
    42  H    4.074409   4.425220   5.048253   4.479622   5.262614
    43  H    4.184423   5.821972   6.774198   6.153339   5.961420
    44  H    2.981548   5.326969   5.981452   5.269798   4.650496
                   11         12         13         14         15
    11  O    0.000000
    12  C    4.632404   0.000000
    13  C    4.977331   1.523637   0.000000
    14  C    5.606984   3.088847   3.746615   0.000000
    15  O    4.822872   5.060666   5.448697   2.956882   0.000000
    16  Si   5.604364   5.987504   5.972037   3.989278   1.670784
    17  C    5.885604   5.462553   5.005582   3.983807   2.969200
    18  C    7.417746   7.371601   7.408734   4.817667   2.894699
    19  C    5.460462   7.146788   7.057013   5.629895   2.935375
    20  H    8.070953   8.113153   7.977832   5.696418   3.830948
    21  H    7.830841   7.128809   7.208190   4.360723   3.134144
    22  H    7.654488   7.953644   8.148437   5.319260   3.122340
    23  H    6.378647   7.957855   7.714723   6.410374   3.856355
    24  H    5.673078   7.687293   7.777651   6.036600   3.124005
    25  H    4.637752   6.791094   6.635192   5.756266   3.258495
    26  H    6.741525   6.453326   5.851400   5.000691   3.882856
    27  H    5.129307   4.961375   4.361279   4.135063   3.282660
    28  H    6.336079   5.049642   4.610909   3.371997   3.190439
    29  H    6.183361   4.142403   4.632350   1.093492   2.553087
    30  H    6.184668   2.874833   3.279315   1.095662   3.857989
    31  H    5.889213   3.265929   4.273354   1.092722   3.536266
    32  H    5.596698   1.095354   2.151317   2.789975   5.293695
    33  H    4.664721   1.097672   2.126981   4.070760   5.927284
    34  H    5.885349   2.157639   1.094943   4.552650   6.496147
    35  H    5.408191   2.177340   1.093711   3.315388   4.988264
    36  H    4.317148   2.177150   1.094213   4.399205   5.551841
    37  C    3.907909   4.561193   5.503757   3.297351   2.379192
    38  C    5.346686   5.032655   6.128552   3.161865   2.938404
    39  C    5.967107   5.213287   6.516706   3.747611   4.236271
    40  H    4.066663   5.575571   6.425839   4.254462   2.570600
    41  H    3.367167   4.260556   5.338506   3.763424   3.349548
    42  H    6.092890   5.645730   6.600176   3.228049   2.693049
    43  H    7.047591   5.921718   7.228681   4.207000   4.908455
    44  H    5.610360   4.986813   6.392198   4.209496   4.850742
                   16         17         18         19         20
    16  Si   0.000000
    17  C    1.875250   0.000000
    18  C    1.892172   3.029181   0.000000
    19  C    1.880167   3.056012   3.034455   0.000000
    20  H    2.494923   3.206858   1.093798   3.220501   0.000000
    21  H    2.492206   3.241662   1.093841   3.993114   1.776449
    22  H    2.492809   3.987834   1.093804   3.238162   1.776381
    23  H    2.483304   3.276239   3.169978   1.094169   2.971582
    24  H    2.483864   4.009168   3.283468   1.093965   3.586394
    25  H    2.495086   3.254016   3.999763   1.093098   4.206286
    26  H    2.478244   1.094341   3.173117   3.264507   2.964694
    27  H    2.491481   1.093310   3.996673   3.261196   4.200065
    28  H    2.483457   1.093946   3.269733   4.012679   3.554487
    29  H    3.404513   3.600436   3.890493   5.183236   4.788577
    30  H    4.608039   4.164869   5.376877   6.295397   6.136481
    31  H    4.813142   5.030432   5.528826   6.388580   6.485800
    32  H    6.266234   5.755636   7.425715   7.633249   8.199753
    33  H    6.929967   6.461275   8.377284   7.957337   9.135377
    34  H    6.984111   5.895418   8.345530   8.101034   8.880065
    35  H    5.306361   4.161213   6.616822   6.528210   7.121670
    36  H    5.972156   5.007974   7.579372   6.784806   8.093589
    37  C    3.994379   5.064142   5.152507   4.733548   6.147306
    38  C    4.582104   5.697012   5.259819   5.636305   6.338274
    39  C    5.881377   6.864702   6.503097   6.962141   7.589459
    40  H    4.013990   5.373030   5.094937   4.375179   6.053327
    41  H    4.901429   5.777685   6.195169   5.509081   7.164101
    42  H    4.176722   5.422691   4.494075   5.359714   5.587480
    43  H    6.483178   7.475370   6.834443   7.676528   7.924716
    44  H    6.518203   7.392686   7.349776   7.481720   8.420494
                   21         22         23         24         25
    21  H    0.000000
    22  H    1.775860   0.000000
    23  H    4.184857   3.450681   0.000000
    24  H    4.282501   3.110839   1.772882   0.000000
    25  H    4.870475   4.269956   1.769207   1.773090   0.000000
    26  H    3.472226   4.181938   3.108014   4.272210   3.550979
    27  H    4.270222   4.867259   3.577357   4.260810   3.081469
    28  H    3.104408   4.275486   4.279218   4.872679   4.262469
    29  H    3.331763   4.387093   5.885461   5.554323   5.508992
    30  H    4.817203   6.019218   6.975845   6.829592   6.386738
    31  H    5.034782   5.871652   7.237813   6.655229   6.519877
    32  H    7.027371   8.006531   8.426953   8.151097   7.414796
    33  H    8.170539   8.911405   8.803632   8.451110   7.510933
    34  H    8.074950   9.121819   8.714954   8.849092   7.677456
    35  H    6.366026   7.434197   7.098499   7.315567   6.224873
    36  H    7.532981   8.304679   7.427597   7.525345   6.213781
    37  C    5.279666   5.108738   5.801397   4.615966   4.700146
    38  C    5.139941   5.113663   6.637261   5.453664   5.830861
    39  C    6.272033   6.347498   7.971022   6.769125   7.105420
    40  H    5.406277   4.865667   5.452280   4.029010   4.379305
    41  H    6.318121   6.187314   6.591696   5.419477   5.292908
    42  H    4.303138   4.270454   6.274193   5.146735   5.753489
    43  H    6.476979   6.626264   8.637262   7.455907   7.929526
    44  H    7.171619   7.237992   8.530589   7.311868   7.477371
                   26         27         28         29         30
    26  H    0.000000
    27  H    1.767193   0.000000
    28  H    1.769972   1.774957   0.000000
    29  H    4.531341   4.032853   2.966250   0.000000
    30  H    5.098854   4.271616   3.356471   1.755352   0.000000
    31  H    6.052919   5.173279   4.445796   1.774649   1.756839
    32  H    6.737458   5.434019   5.159311   3.849030   2.366784
    33  H    7.447158   5.878471   6.111050   5.146944   3.906267
    34  H    6.665621   5.268661   5.415387   5.448664   3.907872
    35  H    4.956421   3.633283   3.653406   4.028084   2.724524
    36  H    5.806640   4.176459   4.842330   5.226721   4.113584
    37  C    6.077929   5.025779   5.165810   3.499850   4.339043
    38  C    6.692667   5.879691   5.572439   3.203586   4.221964
    39  C    7.887790   6.997997   6.628662   3.989515   4.668659
    40  H    6.293949   5.375295   5.651745   4.275000   5.313045
    41  H    6.819154   5.563903   5.871064   4.224142   4.700177
    42  H    6.334178   5.803289   5.266509   2.899255   4.274782
    43  H    8.460983   7.722199   7.140920   4.315494   5.039132
    44  H    8.452751   7.375982   7.187992   4.675578   5.048142
                   31         32         33         34         35
    31  H    0.000000
    32  H    2.790606   0.000000
    33  H    4.065225   1.758891   0.000000
    34  H    4.988569   2.491994   2.415730   0.000000
    35  H    4.054734   2.493414   3.053297   1.764290   0.000000
    36  H    4.977924   3.072776   2.513598   1.769274   1.775736
    37  C    3.214220   4.850296   5.084522   6.510977   5.489068
    38  C    2.712114   4.995119   5.594581   7.042315   6.035336
    39  C    2.941803   5.032623   5.593030   7.309539   6.568253
    40  H    4.232244   5.926355   6.070280   7.464665   6.381614
    41  H    3.544838   4.656750   4.560455   6.293238   5.541953
    42  H    2.928127   5.517840   6.340223   7.519461   6.332379
    43  H    3.300528   5.567049   6.323321   7.953856   7.217063
    44  H    3.379292   4.897011   5.158414   7.134040   6.624030
                   36         37         38         39         40
    36  H    0.000000
    37  C    5.595824   0.000000
    38  C    6.457796   1.505250   0.000000
    39  C    6.940671   2.516329   1.339301   0.000000
    40  H    6.404444   1.099611   2.089712   3.126195   0.000000
    41  H    5.363934   1.096177   2.138087   2.627918   1.751631
    42  H    6.978641   2.217480   1.089145   2.097708   2.543676
    43  H    7.758660   3.500646   2.110400   1.086107   4.031329
    44  H    6.757329   2.781654   2.124341   1.085532   3.425618
                   41         42         43         44
    41  H    0.000000
    42  H    3.097228   0.000000
    43  H    3.710705   2.422348   0.000000
    44  H    2.436845   3.079087   1.855699   0.000000
 Stoichiometry    C14H26O3Si
 Framework group  C1[X(C14H26O3Si)]
 Deg. of freedom   126
 Full point group                 C1      NOp   1
 Largest Abelian subgroup         C1      NOp   1
 Largest concise Abelian subgroup C1      NOp   1
                         Standard orientation:                         
 ---------------------------------------------------------------------
 Center     Atomic      Atomic             Coordinates (Angstroms)
 Number     Number       Type             X           Y           Z
 ---------------------------------------------------------------------
      1          6           0       -2.248584   -0.134373   -0.396613
      2          6           0       -0.772921   -0.006175   -0.802368
      3          6           0        0.064987    0.462687    0.420184
      4          6           0       -0.112977   -0.604320    1.511311
      5          6           0       -1.548937   -0.882401    1.848859
      6          1           0       -2.667434    0.862536   -0.213291
      7          1           0       -0.408124   -1.009752   -1.049130
      8          1           0        0.316130   -1.567237    1.215637
      9          1           0        0.408344   -0.295939    2.426112
     10          8           0       -2.436478   -0.874666    0.833057
     11          8           0       -1.886030   -1.215411    2.980742
     12          6           0       -3.155795   -0.790298   -1.453911
     13          6           0       -2.770970   -2.220099   -1.813141
     14          6           0       -0.594413    0.817520   -2.082576
     15          8           0        1.444620    0.683128    0.054581
     16         14           0        2.680432   -0.418797   -0.169137
     17          6           0        2.187891   -1.897516   -1.211900
     18          6           0        4.101163    0.446705   -1.070659
     19          6           0        3.359215   -1.030206    1.474172
     20          1           0        4.935625   -0.244096   -1.221860
     21          1           0        3.766157    0.807963   -2.047261
     22          1           0        4.456913    1.300801   -0.487247
     23          1           0        4.256896   -1.635161    1.314784
     24          1           0        3.625324   -0.185283    2.116084
     25          1           0        2.626882   -1.646130    2.002554
     26          1           0        3.058195   -2.530916   -1.409274
     27          1           0        1.437315   -2.510316   -0.705501
     28          1           0        1.780241   -1.574751   -2.174376
     29          1           0        0.452330    1.076122   -2.264723
     30          1           0       -0.931359    0.243717   -2.953031
     31          1           0       -1.181803    1.738772   -2.065018
     32          1           0       -3.183900   -0.182023   -2.364412
     33          1           0       -4.180422   -0.815893   -1.061012
     34          1           0       -3.518322   -2.648323   -2.489150
     35          1           0       -1.805294   -2.259285   -2.325136
     36          1           0       -2.719011   -2.856437   -0.924504
     37          6           0       -0.386659    1.832169    1.047896
     38          6           0       -0.310157    3.038084    0.150290
     39          6           0       -1.323907    3.887490   -0.060767
     40          1           0        0.280609    2.050031    1.894320
     41          1           0       -1.393921    1.755053    1.473430
     42          1           0        0.648718    3.226900   -0.330487
     43          1           0       -1.197347    4.748533   -0.710549
     44          1           0       -2.293298    3.754265    0.409246
 ---------------------------------------------------------------------
 Rotational constants (GHZ):      0.4454802      0.2812726      0.2605890
 Standard basis: 6-31G(d,p) (6D, 7F)
 There are   404 symmetry adapted cartesian basis functions of A   symmetry.
 There are   404 symmetry adapted basis functions of A   symmetry.
   404 basis functions,   710 primitive gaussians,   404 cartesian basis functions
    74 alpha electrons       74 beta electrons
       nuclear repulsion energy      1639.4869412211 Hartrees.
 NAtoms=   44 NActive=   44 NUniq=   44 SFac= 1.00D+00 NAtFMM=   60 NAOKFM=F Big=F
 Integral buffers will be    131072 words long.
 Raffenetti 2 integral format.
 Two-electron integral symmetry is turned on.
 ------------------------------------------------------------------------------
 Polarizable Continuum Model (PCM)
 =================================
 Model                : PCM (using non-symmetric T matrix).
 Atomic radii         : UFF (Universal Force Field).
 Polarization charges : Total charges.
 Charge compensation  : None.
 Solution method      : On-the-fly selection.
 Cavity type          : Scaled VdW (van der Waals Surface) (Alpha=1.100).
 Cavity algorithm     : GePol (No added spheres)
                        Default sphere list used, NSphG=   44.
                        Lebedev-Laikov grids with approx.  5.0 points / Ang**2.
                        Smoothing algorithm: Karplus/York (Gamma=1.0000).
                        Polarization charges: spherical gaussians, with
                                              point-specific exponents (IZeta= 3).
                        Self-potential: point-specific (ISelfS= 7).
                        Self-field    : sphere-specific E.n sum rule (ISelfD= 2).
 1st derivatives      : Analytical E(r).r(x)/FMM algorithm (CHGder, D1EAlg=3).
                        Cavity 1st derivative terms included.
 Solvent              : Chloroform, Eps=   4.711300 Eps(inf)=   2.090627
 ------------------------------------------------------------------------------
 One-electron integrals computed using PRISM.
 NBasis=   404 RedAO= T EigKep=  2.00D-03  NBF=   404
 NBsUse=   404 1.00D-06 EigRej= -1.00D+00 NBFU=   404
 ExpMin= 7.78D-02 ExpMax= 1.61D+04 ExpMxC= 2.43D+03 IAcc=2 IRadAn=         4 AccDes= 0.00D+00
 Harris functional with IExCor=  402 and IRadAn=       4 diagonalized for initial guess.
 HarFok:  IExCor=  402 AccDes= 0.00D+00 IRadAn=         4 IDoV= 1 UseB2=F ITyADJ=14
 ICtDFT=  3500011 ScaDFX=  1.000000  1.000000  1.000000  1.000000
 FoFCou: FMM=F IPFlag=           0 FMFlag=      100000 FMFlg1=           0
         NFxFlg=           0 DoJE=T BraDBF=F KetDBF=T FulRan=T
         wScrn=  0.000000 ICntrl=     500 IOpCl=  0 I1Cent=   200000004 NGrid=           0
         NMat0=    1 NMatS0=      1 NMatT0=    0 NMatD0=    1 NMtDS0=    0 NMtDT0=    0
 Petite list used in FoFCou.
 Requested convergence on RMS density matrix=1.00D-08 within 128 cycles.
 Requested convergence on MAX density matrix=1.00D-06.
 Requested convergence on             energy=1.00D-06.
 No special actions if energy rises.
 Inv3:  Mode=1 IEnd=    24196800.
 Iteration    1 A*A^-1 deviation from unit magnitude is 4.77D-15 for   2834.
 Iteration    1 A*A^-1 deviation from orthogonality  is 2.57D-15 for   2340    410.
 Iteration    1 A^-1*A deviation from unit magnitude is 5.11D-15 for   2813.
 Iteration    1 A^-1*A deviation from orthogonality  is 3.70D-13 for   2793   2787.
 Error on total polarization charges =  0.00910
 SCF Done:  E(RB3LYP) =  -1064.41526346     A.U. after   13 cycles
            NFock= 13  Conv=0.56D-08     -V/T= 2.0080

 **********************************************************************

            Population analysis using the SCF density.

 **********************************************************************

 Orbital symmetries:
       Occupied  (A) (A) (A) (A) (A) (A) (A) (A) (A) (A) (A) (A)
                 (A) (A) (A) (A) (A) (A) (A) (A) (A) (A) (A) (A)
                 (A) (A) (A) (A) (A) (A) (A) (A) (A) (A) (A) (A)
                 (A) (A) (A) (A) (A) (A) (A) (A) (A) (A) (A) (A)
                 (A) (A) (A) (A) (A) (A) (A) (A) (A) (A) (A) (A)
                 (A) (A) (A) (A) (A) (A) (A) (A) (A) (A) (A) (A)
                 (A) (A)
       Virtual   (A) (A) (A) (A) (A) (A) (A) (A) (A) (A) (A) (A)
                 (A) (A) (A) (A) (A) (A) (A) (A) (A) (A) (A) (A)
                 (A) (A) (A) (A) (A) (A) (A) (A) (A) (A) (A) (A)
                 (A) (A) (A) (A) (A) (A) (A) (A) (A) (A) (A) (A)
                 (A) (A) (A) (A) (A) (A) (A) (A) (A) (A) (A) (A)
                 (A) (A) (A) (A) (A) (A) (A) (A) (A) (A) (A) (A)
                 (A) (A) (A) (A) (A) (A) (A) (A) (A) (A) (A) (A)
                 (A) (A) (A) (A) (A) (A) (A) (A) (A) (A) (A) (A)
                 (A) (A) (A) (A) (A) (A) (A) (A) (A) (A) (A) (A)
                 (A) (A) (A) (A) (A) (A) (A) (A) (A) (A) (A) (A)
                 (A) (A) (A) (A) (A) (A) (A) (A) (A) (A) (A) (A)
                 (A) (A) (A) (A) (A) (A) (A) (A) (A) (A) (A) (A)
                 (A) (A) (A) (A) (A) (A) (A) (A) (A) (A) (A) (A)
                 (A) (A) (A) (A) (A) (A) (A) (A) (A) (A) (A) (A)
                 (A) (A) (A) (A) (A) (A) (A) (A) (A) (A) (A) (A)
                 (A) (A) (A) (A) (A) (A) (A) (A) (A) (A) (A) (A)
                 (A) (A) (A) (A) (A) (A) (A) (A) (A) (A) (A) (A)
                 (A) (A) (A) (A) (A) (A) (A) (A) (A) (A) (A) (A)
                 (A) (A) (A) (A) (A) (A) (A) (A) (A) (A) (A) (A)
                 (A) (A) (A) (A) (A) (A) (A) (A) (A) (A) (A) (A)
                 (A) (A) (A) (A) (A) (A) (A) (A) (A) (A) (A) (A)
                 (A) (A) (A) (A) (A) (A) (A) (A) (A) (A) (A) (A)
                 (A) (A) (A) (A) (A) (A) (A) (A) (A) (A) (A) (A)
                 (A) (A) (A) (A) (A) (A) (A) (A) (A) (A) (A) (A)
                 (A) (A) (A) (A) (A) (A) (A) (A) (A) (A) (A) (A)
                 (A) (A) (A) (A) (A) (A) (A) (A) (A) (A) (A) (A)
                 (A) (A) (A) (A) (A) (A) (A) (A) (A) (A) (A) (A)
                 (A) (A) (A) (A) (A) (A)
 The electronic state is 1-A.
 Alpha  occ. eigenvalues --  -66.14025 -19.19405 -19.14537 -19.13620 -10.32461
 Alpha  occ. eigenvalues --  -10.26733 -10.25638 -10.20302 -10.20193 -10.19370
 Alpha  occ. eigenvalues --  -10.19103 -10.19040 -10.17861 -10.17770 -10.17618
 Alpha  occ. eigenvalues --  -10.16089 -10.15816 -10.15682  -5.28190  -3.64250
 Alpha  occ. eigenvalues --   -3.64013  -3.63977  -1.09968  -1.01538  -1.00815
 Alpha  occ. eigenvalues --   -0.83135  -0.80462  -0.77854  -0.75160  -0.71536
 Alpha  occ. eigenvalues --   -0.70329  -0.69223  -0.67834  -0.67413  -0.64536
 Alpha  occ. eigenvalues --   -0.60755  -0.60145  -0.56311  -0.54113  -0.51196
 Alpha  occ. eigenvalues --   -0.50905  -0.48678  -0.47134  -0.46140  -0.45341
 Alpha  occ. eigenvalues --   -0.44515  -0.43503  -0.42621  -0.42367  -0.41682
 Alpha  occ. eigenvalues --   -0.41094  -0.40890  -0.40190  -0.39857  -0.39226
 Alpha  occ. eigenvalues --   -0.39151  -0.38973  -0.38526  -0.37926  -0.37154
 Alpha  occ. eigenvalues --   -0.36258  -0.36028  -0.35609  -0.34963  -0.34790
 Alpha  occ. eigenvalues --   -0.33867  -0.32700  -0.31333  -0.30824  -0.29500
 Alpha  occ. eigenvalues --   -0.28605  -0.27406  -0.26525  -0.25115
 Alpha virt. eigenvalues --   -0.00402   0.01444   0.06229   0.06754   0.08541
 Alpha virt. eigenvalues --    0.09021   0.09608   0.10926   0.11495   0.11637
 Alpha virt. eigenvalues --    0.12489   0.13174   0.13289   0.13891   0.14119
 Alpha virt. eigenvalues --    0.14738   0.15792   0.16273   0.16895   0.16942
 Alpha virt. eigenvalues --    0.17171   0.17668   0.18330   0.18503   0.18595
 Alpha virt. eigenvalues --    0.19070   0.19685   0.20074   0.20304   0.20519
 Alpha virt. eigenvalues --    0.21296   0.21575   0.22028   0.23075   0.23866
 Alpha virt. eigenvalues --    0.24383   0.24912   0.26142   0.26734   0.28464
 Alpha virt. eigenvalues --    0.29901   0.30579   0.31874   0.35294   0.36782
 Alpha virt. eigenvalues --    0.37372   0.38375   0.39295   0.40640   0.44160
 Alpha virt. eigenvalues --    0.45698   0.47115   0.48178   0.49341   0.51095
 Alpha virt. eigenvalues --    0.51498   0.52226   0.53510   0.54749   0.55444
 Alpha virt. eigenvalues --    0.57430   0.58448   0.59399   0.60400   0.60758
 Alpha virt. eigenvalues --    0.61694   0.62733   0.63192   0.63757   0.65304
 Alpha virt. eigenvalues --    0.66199   0.66703   0.67189   0.67407   0.69071
 Alpha virt. eigenvalues --    0.69808   0.70804   0.71466   0.72508   0.73193
 Alpha virt. eigenvalues --    0.74222   0.74992   0.76007   0.77468   0.77691
 Alpha virt. eigenvalues --    0.78897   0.80011   0.80846   0.82104   0.82767
 Alpha virt. eigenvalues --    0.84200   0.84583   0.85464   0.85773   0.86168
 Alpha virt. eigenvalues --    0.86606   0.87468   0.87788   0.88261   0.88938
 Alpha virt. eigenvalues --    0.89644   0.89992   0.90229   0.90708   0.90965
 Alpha virt. eigenvalues --    0.91731   0.92217   0.92458   0.92906   0.93582
 Alpha virt. eigenvalues --    0.94118   0.94743   0.96131   0.96583   0.97587
 Alpha virt. eigenvalues --    0.97985   0.99119   1.00677   1.01007   1.01986
 Alpha virt. eigenvalues --    1.03262   1.03925   1.05063   1.05759   1.09888
 Alpha virt. eigenvalues --    1.10703   1.11926   1.13864   1.14926   1.15780
 Alpha virt. eigenvalues --    1.17324   1.20816   1.21272   1.22646   1.25207
 Alpha virt. eigenvalues --    1.28828   1.30319   1.30860   1.31628   1.32936
 Alpha virt. eigenvalues --    1.35847   1.37314   1.41267   1.42223   1.42678
 Alpha virt. eigenvalues --    1.44183   1.45078   1.46593   1.47141   1.48732
 Alpha virt. eigenvalues --    1.49297   1.49953   1.51852   1.53802   1.56536
 Alpha virt. eigenvalues --    1.57832   1.61047   1.61884   1.63447   1.64272
 Alpha virt. eigenvalues --    1.65806   1.67800   1.69972   1.71477   1.72143
 Alpha virt. eigenvalues --    1.73235   1.76740   1.77215   1.78246   1.79840
 Alpha virt. eigenvalues --    1.80485   1.81956   1.84160   1.84466   1.85552
 Alpha virt. eigenvalues --    1.86536   1.87678   1.88734   1.89608   1.90763
 Alpha virt. eigenvalues --    1.92971   1.93533   1.95591   1.96011   1.96527
 Alpha virt. eigenvalues --    1.97555   1.98031   1.99570   2.01297   2.02668
 Alpha virt. eigenvalues --    2.03914   2.04376   2.04814   2.04857   2.06191
 Alpha virt. eigenvalues --    2.06325   2.06676   2.07832   2.08603   2.08743
 Alpha virt. eigenvalues --    2.09887   2.10513   2.11081   2.11540   2.12107
 Alpha virt. eigenvalues --    2.12573   2.13077   2.13398   2.13939   2.14933
 Alpha virt. eigenvalues --    2.15383   2.16232   2.16620   2.17403   2.18229
 Alpha virt. eigenvalues --    2.19787   2.21279   2.23187   2.23981   2.26110
 Alpha virt. eigenvalues --    2.27548   2.29522   2.30260   2.31877   2.32955
 Alpha virt. eigenvalues --    2.33561   2.34418   2.35280   2.36492   2.37265
 Alpha virt. eigenvalues --    2.37806   2.38225   2.39366   2.40222   2.41830
 Alpha virt. eigenvalues --    2.42895   2.43714   2.47694   2.48430   2.51346
 Alpha virt. eigenvalues --    2.52240   2.52705   2.54660   2.57190   2.59041
 Alpha virt. eigenvalues --    2.60526   2.61647   2.62544   2.63290   2.63798
 Alpha virt. eigenvalues --    2.65102   2.66144   2.67439   2.68275   2.68793
 Alpha virt. eigenvalues --    2.70666   2.71439   2.72799   2.73624   2.75550
 Alpha virt. eigenvalues --    2.76719   2.77690   2.79061   2.80376   2.81022
 Alpha virt. eigenvalues --    2.81547   2.81946   2.84826   2.84964   2.85602
 Alpha virt. eigenvalues --    2.86156   2.86851   2.87124   2.88039   2.89241
 Alpha virt. eigenvalues --    2.90658   2.91641   2.92447   2.94171   2.96419
 Alpha virt. eigenvalues --    2.97319   2.98863   3.02600   3.06110   3.11194
 Alpha virt. eigenvalues --    3.16727   3.18250   3.20517   3.20918   3.21103
 Alpha virt. eigenvalues --    3.21921   3.23475   3.25709   3.31085   3.31751
 Alpha virt. eigenvalues --    3.34896   3.37286   3.40462   3.43331   3.43595
 Alpha virt. eigenvalues --    3.44278   3.44773   3.45036   3.45605   3.45781
 Alpha virt. eigenvalues --    3.46525   3.46688   3.47612   3.49696   3.50808
 Alpha virt. eigenvalues --    3.55578   3.56413   3.66948   4.02967   4.13713
 Alpha virt. eigenvalues --    4.21048   4.25335   4.31353   4.38591   4.45281
 Alpha virt. eigenvalues --    4.45450   4.48836   4.52610   4.55095   4.58965
 Alpha virt. eigenvalues --    4.64634   4.66096   4.76442   4.79247   4.79878
          Condensed to atoms (all electrons):
               1          2          3          4          5          6
     1  C    4.813718   0.323076  -0.026647  -0.012010  -0.005447   0.384029
     2  C    0.323076   5.091474   0.333856  -0.049444  -0.018128  -0.046528
     3  C   -0.026647   0.333856   4.842812   0.289855  -0.014964  -0.014031
     4  C   -0.012010  -0.049444   0.289855   5.329542   0.287254   0.001462
     5  C   -0.005447  -0.018128  -0.014964   0.287254   4.369239  -0.001981
     6  H    0.384029  -0.046528  -0.014031   0.001462  -0.001981   0.631540
     7  H   -0.039346   0.378218  -0.044882  -0.007617   0.000326   0.006415
     8  H    0.000265  -0.006563  -0.025213   0.361322  -0.024605   0.000007
     9  H    0.000126   0.005733  -0.031107   0.361654  -0.022271   0.000065
    10  O    0.164418  -0.029702   0.001981  -0.096211   0.254949  -0.039814
    11  O    0.001745  -0.000071   0.001907  -0.083184   0.575305   0.000100
    12  C    0.373215  -0.036859   0.005175  -0.000533   0.001196  -0.048601
    13  C   -0.039895  -0.009203  -0.000079  -0.000098   0.000288   0.005484
    14  C   -0.032504   0.345586  -0.030052   0.005159   0.000452  -0.004089
    15  O    0.002405  -0.041974   0.183848  -0.023539   0.001546  -0.000027
    16  Si   0.000490  -0.005510  -0.011036   0.002839  -0.000588  -0.000066
    17  C    0.000030  -0.000967  -0.000872  -0.002523  -0.000028  -0.000001
    18  C    0.000000  -0.000099   0.000952  -0.000042   0.000000   0.000000
    19  C    0.000000  -0.000088  -0.001660  -0.000477   0.000087   0.000000
    20  H    0.000000   0.000001  -0.000011   0.000001   0.000000   0.000000
    21  H    0.000000  -0.000010  -0.000050   0.000003   0.000000   0.000000
    22  H    0.000000   0.000002  -0.000037  -0.000003   0.000000   0.000000
    23  H    0.000000   0.000001   0.000034   0.000029  -0.000001   0.000000
    24  H    0.000000   0.000001   0.000021  -0.000128  -0.000002   0.000000
    25  H    0.000000  -0.000016  -0.000128   0.000089   0.000001   0.000000
    26  H   -0.000001   0.000114  -0.000005   0.000042   0.000001   0.000000
    27  H   -0.000014  -0.001381   0.000364  -0.001068  -0.000028  -0.000001
    28  H    0.000008  -0.000826  -0.000408   0.000126   0.000005   0.000000
    29  H    0.003709  -0.025913  -0.008691   0.000204  -0.000017  -0.000080
    30  H   -0.004588  -0.026704   0.003930  -0.000128  -0.000015  -0.000035
    31  H   -0.005741  -0.034508  -0.004175   0.000037  -0.000015   0.005660
    32  H   -0.027198  -0.006147  -0.000030   0.000027  -0.000044  -0.000324
    33  H   -0.029516   0.005245  -0.000072   0.000010   0.000013  -0.005642
    34  H    0.004484   0.000191  -0.000003   0.000001  -0.000007  -0.000144
    35  H   -0.005388   0.002187   0.000013  -0.000010   0.000017  -0.000068
    36  H   -0.007534  -0.000793  -0.000097   0.000149   0.000228   0.000278
    37  C   -0.000358  -0.059467   0.350740  -0.067707   0.001377   0.005227
    38  C   -0.001911  -0.003464  -0.032180   0.004839  -0.000011   0.000766
    39  C   -0.000740   0.001496  -0.000235  -0.000037  -0.000028   0.001951
    40  H   -0.000118   0.005588  -0.029147  -0.006973  -0.000622   0.000077
    41  H    0.001855  -0.004494  -0.028167  -0.004662   0.005917  -0.000798
    42  H    0.000024  -0.000689  -0.004437   0.000130  -0.000001   0.000009
    43  H    0.000013  -0.000034  -0.000083   0.000002   0.000000  -0.000020
    44  H   -0.000149  -0.000043   0.000109  -0.000007  -0.000006   0.000917
               7          8          9         10         11         12
     1  C   -0.039346   0.000265   0.000126   0.164418   0.001745   0.373215
     2  C    0.378218  -0.006563   0.005733  -0.029702  -0.000071  -0.036859
     3  C   -0.044882  -0.025213  -0.031107   0.001981   0.001907   0.005175
     4  C   -0.007617   0.361322   0.361654  -0.096211  -0.083184  -0.000533
     5  C    0.000326  -0.024605  -0.022271   0.254949   0.575305   0.001196
     6  H    0.006415   0.000007   0.000065  -0.039814   0.000100  -0.048601
     7  H    0.644796   0.003613   0.000151  -0.000569  -0.000024  -0.011494
     8  H    0.003613   0.555442  -0.026942   0.000704  -0.000452  -0.000046
     9  H    0.000151  -0.026942   0.564137   0.003091   0.001483   0.000007
    10  O   -0.000569   0.000704   0.003091   8.333257  -0.074687  -0.045722
    11  O   -0.000024  -0.000452   0.001483  -0.074687   8.079909  -0.000080
    12  C   -0.011494  -0.000046   0.000007  -0.045722  -0.000080   4.947517
    13  C    0.005903   0.000046   0.000001  -0.003594  -0.000003   0.361419
    14  C   -0.045505  -0.000003  -0.000132   0.002448   0.000002  -0.003523
    15  O   -0.001910  -0.003443   0.000392  -0.000016  -0.000013  -0.000036
    16  Si  -0.002020   0.005924   0.000279  -0.000109  -0.000056  -0.000031
    17  C    0.001953  -0.000085   0.000111   0.000003   0.000000   0.000006
    18  C   -0.000004   0.000000  -0.000004   0.000000   0.000000   0.000000
    19  C   -0.000037  -0.001645  -0.000548   0.000000   0.000001   0.000000
    20  H    0.000000   0.000001   0.000000   0.000000   0.000000   0.000000
    21  H   -0.000005   0.000000   0.000000   0.000000   0.000000   0.000000
    22  H    0.000000   0.000001  -0.000001   0.000000   0.000000   0.000000
    23  H    0.000002   0.000040   0.000032   0.000000   0.000000   0.000000
    24  H    0.000001   0.000036   0.000341   0.000000   0.000000   0.000000
    25  H   -0.000016   0.001065   0.000797   0.000000  -0.000001   0.000000
    26  H    0.000052  -0.000016   0.000000   0.000000   0.000000   0.000000
    27  H    0.002157   0.002769  -0.000007  -0.000001   0.000000   0.000000
    28  H    0.000463  -0.000104   0.000000   0.000000   0.000000   0.000001
    29  H   -0.001282   0.000008  -0.000007  -0.000046   0.000000   0.000081
    30  H   -0.009267  -0.000005   0.000003  -0.000012   0.000000   0.001642
    31  H    0.005652  -0.000001   0.000005   0.000026   0.000000  -0.001574
    32  H    0.000252  -0.000001   0.000000   0.002865   0.000001   0.377126
    33  H    0.000011   0.000001  -0.000001   0.000748  -0.000007   0.379772
    34  H   -0.000169   0.000000   0.000000   0.000080   0.000000  -0.028320
    35  H    0.001363  -0.000010   0.000000  -0.000100   0.000000  -0.036471
    36  H    0.000809   0.000028  -0.000001   0.008199  -0.000024  -0.037031
    37  C    0.005921   0.005034  -0.007557  -0.002685   0.000092  -0.000111
    38  C   -0.000102  -0.000122   0.000028   0.000096   0.000002   0.000027
    39  C   -0.000013   0.000001   0.000002   0.000001   0.000000   0.000005
    40  H   -0.000147  -0.000048   0.005288   0.000030  -0.000026   0.000000
    41  H   -0.000084   0.000095   0.000122   0.000914  -0.000276   0.000129
    42  H   -0.000021   0.000004   0.000000  -0.000001   0.000000   0.000001
    43  H    0.000000   0.000000   0.000000   0.000000   0.000000   0.000000
    44  H    0.000000   0.000000   0.000000  -0.000004   0.000000   0.000002
              13         14         15         16         17         18
     1  C   -0.039895  -0.032504   0.002405   0.000490   0.000030   0.000000
     2  C   -0.009203   0.345586  -0.041974  -0.005510  -0.000967  -0.000099
     3  C   -0.000079  -0.030052   0.183848  -0.011036  -0.000872   0.000952
     4  C   -0.000098   0.005159  -0.023539   0.002839  -0.002523  -0.000042
     5  C    0.000288   0.000452   0.001546  -0.000588  -0.000028   0.000000
     6  H    0.005484  -0.004089  -0.000027  -0.000066  -0.000001   0.000000
     7  H    0.005903  -0.045505  -0.001910  -0.002020   0.001953  -0.000004
     8  H    0.000046  -0.000003  -0.003443   0.005924  -0.000085   0.000000
     9  H    0.000001  -0.000132   0.000392   0.000279   0.000111  -0.000004
    10  O   -0.003594   0.002448  -0.000016  -0.000109   0.000003   0.000000
    11  O   -0.000003   0.000002  -0.000013  -0.000056   0.000000   0.000000
    12  C    0.361419  -0.003523  -0.000036  -0.000031   0.000006   0.000000
    13  C    4.931966  -0.001418  -0.000001  -0.000040  -0.000051   0.000000
    14  C   -0.001418   4.986068  -0.005946   0.001257  -0.000179  -0.000042
    15  O   -0.000001  -0.005946   8.298442   0.332331  -0.014753  -0.018830
    16  Si  -0.000040   0.001257   0.332331  11.851230   0.366454   0.378337
    17  C   -0.000051  -0.000179  -0.014753   0.366454   5.151396  -0.031497
    18  C    0.000000  -0.000042  -0.018830   0.378337  -0.031497   5.118096
    19  C    0.000000   0.000002  -0.017864   0.371615  -0.035329  -0.032978
    20  H    0.000000   0.000000   0.000486  -0.015028  -0.000711   0.373544
    21  H    0.000000  -0.000021  -0.000365  -0.025554  -0.001202   0.375525
    22  H    0.000000   0.000000  -0.000417  -0.024546   0.001387   0.376465
    23  H    0.000000   0.000000   0.000576  -0.013641  -0.000149  -0.000784
    24  H    0.000000   0.000000  -0.000619  -0.025189   0.001294  -0.001062
    25  H    0.000000   0.000000  -0.000499  -0.026818  -0.001632   0.001438
    26  H    0.000000  -0.000007   0.000514  -0.014168   0.371755  -0.001044
    27  H    0.000009   0.000005  -0.000430  -0.028910   0.374606   0.001479
    28  H   -0.000017   0.000837  -0.000488  -0.027709   0.378391  -0.001051
    29  H   -0.000012   0.380646   0.007218   0.003883  -0.000499  -0.000176
    30  H    0.000316   0.372391   0.000122  -0.000339  -0.000016   0.000001
    31  H    0.000149   0.380254  -0.000048  -0.000319   0.000015   0.000001
    32  H   -0.036459   0.003275   0.000000  -0.000004   0.000000   0.000000
    33  H   -0.042258  -0.000024   0.000000   0.000002   0.000000   0.000000
    34  H    0.382777   0.000003   0.000000   0.000001   0.000000   0.000000
    35  H    0.386165   0.000088   0.000003  -0.000020   0.000040   0.000000
    36  H    0.389629   0.000112   0.000000  -0.000009  -0.000002   0.000000
    37  C    0.000007  -0.006668  -0.062722  -0.002072  -0.000035  -0.000002
    38  C   -0.000002  -0.005220  -0.000105   0.000198  -0.000001  -0.000015
    39  C    0.000000  -0.003948   0.000379   0.000013   0.000000   0.000000
    40  H    0.000000  -0.000126  -0.000466   0.001178   0.000005  -0.000011
    41  H   -0.000002   0.000271   0.003502   0.000108   0.000002   0.000000
    42  H    0.000000   0.000355   0.006716   0.000797   0.000003  -0.000003
    43  H    0.000000   0.000018   0.000002  -0.000001   0.000000   0.000000
    44  H    0.000000   0.000024  -0.000002   0.000003   0.000000   0.000000
              19         20         21         22         23         24
     1  C    0.000000   0.000000   0.000000   0.000000   0.000000   0.000000
     2  C   -0.000088   0.000001  -0.000010   0.000002   0.000001   0.000001
     3  C   -0.001660  -0.000011  -0.000050  -0.000037   0.000034   0.000021
     4  C   -0.000477   0.000001   0.000003  -0.000003   0.000029  -0.000128
     5  C    0.000087   0.000000   0.000000   0.000000  -0.000001  -0.000002
     6  H    0.000000   0.000000   0.000000   0.000000   0.000000   0.000000
     7  H   -0.000037   0.000000  -0.000005   0.000000   0.000002   0.000001
     8  H   -0.001645   0.000001   0.000000   0.000001   0.000040   0.000036
     9  H   -0.000548   0.000000   0.000000  -0.000001   0.000032   0.000341
    10  O    0.000000   0.000000   0.000000   0.000000   0.000000   0.000000
    11  O    0.000001   0.000000   0.000000   0.000000   0.000000   0.000000
    12  C    0.000000   0.000000   0.000000   0.000000   0.000000   0.000000
    13  C    0.000000   0.000000   0.000000   0.000000   0.000000   0.000000
    14  C    0.000002   0.000000  -0.000021   0.000000   0.000000   0.000000
    15  O   -0.017864   0.000486  -0.000365  -0.000417   0.000576  -0.000619
    16  Si   0.371615  -0.015028  -0.025554  -0.024546  -0.013641  -0.025189
    17  C   -0.035329  -0.000711  -0.001202   0.001387  -0.000149   0.001294
    18  C   -0.032978   0.373544   0.375525   0.376465  -0.000784  -0.001062
    19  C    5.139891  -0.000497   0.001371  -0.001292   0.369628   0.378752
    20  H   -0.000497   0.566848  -0.023419  -0.023528  -0.000005  -0.000028
    21  H    0.001371  -0.023419   0.578213  -0.022014   0.000015   0.000004
    22  H   -0.001292  -0.023528  -0.022014   0.573727  -0.000052   0.000573
    23  H    0.369628  -0.000005   0.000015  -0.000052   0.570786  -0.023400
    24  H    0.378752  -0.000028   0.000004   0.000573  -0.023400   0.571882
    25  H    0.374931   0.000002  -0.000027   0.000007  -0.023420  -0.022681
    26  H   -0.000302   0.000137  -0.000034   0.000014   0.000042   0.000014
    27  H   -0.001516   0.000000   0.000003  -0.000028  -0.000025   0.000008
    28  H    0.001313  -0.000045   0.000612   0.000002   0.000007  -0.000024
    29  H    0.000011   0.000002   0.000352  -0.000003   0.000000   0.000000
    30  H    0.000000   0.000000  -0.000001   0.000000   0.000000   0.000000
    31  H    0.000000   0.000000  -0.000001   0.000000   0.000000   0.000000
    32  H    0.000000   0.000000   0.000000   0.000000   0.000000   0.000000
    33  H    0.000000   0.000000   0.000000   0.000000   0.000000   0.000000
    34  H    0.000000   0.000000   0.000000   0.000000   0.000000   0.000000
    35  H    0.000000   0.000000   0.000000   0.000000   0.000000   0.000000
    36  H    0.000000   0.000000   0.000000   0.000000   0.000000   0.000000
    37  C   -0.000048   0.000000  -0.000001   0.000006   0.000001   0.000019
    38  C    0.000004   0.000000  -0.000001  -0.000003   0.000000  -0.000001
    39  C    0.000000   0.000000   0.000000   0.000000   0.000000   0.000000
    40  H   -0.000058   0.000000   0.000000  -0.000001   0.000001   0.000020
    41  H   -0.000001   0.000000   0.000000   0.000000   0.000000   0.000000
    42  H   -0.000001   0.000000   0.000003   0.000008   0.000000  -0.000001
    43  H    0.000000   0.000000   0.000000   0.000000   0.000000   0.000000
    44  H    0.000000   0.000000   0.000000   0.000000   0.000000   0.000000
              25         26         27         28         29         30
     1  C    0.000000  -0.000001  -0.000014   0.000008   0.003709  -0.004588
     2  C   -0.000016   0.000114  -0.001381  -0.000826  -0.025913  -0.026704
     3  C   -0.000128  -0.000005   0.000364  -0.000408  -0.008691   0.003930
     4  C    0.000089   0.000042  -0.001068   0.000126   0.000204  -0.000128
     5  C    0.000001   0.000001  -0.000028   0.000005  -0.000017  -0.000015
     6  H    0.000000   0.000000  -0.000001   0.000000  -0.000080  -0.000035
     7  H   -0.000016   0.000052   0.002157   0.000463  -0.001282  -0.009267
     8  H    0.001065  -0.000016   0.002769  -0.000104   0.000008  -0.000005
     9  H    0.000797   0.000000  -0.000007   0.000000  -0.000007   0.000003
    10  O    0.000000   0.000000  -0.000001   0.000000  -0.000046  -0.000012
    11  O   -0.000001   0.000000   0.000000   0.000000   0.000000   0.000000
    12  C    0.000000   0.000000   0.000000   0.000001   0.000081   0.001642
    13  C    0.000000   0.000000   0.000009  -0.000017  -0.000012   0.000316
    14  C    0.000000  -0.000007   0.000005   0.000837   0.380646   0.372391
    15  O   -0.000499   0.000514  -0.000430  -0.000488   0.007218   0.000122
    16  Si  -0.026818  -0.014168  -0.028910  -0.027709   0.003883  -0.000339
    17  C   -0.001632   0.371755   0.374606   0.378391  -0.000499  -0.000016
    18  C    0.001438  -0.001044   0.001479  -0.001051  -0.000176   0.000001
    19  C    0.374931  -0.000302  -0.001516   0.001313   0.000011   0.000000
    20  H    0.000002   0.000137   0.000000  -0.000045   0.000002   0.000000
    21  H   -0.000027  -0.000034   0.000003   0.000612   0.000352  -0.000001
    22  H    0.000007   0.000014  -0.000028   0.000002  -0.000003   0.000000
    23  H   -0.023420   0.000042  -0.000025   0.000007   0.000000   0.000000
    24  H   -0.022681   0.000014   0.000008  -0.000024   0.000000   0.000000
    25  H    0.582609  -0.000016   0.000597   0.000005   0.000000   0.000000
    26  H   -0.000016   0.563240  -0.022488  -0.022655   0.000005  -0.000001
    27  H    0.000597  -0.022488   0.580889  -0.023752   0.000007  -0.000001
    28  H    0.000005  -0.022655  -0.023752   0.573548   0.000263   0.000301
    29  H    0.000000   0.000005   0.000007   0.000263   0.569442  -0.030497
    30  H    0.000000  -0.000001  -0.000001   0.000301  -0.030497   0.612609
    31  H    0.000000   0.000000  -0.000001  -0.000011  -0.026559  -0.030301
    32  H    0.000000   0.000000   0.000000  -0.000001   0.000013   0.000319
    33  H    0.000000   0.000000   0.000000   0.000000   0.000000   0.000018
    34  H    0.000000   0.000000  -0.000001   0.000000   0.000000  -0.000060
    35  H    0.000000  -0.000001   0.000129   0.000194  -0.000027   0.001707
    36  H    0.000000   0.000000   0.000019  -0.000001   0.000002  -0.000038
    37  C   -0.000001   0.000001  -0.000006  -0.000006  -0.000140  -0.000002
    38  C    0.000000   0.000000   0.000000   0.000000   0.000501   0.000238
    39  C    0.000000   0.000000   0.000000   0.000000   0.000011   0.000148
    40  H   -0.000011   0.000000   0.000000   0.000000  -0.000029   0.000004
    41  H   -0.000001   0.000000   0.000000   0.000000  -0.000005   0.000001
    42  H    0.000000   0.000000   0.000000   0.000000   0.000302   0.000014
    43  H    0.000000   0.000000   0.000000   0.000000  -0.000004  -0.000001
    44  H    0.000000   0.000000   0.000000   0.000000   0.000000   0.000001
              31         32         33         34         35         36
     1  C   -0.005741  -0.027198  -0.029516   0.004484  -0.005388  -0.007534
     2  C   -0.034508  -0.006147   0.005245   0.000191   0.002187  -0.000793
     3  C   -0.004175  -0.000030  -0.000072  -0.000003   0.000013  -0.000097
     4  C    0.000037   0.000027   0.000010   0.000001  -0.000010   0.000149
     5  C   -0.000015  -0.000044   0.000013  -0.000007   0.000017   0.000228
     6  H    0.005660  -0.000324  -0.005642  -0.000144  -0.000068   0.000278
     7  H    0.005652   0.000252   0.000011  -0.000169   0.001363   0.000809
     8  H   -0.000001  -0.000001   0.000001   0.000000  -0.000010   0.000028
     9  H    0.000005   0.000000  -0.000001   0.000000   0.000000  -0.000001
    10  O    0.000026   0.002865   0.000748   0.000080  -0.000100   0.008199
    11  O    0.000000   0.000001  -0.000007   0.000000   0.000000  -0.000024
    12  C   -0.001574   0.377126   0.379772  -0.028320  -0.036471  -0.037031
    13  C    0.000149  -0.036459  -0.042258   0.382777   0.386165   0.389629
    14  C    0.380254   0.003275  -0.000024   0.000003   0.000088   0.000112
[...]
    13  C    0.000000   0.000000   0.000000   0.000000   0.000000   0.000000
    14  C    0.000001   0.000001  -0.000031   0.000000   0.000000   0.000000
    15  O   -0.017810   0.000675  -0.000501  -0.000567   0.000561  -0.000688
    16  Si   0.368027  -0.015206  -0.024214  -0.023119  -0.013971  -0.024105
    17  C   -0.033148  -0.000393  -0.001258   0.001172  -0.000149   0.001178
    18  C   -0.028702   0.368449   0.377220   0.377610  -0.000543  -0.001084
    19  C    5.139287  -0.000219   0.001189  -0.001262   0.367986   0.378693
    20  H   -0.000219   0.575571  -0.023974  -0.023967  -0.000003  -0.000045
    21  H    0.001189  -0.023974   0.572554  -0.022351   0.000007   0.000000
    22  H   -0.001262  -0.023967  -0.022351   0.568908  -0.000031   0.000447
    23  H    0.367986  -0.000003   0.000007  -0.000031   0.573179  -0.023906
    24  H    0.378693  -0.000045   0.000000   0.000447  -0.023906   0.570493
    25  H    0.376399   0.000002  -0.000021   0.000006  -0.023816  -0.023291
    26  H   -0.000239   0.000082  -0.000024   0.000008   0.000063   0.000009
    27  H   -0.001174  -0.000002   0.000006  -0.000021  -0.000031   0.000003
    28  H    0.001179  -0.000044   0.000492  -0.000001   0.000004  -0.000021
    29  H    0.000012   0.000002   0.000551  -0.000006   0.000000   0.000000
    30  H    0.000000   0.000000  -0.000001   0.000000   0.000000   0.000000
    31  H    0.000000   0.000000  -0.000001   0.000000   0.000000   0.000000
    32  H    0.000000   0.000000   0.000000   0.000000   0.000000   0.000000
    33  H    0.000000   0.000000   0.000000   0.000000   0.000000   0.000000
    34  H    0.000000   0.000000   0.000000   0.000000   0.000000   0.000000
    35  H    0.000000   0.000000   0.000000   0.000000   0.000000   0.000000
    36  H    0.000000   0.000000   0.000000   0.000000   0.000000   0.000000
    37  C   -0.000056   0.000000  -0.000001   0.000011   0.000002   0.000018
    38  C    0.000005   0.000000  -0.000005  -0.000014   0.000000  -0.000001
    39  C    0.000000   0.000000   0.000000   0.000000   0.000000   0.000000
    40  H   -0.000064   0.000000   0.000000  -0.000001   0.000001   0.000039
    41  H   -0.000001   0.000000   0.000000   0.000000   0.000000   0.000000
    42  H   -0.000003   0.000000   0.000025   0.000091   0.000000  -0.000002
    43  H    0.000000   0.000000   0.000000   0.000000   0.000000   0.000000
    44  H    0.000000   0.000000   0.000000   0.000000   0.000000   0.000000
              25         26         27         28         29         30
     1  C    0.000000   0.000000  -0.000014   0.000000   0.004120  -0.004875
     2  C   -0.000012   0.000054  -0.000491  -0.000270  -0.028129  -0.027266
     3  C   -0.000038  -0.000015   0.000202  -0.000355  -0.008754   0.003848
     4  C    0.000195   0.000042  -0.000870   0.000112   0.000217  -0.000133
     5  C   -0.000012   0.000000  -0.000022   0.000004  -0.000019  -0.000012
     6  H    0.000000   0.000000   0.000000   0.000000  -0.000072  -0.000057
     7  H   -0.000010   0.000026   0.001242   0.000569  -0.001958  -0.007416
     8  H    0.000633  -0.000021   0.002433  -0.000106   0.000008  -0.000004
     9  H    0.000722   0.000000  -0.000002   0.000000  -0.000007   0.000003
    10  O    0.000000   0.000000   0.000000   0.000000  -0.000048  -0.000008
    11  O    0.000000   0.000000   0.000000   0.000000   0.000000   0.000000
    12  C    0.000000   0.000000   0.000000   0.000000   0.000050   0.001634
    13  C    0.000000   0.000000   0.000005  -0.000007  -0.000011   0.000358
    14  C    0.000000  -0.000003  -0.000003   0.000465   0.379951   0.374227
    15  O   -0.000537   0.000533  -0.000541  -0.000589   0.008489   0.000105
    16  Si  -0.023837  -0.014148  -0.026377  -0.025746   0.003251  -0.000220
    17  C   -0.001377   0.369107   0.376375   0.378431  -0.000382  -0.000007
    18  C    0.001213  -0.000685   0.001195  -0.001066  -0.000136   0.000001
    19  C    0.376399  -0.000239  -0.001174   0.001179   0.000012   0.000000
    20  H    0.000002   0.000082  -0.000002  -0.000044   0.000002   0.000000
    21  H   -0.000021  -0.000024   0.000006   0.000492   0.000551  -0.000001
    22  H    0.000006   0.000008  -0.000021  -0.000001  -0.000006   0.000000
    23  H   -0.023816   0.000063  -0.000031   0.000004   0.000000   0.000000
    24  H   -0.023291   0.000009   0.000003  -0.000021   0.000000   0.000000
    25  H    0.574342  -0.000026   0.000438   0.000003   0.000000   0.000000
    26  H   -0.000026   0.568673  -0.023416  -0.023434   0.000004   0.000000
    27  H    0.000438  -0.023416   0.575287  -0.023697   0.000003   0.000000
    28  H    0.000003  -0.023434  -0.023697   0.571661   0.000227   0.000100
    29  H    0.000000   0.000004   0.000003   0.000227   0.571960  -0.028773
    30  H    0.000000   0.000000   0.000000   0.000100  -0.028773   0.605791
    31  H    0.000000   0.000000   0.000000  -0.000004  -0.027844  -0.029001
    32  H    0.000000   0.000000   0.000000   0.000000   0.000005   0.000577
    33  H    0.000000   0.000000   0.000000   0.000000   0.000001  -0.000002
    34  H    0.000000   0.000000   0.000000   0.000000   0.000000  -0.000055
    35  H    0.000000  -0.000001   0.000060   0.000107  -0.000020   0.001323
    36  H    0.000000   0.000000   0.000009  -0.000001   0.000002  -0.000035
    37  C    0.000002   0.000001  -0.000005  -0.000004  -0.000228   0.000002
    38  C    0.000000   0.000000   0.000000   0.000000   0.000458   0.000184
    39  C    0.000000   0.000000   0.000000   0.000000   0.000017   0.000102
    40  H   -0.000014   0.000000   0.000000   0.000000  -0.000032   0.000005
    41  H    0.000000   0.000000   0.000000   0.000000  -0.000004  -0.000001
    42  H    0.000000   0.000000   0.000000   0.000000   0.000373   0.000014
    43  H    0.000000   0.000000   0.000000   0.000000  -0.000004   0.000000
    44  H    0.000000   0.000000   0.000000   0.000000  -0.000001   0.000001
              31         32         33         34         35         36
     1  C   -0.005988  -0.030036  -0.030965   0.004200  -0.005087  -0.007034
     2  C   -0.033201  -0.005856   0.005298   0.000203   0.001952  -0.000766
     3  C   -0.005177  -0.000065  -0.000080  -0.000003   0.000000  -0.000113
     4  C    0.000063   0.000035   0.000013   0.000001  -0.000016   0.000189
     5  C   -0.000015  -0.000061   0.000042  -0.000010   0.000030   0.000542
     6  H    0.006227  -0.000444  -0.005407  -0.000132  -0.000054   0.000244
     7  H    0.005345   0.000270   0.000028  -0.000154   0.001636   0.000814
     8  H   -0.000001  -0.000001   0.000000   0.000000  -0.000010   0.000014
     9  H    0.000005   0.000000  -0.000001   0.000000   0.000000  -0.000001
    10  O    0.000025   0.003306   0.000466   0.000073  -0.000059   0.007865
    11  O    0.000000   0.000001  -0.000010   0.000000   0.000000  -0.000059
    12  C   -0.001286   0.373283   0.379606  -0.027455  -0.034488  -0.037508
    13  C    0.000117  -0.035261  -0.039112   0.383122   0.386383   0.388593
    14  C    0.379154   0.002905  -0.000018  -0.000005   0.000205   0.000101
    15  O   -0.000076   0.000000   0.000000   0.000000   0.000003   0.000000
    16  Si  -0.000281  -0.000003   0.000001   0.000001  -0.000010  -0.000009
    17  C    0.000008   0.000000   0.000000   0.000000   0.000015   0.000000
    18  C    0.000002   0.000000   0.000000   0.000000   0.000000   0.000000
    19  C    0.000000   0.000000   0.000000   0.000000   0.000000   0.000000
    20  H    0.000000   0.000000   0.000000   0.000000   0.000000   0.000000
    21  H   -0.000001   0.000000   0.000000   0.000000   0.000000   0.000000
    22  H    0.000000   0.000000   0.000000   0.000000   0.000000   0.000000
    23  H    0.000000   0.000000   0.000000   0.000000   0.000000   0.000000
    24  H    0.000000   0.000000   0.000000   0.000000   0.000000   0.000000
    25  H    0.000000   0.000000   0.000000   0.000000   0.000000   0.000000
    26  H    0.000000   0.000000   0.000000   0.000000  -0.000001   0.000000
    27  H    0.000000   0.000000   0.000000   0.000000   0.000060   0.000009
    28  H   -0.000004   0.000000   0.000000   0.000000   0.000107  -0.000001
    29  H   -0.027844   0.000005   0.000001   0.000000  -0.000020   0.000002
    30  H   -0.029001   0.000577  -0.000002  -0.000055   0.001323  -0.000035
    31  H    0.580021   0.000639  -0.000037   0.000001  -0.000028  -0.000002
    32  H    0.000639   0.613235  -0.032233  -0.002323  -0.005251   0.005278
    33  H   -0.000037  -0.032233   0.609392  -0.004391   0.005047  -0.003344
    34  H    0.000001  -0.002323  -0.004391   0.595695  -0.030397  -0.029958
    35  H   -0.000028  -0.005251   0.005047  -0.030397   0.600498  -0.032528
    36  H   -0.000002   0.005278  -0.003344  -0.029958  -0.032528   0.588329
    37  C    0.001117  -0.000003  -0.000001   0.000000  -0.000001   0.000000
    38  C    0.007896  -0.000004   0.000000   0.000000   0.000000   0.000000
    39  C    0.004785   0.000000   0.000000   0.000000   0.000000   0.000000
    40  H    0.000072   0.000000   0.000000   0.000000   0.000000   0.000000
    41  H   -0.000268  -0.000001  -0.000001   0.000000   0.000000   0.000000
    42  H   -0.000450   0.000000   0.000000   0.000000   0.000000   0.000000
    43  H    0.000018   0.000000   0.000000   0.000000   0.000000   0.000000
    44  H   -0.000023   0.000000   0.000000   0.000000   0.000000   0.000000
              37         38         39         40         41         42
     1  C   -0.000239  -0.001451  -0.000426  -0.000156   0.001897   0.000027
     2  C   -0.061485  -0.003762   0.001193   0.006408  -0.005482  -0.000806
     3  C    0.347692  -0.030128   0.000712  -0.033111  -0.027358  -0.005311
     4  C   -0.063623   0.004771  -0.000076  -0.008858  -0.003552   0.000183
     5  C    0.001371  -0.000069  -0.000013  -0.000606   0.003541  -0.000004
     6  H    0.005580   0.000404   0.001288   0.000047  -0.001464  -0.000003
     7  H    0.006149  -0.000123  -0.000006  -0.000179  -0.000078  -0.000026
     8  H    0.005008  -0.000125   0.000001  -0.000010   0.000051   0.000004
     9  H   -0.007730   0.000008   0.000001   0.006096   0.000068   0.000000
    10  O   -0.003010   0.000106  -0.000003   0.000026   0.002409   0.000000
    11  O    0.000086   0.000001   0.000000  -0.000026  -0.000353   0.000000
    12  C   -0.000108   0.000020   0.000001   0.000000   0.000171   0.000001
    13  C    0.000006  -0.000001   0.000000   0.000000  -0.000002   0.000000
    14  C   -0.006822  -0.005169  -0.003234  -0.000149   0.000336   0.000396
    15  O   -0.065171  -0.000412   0.000438  -0.000232   0.003605   0.007804
    16  Si  -0.001898   0.000177   0.000013   0.001322   0.000076   0.000852
    17  C   -0.000044  -0.000001   0.000000   0.000005   0.000002   0.000004
    18  C   -0.000004  -0.000042   0.000000  -0.000021   0.000001   0.000068
    19  C   -0.000056   0.000005   0.000000  -0.000064  -0.000001  -0.000003
    20  H    0.000000   0.000000   0.000000   0.000000   0.000000   0.000000
    21  H   -0.000001  -0.000005   0.000000   0.000000   0.000000   0.000025
    22  H    0.000011  -0.000014   0.000000  -0.000001   0.000000   0.000091
    23  H    0.000002   0.000000   0.000000   0.000001   0.000000   0.000000
    24  H    0.000018  -0.000001   0.000000   0.000039   0.000000  -0.000002
    25  H    0.000002   0.000000   0.000000  -0.000014   0.000000   0.000000
    26  H    0.000001   0.000000   0.000000   0.000000   0.000000   0.000000
    27  H   -0.000005   0.000000   0.000000   0.000000   0.000000   0.000000
    28  H   -0.000004   0.000000   0.000000   0.000000   0.000000   0.000000
    29  H   -0.000228   0.000458   0.000017  -0.000032  -0.000004   0.000373
    30  H    0.000002   0.000184   0.000102   0.000005  -0.000001   0.000014
    31  H    0.001117   0.007896   0.004785   0.000072  -0.000268  -0.000450
    32  H   -0.000003  -0.000004   0.000000   0.000000  -0.000001   0.000000
    33  H   -0.000001   0.000000   0.000000   0.000000  -0.000001   0.000000
    34  H    0.000000   0.000000   0.000000   0.000000   0.000000   0.000000
    35  H   -0.000001   0.000000   0.000000   0.000000   0.000000   0.000000
    36  H    0.000000   0.000000   0.000000   0.000000   0.000000   0.000000
    37  C    5.055700   0.386746  -0.040209   0.365543   0.360422  -0.052949
    38  C    0.386746   4.759436   0.649928  -0.035769  -0.036542   0.384394
    39  C   -0.040209   0.649928   4.947268  -0.001226  -0.006328  -0.045549
    40  H    0.365543  -0.035769  -0.001226   0.607823  -0.030564  -0.000849
    41  H    0.360422  -0.036542  -0.006328  -0.030564   0.622509   0.005340
    42  H   -0.052949   0.384394  -0.045549  -0.000849   0.005340   0.603043
    43  H    0.004636  -0.024699   0.376108  -0.000211   0.000084  -0.007819
    44  H   -0.012152  -0.034458   0.381311   0.000256   0.005927   0.005656
              43         44
     1  C    0.000006  -0.000074
     2  C   -0.000024  -0.000027
     3  C   -0.000093   0.000117
     4  C    0.000002  -0.000005
     5  C    0.000000  -0.000004
     6  H   -0.000008   0.000448
     7  H    0.000000   0.000000
     8  H    0.000000   0.000000
     9  H    0.000000   0.000000
    10  O    0.000000  -0.000002
    11  O    0.000000   0.000000
    12  C    0.000000   0.000001
    13  C    0.000000   0.000000
    14  C    0.000013   0.000019
    15  O    0.000002  -0.000002
    16  Si   0.000000   0.000003
    17  C    0.000000   0.000000
    18  C    0.000000   0.000000
    19  C    0.000000   0.000000
    20  H    0.000000   0.000000
    21  H    0.000000   0.000000
    22  H    0.000000   0.000000
    23  H    0.000000   0.000000
    24  H    0.000000   0.000000
    25  H    0.000000   0.000000
    26  H    0.000000   0.000000
    27  H    0.000000   0.000000
    28  H    0.000000   0.000000
    29  H   -0.000004  -0.000001
    30  H    0.000000   0.000001
    31  H    0.000018  -0.000023
    32  H    0.000000   0.000000
    33  H    0.000000   0.000000
    34  H    0.000000   0.000000
    35  H    0.000000   0.000000
    36  H    0.000000   0.000000
    37  C    0.004636  -0.012152
    38  C   -0.024699  -0.034458
    39  C    0.376108   0.381311
    40  H   -0.000211   0.000256
    41  H    0.000084   0.005927
    42  H   -0.007819   0.005656
    43  H    0.592134  -0.043979
    44  H   -0.043979   0.597478
 Mulliken charges:
               1
     1  C    0.167622
     2  C   -0.090309
     3  C    0.309700
     4  C   -0.304043
     5  C    0.591024
     6  H    0.116546
     7  H    0.103206
     8  H    0.151122
     9  H    0.144220
    10  O   -0.485907
    11  O   -0.499024
    12  C   -0.191025
    13  C   -0.332692
    14  C   -0.339548
    15  O   -0.651637
    16  Si   0.913189
    17  C   -0.559211
    18  C   -0.535813
    19  C   -0.547003
    20  H    0.119082
    21  H    0.120405
    22  H    0.123137
    23  H    0.120545
    24  H    0.122058
    25  H    0.119036
    26  H    0.123413
    27  H    0.119408
    28  H    0.121991
    29  H    0.126726
    30  H    0.109592
    31  H    0.118188
    32  H    0.112007
    33  H    0.115707
    34  H    0.111587
    35  H    0.110692
    36  H    0.119377
    37  C   -0.224348
    38  C   -0.021760
    39  C   -0.266096
    40  H    0.124433
    41  H    0.105560
    42  H    0.105497
    43  H    0.103835
    44  H    0.099509
 Sum of Mulliken charges =   0.00000
 Mulliken charges with hydrogens summed into heavy atoms:
               1
     1  C    0.284168
     2  C    0.012898
     3  C    0.309700
     4  C   -0.008701
     5  C    0.591024
    10  O   -0.485907
    11  O   -0.499024
    12  C    0.036689
    13  C    0.008964
    14  C    0.014958
    15  O   -0.651637
    16  Si   0.913189
    17  C   -0.194398
    18  C   -0.173189
    19  C   -0.185363
    37  C    0.005645
    38  C    0.083737
    39  C   -0.062752
 Electronic spatial extent (au):  <R**2>=           5335.8995
 Charge=              0.0000 electrons
 Dipole moment (field-independent basis, Debye):
    X=              2.4810    Y=              0.9353    Z=             -4.1680  Tot=              4.9399
 Quadrupole moment (field-independent basis, Debye-Ang):
   XX=           -118.4388   YY=           -119.3825   ZZ=           -127.3733
   XY=             -8.6266   XZ=             11.2697   YZ=              6.9798
 Traceless Quadrupole moment (field-independent basis, Debye-Ang):
   XX=              3.2928   YY=              2.3490   ZZ=             -5.6418
   XY=             -8.6266   XZ=             11.2697   YZ=              6.9798
 Octapole moment (field-independent basis, Debye-Ang**2):
  XXX=             14.7327  YYY=             -1.5504  ZZZ=            -29.4801  XYY=              2.3252
  XXY=              5.5227  XXZ=            -27.7654  XZZ=             21.8722  YZZ=             18.3045
  YYZ=            -10.8504  XYZ=            -17.9652
 Hexadecapole moment (field-independent basis, Debye-Ang**3):
 XXXX=          -3648.8391 YYYY=          -1994.6304 ZZZZ=          -1529.7783 XXXY=            -46.6843
 XXXZ=             50.4088 YYYX=             -6.1779 YYYZ=            -39.8432 ZZZX=             67.7018
 ZZZY=             55.0903 XXYY=           -946.1593 XXZZ=           -907.6968 YYZZ=           -618.5528
 XXYZ=             54.3852 YYXZ=              8.8587 ZZXY=            -31.6315
 N-N= 1.632166771423D+03 E-N=-5.754511113035D+03  KE= 1.055905681105D+03
 1\1\GINC-CPU-E-609\FOpt\RB3LYP\6-31G(d,p)\C14H26O3Si1\KE291\06-Feb-201
 9\0\\# b3lyp/6-31g(d,p) Opt=(maxcycles=25) scrf=(solvent=chloroform)\\
 P_ng_2ginp016\\0,1\C,-0.3835055562,-0.0999991078,1.3200645243\C,-1.145
 1002384,1.0784468067,0.6978219127\C,-2.2186300023,1.6097906939,1.69100
 16633\C,-1.4417532864,2.0968699426,2.9267271697\C,-0.4742658707,1.0836
 843364,3.511989049\H,-1.0621584068,-0.9593332141,1.3831158887\H,-0.440
 2367796,1.9098890424,0.5719135564\H,-0.8323920379,2.9674279976,2.65582
 77024\H,-2.1112005134,2.4119379945,3.730268177\O,0.0533653511,0.148128
 9196,2.6965448897\O,-0.1150297971,1.1196098233,4.670330217\C,0.8773994
 618,-0.549535597,0.5722425957\C,1.9465884532,0.5303394151,0.3815917545
 \C,-1.6733053653,0.7106413378,-0.696268673\O,-2.9570628498,2.668383596
 1,1.090539551\Si,-2.7576540548,4.3261857872,0.8706722029\C,-1.06493459
 88,4.7591858916,0.15260048\C,-4.1121873818,4.7714645378,-0.3553159635\
 C,-3.02820259,5.2615592003,2.487010163\H,-4.1150502624,5.8479464098,-0
 .5596115314\H,-3.9752187795,4.2497485585,-1.3081707398\H,-5.0991362658
 ,4.5027264126,0.0353945163\H,-3.0414647806,6.3413525564,2.2978152254\H
 ,-3.9887349416,4.9926960462,2.9394259166\H,-2.2434378722,5.0668845582,
 3.2245044794\H,-1.0263697563,5.8317018974,-0.0720311721\H,-0.239908885
 5,4.5436944741,0.8399712777\H,-0.8763846128,4.219116738,-0.7811062895\
 H,-2.3369289545,1.4963463389,-1.0629652986\H,-0.8480667191,0.609050698
 8,-1.4068171696\H,-2.235288164,-0.2261370019,-0.6871032719\H,0.5715177
 114,-0.9597688721,-0.3961695592\H,1.300353036,-1.3862583009,1.13923113
 57\H,2.8476269776,0.0970558053,-0.0624281561\H,1.6095497694,1.33358417
 09,-0.2813017677\H,2.2282600947,0.9762429969,1.3401941161\C,-3.2714257
 274,0.5684443336,2.1626464696\C,-4.2064125135,0.0253243133,1.117305278
 7\C,-4.5339299037,-1.2615117052,0.9865677718\H,-3.8730984282,1.0946033
 786,2.9169862223\H,-2.7776784586,-0.2579021445,2.6864682556\H,-4.66372
 16248,0.7663418025,0.4648203868\H,-5.2496609609,-1.5935264395,0.240120
 3011\H,-4.1042909145,-2.0307594297,1.624743742\\Version=ES64L-G09RevD.
 01\State=1-A\HF=-1064.422051\RMSD=9.019e-09\RMSF=8.054e-06\Dipole=-0.4
 633832,0.5477357,-1.8062218\Quadrupole=-0.0250034,8.4265879,-8.4015845
 ,0.7447796,-8.0952234,3.834188\PG=C01 [X(C14H26O3Si1)]\\@


 THERE'S A SUCKER BORN EVERY MINUTE

              -- PHINEAS TAYLOR (P.T.) BARNUM
 Job cpu time:       0 days  2 hours 15 minutes 47.5 seconds.
 File lengths (MBytes):  RWF=    365 Int=      0 D2E=      0 Chk=     17 Scr=      1
 Normal termination of Gaussian 09 at Wed Feb  6 11:18:48 2019.
