 Entering Gaussian System, Link 0=/usr/local/Cluster-Apps/gaussian/g09/g09
 Initial command:
 /usr/local/Cluster-Apps/gaussian/g09/l1.exe "/home/ke291/rds/hpc-work/06Feb0927IP1/Gau-172906.inp" -scrdir="/home/ke291/rds/hpc-work/06Feb0927IP1/"
 Entering Link 1 = /usr/local/Cluster-Apps/gaussian/g09/l1.exe PID=    172911.
  
 Copyright (c) 1988,1990,1992,1993,1995,1998,2003,2009,2013,
            Gaussian, Inc.  All Rights Reserved.
  
 This is part of the Gaussian(R) 09 program.  It is based on
 the Gaussian(R) 03 system (copyright 2003, Gaussian, Inc.),
 the Gaussian(R) 98 system (copyright 1998, Gaussian, Inc.),
 the Gaussian(R) 94 system (copyright 1995, Gaussian, Inc.),
 the Gaussian 92(TM) system (copyright 1992, Gaussian, Inc.),
 the Gaussian 90(TM) system (copyright 1990, Gaussian, Inc.),
 the Gaussian 88(TM) system (copyright 1988, Gaussian, Inc.),
 the Gaussian 86(TM) system (copyright 1986, Carnegie Mellon
 University), and the Gaussian 82(TM) system (copyright 1983,
 Carnegie Mellon University). Gaussian is a federally registered
 trademark of Gaussian, Inc.
  
 This software contains proprietary and confidential information,
 including trade secrets, belonging to Gaussian, Inc.
  
 This software is provided under written license and may be
 used, copied, transmitted, or stored only in accord with that
 written license.
  
 The following legend is applicable only to US Government
 contracts under FAR:
  
                    RESTRICTED RIGHTS LEGEND
  
 Use, reproduction and disclosure by the US Government is
 subject to restrictions as set forth in subparagraphs (a)
 and (c) of the Commercial Computer Software - Restricted
 Rights clause in FAR 52.227-19.
  
 Gaussian, Inc.
 340 Quinnipiac St., Bldg. 40, Wallingford CT 06492
  
  
 ---------------------------------------------------------------
 Warning -- This program may not be used in any manner that
 competes with the business of Gaussian, Inc. or will provide
 assistance to any competitor of Gaussian, Inc.  The licensee
 of this program is prohibited from giving any competitor of
 Gaussian, Inc. access to this program.  By using this program,
 the user acknowledges that Gaussian, Inc. is engaged in the
 business of creating and licensing software in the field of
 computational chemistry and represents and warrants to the
 licensee that it is not a competitor of Gaussian, Inc. and that
 it will not use this program in any manner prohibited above.
 ---------------------------------------------------------------
  

 Cite this work as:
 Gaussian 09, Revision D.01,
 M. J. Frisch, G. W. Trucks, H. B. Schlegel, G. E. Scuseria, 
 M. A. Robb, J. R. Cheeseman, G. Scalmani, V. Barone, B. Mennucci, 
 G. A. Petersson, H. Nakatsuji, M. Caricato, X. Li, H. P. Hratchian, 
 A. F. Izmaylov, J. Bloino, G. Zheng, J. L. Sonnenberg, M. Hada, 
 M. Ehara, K. Toyota, R. Fukuda, J. Hasegawa, M. Ishida, T. Nakajima, 
 Y. Honda, O. Kitao, H. Nakai, T. Vreven, J. A. Montgomery, Jr., 
 J. E. Peralta, F. Ogliaro, M. Bearpark, J. J. Heyd, E. Brothers, 
 K. N. Kudin, V. N. Staroverov, T. Keith, R. Kobayashi, J. Normand, 
 K. Raghavachari, A. Rendell, J. C. Burant, S. S. Iyengar, J. Tomasi, 
 M. Cossi, N. Rega, J. M. Millam, M. Klene, J. E. Knox, J. B. Cross, 
 V. Bakken, C. Adamo, J. Jaramillo, R. Gomperts, R. E. Stratmann, 
 O. Yazyev, A. J. Austin, R. Cammi, C. Pomelli, J. W. Ochterski, 
 R. L. Martin, K. Morokuma, V. G. Zakrzewski, G. A. Voth, 
 P. Salvador, J. J. Dannenberg, S. Dapprich, A. D. Daniels, 
 O. Farkas, J. B. Foresman, J. V. Ortiz, J. Cioslowski, 
 and D. J. Fox, Gaussian, Inc., Wallingford CT, 2013.
 
 ******************************************
 Gaussian 09:  ES64L-G09RevD.01 24-Apr-2013
                 6-Feb-2019 
 ******************************************
 %nprocshared=2
 Will use up to    2 processors via shared memory.
 %mem=6000MB
 %chk=/home/ke291/rds/hpc-work/06Feb0927IP1/P_ng_2ginp001.chk
 ---------------------------------------------------------------
 # b3lyp/6-31g(d,p) Opt=(maxcycles=25) scrf=(solvent=chloroform)
 ---------------------------------------------------------------
 1/6=25,14=-1,18=20,19=15,26=3,38=1/1,3;
 2/9=110,12=2,17=6,18=5,40=1/2;
 3/5=1,6=6,7=101,11=2,16=1,25=1,30=1,70=2201,71=1,72=7,74=-5/1,2,3;
 4//1;
 5/5=2,38=5,53=7/2;
 6/7=2,8=2,9=2,10=2,28=1/1;
 7//1,2,3,16;
 1/6=25,14=-1,18=20,19=15,26=3/3(2);
 2/9=110/2;
 99//99;
 2/9=110/2;
 3/5=1,6=6,7=101,11=2,16=1,25=1,30=1,70=2205,71=1,72=7,74=-5/1,2,3;
 4/5=5,16=3,69=1/1;
 5/5=2,38=5,53=7/2;
 7//1,2,3,16;
 1/6=25,14=-1,18=20,19=15,26=3/3(-5);
 2/9=110/2;
 6/7=2,8=2,9=2,10=2,19=2,28=1/1;
 99/9=1/99;
 -------------
 P_ng_2ginp001
 -------------
 Symbolic Z-matrix:
 Charge =  0 Multiplicity = 1
 C                    -0.01346   0.26187   0.98948 
 C                    -0.91093   1.37086   0.408 
 C                    -2.19693   1.5481    1.26438 
 C                    -1.74644   1.84723   2.69692 
 C                    -0.86598   0.77574   3.25892 
 H                    -0.41313  -0.72157   0.71341 
 H                    -0.3506    2.31245   0.46449 
 H                    -1.16852   2.77583   2.75689 
 H                    -2.6077    1.98099   3.36077 
 O                     0.07155   0.26686   2.43434 
 O                    -0.90769   0.45693   4.44265 
 C                     1.43004   0.3447    0.45795 
 C                     2.3088   -0.7929    0.96645 
 C                    -1.20103   1.13653  -1.08297 
 O                    -3.03621   2.56565   0.67324 
 Si                   -2.97331   4.22645   0.84814 
 C                    -3.58755   4.77175   2.53807 
 C                    -1.26018   4.93447   0.56129 
 C                    -4.11942   5.00911  -0.43839 
 H                    -1.28967   6.02796   0.59107 
 H                    -0.55629   4.59759   1.32695 
 H                    -0.87661   4.63287  -0.41786 
 H                    -4.1094    6.09903  -0.34689 
 H                    -3.7952    4.7409   -1.44805 
 H                    -5.14525   4.65672  -0.29729 
 H                    -4.55808   4.31725   2.75783 
 H                    -2.88718   4.4868    3.32746 
 H                    -3.70421   5.85928   2.56896 
 H                    -1.89539   1.88173  -1.48241 
 H                    -0.28617   1.2118   -1.6785 
 H                    -1.62868   0.14461  -1.25955 
 H                     1.88364   1.292     0.77405 
 H                     1.44151   0.32171  -0.636 
 H                     2.41551  -0.76253   2.05512 
 H                     1.89041  -1.76496   0.68688 
 H                     3.31039  -0.717     0.53111 
 C                    -3.08375   0.25395   1.22708 
 C                    -4.31692   0.32487   2.0936 
 C                    -4.54945  -0.47528   3.1417 
 H                    -2.50234  -0.6322    1.50325 
 H                    -3.44083   0.08645   0.20296 
 H                    -5.05744   1.07669   1.8253 
 H                    -5.46049  -0.37531   3.72438 
 H                    -3.84256  -1.23948   3.45146 
 

 GradGradGradGradGradGradGradGradGradGradGradGradGradGradGradGradGradGrad
 Berny optimization.
 Initialization pass.
                           ----------------------------
                           !    Initial Parameters    !
                           ! (Angstroms and Degrees)  !
 --------------------------                            --------------------------
 ! Name  Definition              Value          Derivative Info.                !
 --------------------------------------------------------------------------------
 ! R1    R(1,2)                  1.5406         estimate D2E/DX2                !
 ! R2    R(1,6)                  1.0969         estimate D2E/DX2                !
 ! R3    R(1,10)                 1.4474         estimate D2E/DX2                !
 ! R4    R(1,12)                 1.5405         estimate D2E/DX2                !
 ! R5    R(2,3)                  1.5552         estimate D2E/DX2                !
 ! R6    R(2,7)                  1.0972         estimate D2E/DX2                !
 ! R7    R(2,14)                 1.5369         estimate D2E/DX2                !
 ! R8    R(3,4)                  1.5312         estimate D2E/DX2                !
 ! R9    R(3,15)                 1.4454         estimate D2E/DX2                !
 ! R10   R(3,37)                 1.5693         estimate D2E/DX2                !
 ! R11   R(4,5)                  1.4964         estimate D2E/DX2                !
 ! R12   R(4,8)                  1.0954         estimate D2E/DX2                !
 ! R13   R(4,9)                  1.0956         estimate D2E/DX2                !
 ! R14   R(5,10)                 1.3483         estimate D2E/DX2                !
 ! R15   R(5,11)                 1.2266         estimate D2E/DX2                !
 ! R16   R(12,13)                1.5248         estimate D2E/DX2                !
 ! R17   R(12,32)                1.0968         estimate D2E/DX2                !
 ! R18   R(12,33)                1.0943         estimate D2E/DX2                !
 ! R19   R(13,34)                1.0943         estimate D2E/DX2                !
 ! R20   R(13,35)                1.0946         estimate D2E/DX2                !
 ! R21   R(13,36)                1.0947         estimate D2E/DX2                !
 ! R22   R(14,29)                1.0941         estimate D2E/DX2                !
 ! R23   R(14,30)                1.0942         estimate D2E/DX2                !
 ! R24   R(14,31)                1.0945         estimate D2E/DX2                !
 ! R25   R(15,16)                1.6712         estimate D2E/DX2                !
 ! R26   R(16,17)                1.879          estimate D2E/DX2                !
 ! R27   R(16,18)                1.8757         estimate D2E/DX2                !
 ! R28   R(16,19)                1.8924         estimate D2E/DX2                !
 ! R29   R(17,26)                1.094          estimate D2E/DX2                !
 ! R30   R(17,27)                1.0931         estimate D2E/DX2                !
 ! R31   R(17,28)                1.0942         estimate D2E/DX2                !
 ! R32   R(18,20)                1.0943         estimate D2E/DX2                !
 ! R33   R(18,21)                1.0932         estimate D2E/DX2                !
 ! R34   R(18,22)                1.094          estimate D2E/DX2                !
 ! R35   R(19,23)                1.0938         estimate D2E/DX2                !
 ! R36   R(19,24)                1.0938         estimate D2E/DX2                !
 ! R37   R(19,25)                1.0938         estimate D2E/DX2                !
 ! R38   R(37,38)                1.5088         estimate D2E/DX2                !
 ! R39   R(37,40)                1.0953         estimate D2E/DX2                !
 ! R40   R(37,41)                1.0974         estimate D2E/DX2                !
 ! R41   R(38,39)                1.339          estimate D2E/DX2                !
 ! R42   R(38,42)                1.0888         estimate D2E/DX2                !
 ! R43   R(39,43)                1.086          estimate D2E/DX2                !
 ! R44   R(39,44)                1.0861         estimate D2E/DX2                !
 ! A1    A(2,1,6)              109.7637         estimate D2E/DX2                !
 ! A2    A(2,1,10)             114.1119         estimate D2E/DX2                !
 ! A3    A(2,1,12)             112.1442         estimate D2E/DX2                !
 ! A4    A(6,1,10)             106.0062         estimate D2E/DX2                !
 ! A5    A(6,1,12)             107.626          estimate D2E/DX2                !
 ! A6    A(10,1,12)            106.8117         estimate D2E/DX2                !
 ! A7    A(1,2,3)              110.8494         estimate D2E/DX2                !
 ! A8    A(1,2,7)              107.5072         estimate D2E/DX2                !
 ! A9    A(1,2,14)             111.4917         estimate D2E/DX2                !
 ! A10   A(3,2,7)              107.2271         estimate D2E/DX2                !
 ! A11   A(3,2,14)             113.2969         estimate D2E/DX2                !
 ! A12   A(7,2,14)             106.093          estimate D2E/DX2                !
 ! A13   A(2,3,4)              107.1071         estimate D2E/DX2                !
 ! A14   A(2,3,15)             109.5827         estimate D2E/DX2                !
 ! A15   A(2,3,37)             111.1141         estimate D2E/DX2                !
 ! A16   A(4,3,15)             114.5775         estimate D2E/DX2                !
 ! A17   A(4,3,37)             110.463          estimate D2E/DX2                !
 ! A18   A(15,3,37)            104.0461         estimate D2E/DX2                !
 ! A19   A(3,4,5)              112.6185         estimate D2E/DX2                !
 ! A20   A(3,4,8)              111.8422         estimate D2E/DX2                !
 ! A21   A(3,4,9)              111.0668         estimate D2E/DX2                !
 ! A22   A(5,4,8)              106.0236         estimate D2E/DX2                !
 ! A23   A(5,4,9)              108.8075         estimate D2E/DX2                !
 ! A24   A(8,4,9)              106.1447         estimate D2E/DX2                !
 ! A25   A(4,5,10)             116.7251         estimate D2E/DX2                !
 ! A26   A(4,5,11)             121.9065         estimate D2E/DX2                !
 ! A27   A(10,5,11)            121.0477         estimate D2E/DX2                !
 ! A28   A(1,10,5)             124.8188         estimate D2E/DX2                !
 ! A29   A(1,12,13)            112.6352         estimate D2E/DX2                !
 ! A30   A(1,12,32)            109.5434         estimate D2E/DX2                !
 ! A31   A(1,12,33)            110.7102         estimate D2E/DX2                !
 ! A32   A(13,12,32)           108.0534         estimate D2E/DX2                !
 ! A33   A(13,12,33)           108.1607         estimate D2E/DX2                !
 ! A34   A(32,12,33)           107.5732         estimate D2E/DX2                !
 ! A35   A(12,13,34)           111.5475         estimate D2E/DX2                !
 ! A36   A(12,13,35)           110.9215         estimate D2E/DX2                !
 ! A37   A(12,13,36)           110.0564         estimate D2E/DX2                !
 ! A38   A(34,13,35)           108.4214         estimate D2E/DX2                !
 ! A39   A(34,13,36)           107.7268         estimate D2E/DX2                !
 ! A40   A(35,13,36)           108.0422         estimate D2E/DX2                !
 ! A41   A(2,14,29)            111.7232         estimate D2E/DX2                !
 ! A42   A(2,14,30)            111.0807         estimate D2E/DX2                !
 ! A43   A(2,14,31)            111.6192         estimate D2E/DX2                !
 ! A44   A(29,14,30)           106.5636         estimate D2E/DX2                !
 ! A45   A(29,14,31)           108.0834         estimate D2E/DX2                !
 ! A46   A(30,14,31)           107.5306         estimate D2E/DX2                !
 ! A47   A(3,15,16)            129.4166         estimate D2E/DX2                !
 ! A48   A(15,16,17)           111.7305         estimate D2E/DX2                !
 ! A49   A(15,16,18)           113.1719         estimate D2E/DX2                !
 ! A50   A(15,16,19)           108.4853         estimate D2E/DX2                !
 ! A51   A(17,16,18)           109.0602         estimate D2E/DX2                !
 ! A52   A(17,16,19)           107.0635         estimate D2E/DX2                !
 ! A53   A(18,16,19)           107.0407         estimate D2E/DX2                !
 ! A54   A(16,17,26)           110.4942         estimate D2E/DX2                !
 ! A55   A(16,17,27)           111.3707         estimate D2E/DX2                !
 ! A56   A(16,17,28)           110.4072         estimate D2E/DX2                !
 ! A57   A(26,17,27)           108.3636         estimate D2E/DX2                !
 ! A58   A(26,17,28)           108.2197         estimate D2E/DX2                !
 ! A59   A(27,17,28)           107.8799         estimate D2E/DX2                !
 ! A60   A(16,18,20)           110.39           estimate D2E/DX2                !
 ! A61   A(16,18,21)           111.3844         estimate D2E/DX2                !
 ! A62   A(16,18,22)           110.6734         estimate D2E/DX2                !
 ! A63   A(20,18,21)           107.8308         estimate D2E/DX2                !
 ! A64   A(20,18,22)           108.0165         estimate D2E/DX2                !
 ! A65   A(21,18,22)           108.4293         estimate D2E/DX2                !
 ! A66   A(16,19,23)           110.4683         estimate D2E/DX2                !
 ! A67   A(16,19,24)           110.2792         estimate D2E/DX2                !
 ! A68   A(16,19,25)           110.3071         estimate D2E/DX2                !
 ! A69   A(23,19,24)           108.5926         estimate D2E/DX2                !
 ! A70   A(23,19,25)           108.5916         estimate D2E/DX2                !
 ! A71   A(24,19,25)           108.5459         estimate D2E/DX2                !
 ! A72   A(3,37,38)            114.1703         estimate D2E/DX2                !
 ! A73   A(3,37,40)            111.1764         estimate D2E/DX2                !
 ! A74   A(3,37,41)            109.3854         estimate D2E/DX2                !
 ! A75   A(38,37,40)           109.0918         estimate D2E/DX2                !
 ! A76   A(38,37,41)           106.0916         estimate D2E/DX2                !
 ! A77   A(40,37,41)           106.5317         estimate D2E/DX2                !
 ! A78   A(37,38,39)           124.2903         estimate D2E/DX2                !
 ! A79   A(37,38,42)           116.5375         estimate D2E/DX2                !
 ! A80   A(39,38,42)           119.1695         estimate D2E/DX2                !
 ! A81   A(38,39,43)           120.7058         estimate D2E/DX2                !
 ! A82   A(38,39,44)           122.0516         estimate D2E/DX2                !
 ! A83   A(43,39,44)           117.2407         estimate D2E/DX2                !
 ! D1    D(6,1,2,3)             78.1311         estimate D2E/DX2                !
 ! D2    D(6,1,2,7)           -164.9687         estimate D2E/DX2                !
 ! D3    D(6,1,2,14)           -49.0827         estimate D2E/DX2                !
 ! D4    D(10,1,2,3)           -40.6735         estimate D2E/DX2                !
 ! D5    D(10,1,2,7)            76.2267         estimate D2E/DX2                !
 ! D6    D(10,1,2,14)         -167.8873         estimate D2E/DX2                !
 ! D7    D(12,1,2,3)          -162.2913         estimate D2E/DX2                !
 ! D8    D(12,1,2,7)           -45.3911         estimate D2E/DX2                !
 ! D9    D(12,1,2,14)           70.4949         estimate D2E/DX2                !
 ! D10   D(2,1,10,5)            24.9885         estimate D2E/DX2                !
 ! D11   D(6,1,10,5)           -95.9286         estimate D2E/DX2                !
 ! D12   D(12,1,10,5)          149.5046         estimate D2E/DX2                !
 ! D13   D(2,1,12,13)         -176.849          estimate D2E/DX2                !
 ! D14   D(2,1,12,32)           62.8655         estimate D2E/DX2                !
 ! D15   D(2,1,12,33)          -55.6058         estimate D2E/DX2                !
 ! D16   D(6,1,12,13)          -56.0285         estimate D2E/DX2                !
 ! D17   D(6,1,12,32)         -176.314          estimate D2E/DX2                !
 ! D18   D(6,1,12,33)           65.2147         estimate D2E/DX2                !
 ! D19   D(10,1,12,13)          57.4396         estimate D2E/DX2                !
 ! D20   D(10,1,12,32)         -62.8459         estimate D2E/DX2                !
 ! D21   D(10,1,12,33)         178.6828         estimate D2E/DX2                !
 ! D22   D(1,2,3,4)             56.8376         estimate D2E/DX2                !
 ! D23   D(1,2,3,15)          -178.3157         estimate D2E/DX2                !
 ! D24   D(1,2,3,37)           -63.8901         estimate D2E/DX2                !
 ! D25   D(7,2,3,4)            -60.2346         estimate D2E/DX2                !
 ! D26   D(7,2,3,15)            64.6121         estimate D2E/DX2                !
 ! D27   D(7,2,3,37)           179.0377         estimate D2E/DX2                !
 ! D28   D(14,2,3,4)          -176.9461         estimate D2E/DX2                !
 ! D29   D(14,2,3,15)          -52.0994         estimate D2E/DX2                !
 ! D30   D(14,2,3,37)           62.3262         estimate D2E/DX2                !
 ! D31   D(1,2,14,29)          175.9342         estimate D2E/DX2                !
 ! D32   D(1,2,14,30)          -65.2192         estimate D2E/DX2                !
 ! D33   D(1,2,14,31)           54.7821         estimate D2E/DX2                !
 ! D34   D(3,2,14,29)           50.0598         estimate D2E/DX2                !
 ! D35   D(3,2,14,30)          168.9064         estimate D2E/DX2                !
 ! D36   D(3,2,14,31)          -71.0923         estimate D2E/DX2                !
 ! D37   D(7,2,14,29)          -67.3165         estimate D2E/DX2                !
 ! D38   D(7,2,14,30)           51.5301         estimate D2E/DX2                !
 ! D39   D(7,2,14,31)          171.5314         estimate D2E/DX2                !
 ! D40   D(2,3,4,5)            -57.4656         estimate D2E/DX2                !
 ! D41   D(2,3,4,8)             61.8198         estimate D2E/DX2                !
 ! D42   D(2,3,4,9)           -179.7932         estimate D2E/DX2                !
 ! D43   D(15,3,4,5)          -179.2271         estimate D2E/DX2                !
 ! D44   D(15,3,4,8)           -59.9417         estimate D2E/DX2                !
 ! D45   D(15,3,4,9)            58.4454         estimate D2E/DX2                !
 ! D46   D(37,3,4,5)            63.6745         estimate D2E/DX2                !
 ! D47   D(37,3,4,8)          -177.0401         estimate D2E/DX2                !
 ! D48   D(37,3,4,9)           -58.6531         estimate D2E/DX2                !
 ! D49   D(2,3,15,16)          -84.2399         estimate D2E/DX2                !
 ! D50   D(4,3,15,16)           36.1597         estimate D2E/DX2                !
 ! D51   D(37,3,15,16)         156.8704         estimate D2E/DX2                !
 ! D52   D(2,3,37,38)          177.0275         estimate D2E/DX2                !
 ! D53   D(2,3,37,40)           53.0865         estimate D2E/DX2                !
 ! D54   D(2,3,37,41)          -64.2881         estimate D2E/DX2                !
 ! D55   D(4,3,37,38)           58.2992         estimate D2E/DX2                !
 ! D56   D(4,3,37,40)          -65.6419         estimate D2E/DX2                !
 ! D57   D(4,3,37,41)          176.9835         estimate D2E/DX2                !
 ! D58   D(15,3,37,38)         -65.1347         estimate D2E/DX2                !
 ! D59   D(15,3,37,40)         170.9243         estimate D2E/DX2                !
 ! D60   D(15,3,37,41)          53.5496         estimate D2E/DX2                !
 ! D61   D(3,4,5,10)            41.8359         estimate D2E/DX2                !
 ! D62   D(3,4,5,11)          -144.6067         estimate D2E/DX2                !
 ! D63   D(8,4,5,10)           -80.7797         estimate D2E/DX2                !
 ! D64   D(8,4,5,11)            92.7777         estimate D2E/DX2                !
 ! D65   D(9,4,5,10)           165.4274         estimate D2E/DX2                !
 ! D66   D(9,4,5,11)           -21.0152         estimate D2E/DX2                !
 ! D67   D(4,5,10,1)           -25.1427         estimate D2E/DX2                !
 ! D68   D(11,5,10,1)          161.2407         estimate D2E/DX2                !
 ! D69   D(1,12,13,34)         -62.8491         estimate D2E/DX2                !
 ! D70   D(1,12,13,35)          58.1273         estimate D2E/DX2                !
 ! D71   D(1,12,13,36)         177.6359         estimate D2E/DX2                !
 ! D72   D(32,12,13,34)         58.2902         estimate D2E/DX2                !
 ! D73   D(32,12,13,35)        179.2665         estimate D2E/DX2                !
 ! D74   D(32,12,13,36)        -61.2249         estimate D2E/DX2                !
 ! D75   D(33,12,13,34)        174.4659         estimate D2E/DX2                !
 ! D76   D(33,12,13,35)        -64.5578         estimate D2E/DX2                !
 ! D77   D(33,12,13,36)         54.9508         estimate D2E/DX2                !
 ! D78   D(3,15,16,17)         -73.0856         estimate D2E/DX2                !
 ! D79   D(3,15,16,18)          50.4865         estimate D2E/DX2                !
 ! D80   D(3,15,16,19)         169.1196         estimate D2E/DX2                !
 ! D81   D(15,16,17,26)        -50.3809         estimate D2E/DX2                !
 ! D82   D(15,16,17,27)         70.1116         estimate D2E/DX2                !
 ! D83   D(15,16,17,28)       -170.0635         estimate D2E/DX2                !
 ! D84   D(18,16,17,26)       -176.2453         estimate D2E/DX2                !
 ! D85   D(18,16,17,27)        -55.7528         estimate D2E/DX2                !
 ! D86   D(18,16,17,28)         64.0721         estimate D2E/DX2                !
 ! D87   D(19,16,17,26)         68.2633         estimate D2E/DX2                !
 ! D88   D(19,16,17,27)       -171.2442         estimate D2E/DX2                !
 ! D89   D(19,16,17,28)        -51.4194         estimate D2E/DX2                !
 ! D90   D(15,16,18,20)        174.5319         estimate D2E/DX2                !
 ! D91   D(15,16,18,21)        -65.7074         estimate D2E/DX2                !
 ! D92   D(15,16,18,22)         54.9985         estimate D2E/DX2                !
 ! D93   D(17,16,18,20)        -60.4404         estimate D2E/DX2                !
 ! D94   D(17,16,18,21)         59.3202         estimate D2E/DX2                !
 ! D95   D(17,16,18,22)       -179.9738         estimate D2E/DX2                !
 ! D96   D(19,16,18,20)         55.0656         estimate D2E/DX2                !
 ! D97   D(19,16,18,21)        174.8263         estimate D2E/DX2                !
 ! D98   D(19,16,18,22)        -64.4678         estimate D2E/DX2                !
 ! D99   D(15,16,19,23)        179.5224         estimate D2E/DX2                !
 ! D100  D(15,16,19,24)        -60.4293         estimate D2E/DX2                !
 ! D101  D(15,16,19,25)         59.4575         estimate D2E/DX2                !
 ! D102  D(17,16,19,23)         58.7939         estimate D2E/DX2                !
 ! D103  D(17,16,19,24)        178.8421         estimate D2E/DX2                !
 ! D104  D(17,16,19,25)        -61.2711         estimate D2E/DX2                !
 ! D105  D(18,16,19,23)        -58.0375         estimate D2E/DX2                !
 ! D106  D(18,16,19,24)         62.0108         estimate D2E/DX2                !
 ! D107  D(18,16,19,25)       -178.1024         estimate D2E/DX2                !
 ! D108  D(3,37,38,39)        -116.9545         estimate D2E/DX2                !
 ! D109  D(3,37,38,42)          63.6588         estimate D2E/DX2                !
 ! D110  D(40,37,38,39)          8.0987         estimate D2E/DX2                !
 ! D111  D(40,37,38,42)       -171.288          estimate D2E/DX2                !
 ! D112  D(41,37,38,39)        122.5069         estimate D2E/DX2                !
 ! D113  D(41,37,38,42)        -56.8798         estimate D2E/DX2                !
 ! D114  D(37,38,39,43)       -179.7879         estimate D2E/DX2                !
 ! D115  D(37,38,39,44)          0.7337         estimate D2E/DX2                !
 ! D116  D(42,38,39,43)         -0.4163         estimate D2E/DX2                !
 ! D117  D(42,38,39,44)       -179.8947         estimate D2E/DX2                !
 --------------------------------------------------------------------------------
 Trust Radius=3.00D-01 FncErr=1.00D-07 GrdErr=1.00D-06
 Number of steps in this run=     25 maximum allowed number of steps=    264.
 GradGradGradGradGradGradGradGradGradGradGradGradGradGradGradGradGradGrad

                          Input orientation:                          
 ---------------------------------------------------------------------
 Center     Atomic      Atomic             Coordinates (Angstroms)
 Number     Number       Type             X           Y           Z
 ---------------------------------------------------------------------
      1          6           0       -0.013457    0.261872    0.989481
      2          6           0       -0.910931    1.370859    0.407998
      3          6           0       -2.196933    1.548095    1.264379
      4          6           0       -1.746442    1.847227    2.696919
      5          6           0       -0.865978    0.775735    3.258916
      6          1           0       -0.413132   -0.721572    0.713414
      7          1           0       -0.350595    2.312451    0.464486
      8          1           0       -1.168524    2.775834    2.756891
      9          1           0       -2.607695    1.980986    3.360773
     10          8           0        0.071549    0.266861    2.434338
     11          8           0       -0.907692    0.456934    4.442652
     12          6           0        1.430037    0.344698    0.457949
     13          6           0        2.308805   -0.792895    0.966447
     14          6           0       -1.201031    1.136529   -1.082973
     15          8           0       -3.036215    2.565647    0.673238
     16         14           0       -2.973311    4.226450    0.848143
     17          6           0       -3.587545    4.771753    2.538070
     18          6           0       -1.260184    4.934466    0.561286
     19          6           0       -4.119420    5.009110   -0.438390
     20          1           0       -1.289674    6.027956    0.591067
     21          1           0       -0.556292    4.597592    1.326947
     22          1           0       -0.876607    4.632867   -0.417862
     23          1           0       -4.109402    6.099030   -0.346888
     24          1           0       -3.795202    4.740899   -1.448047
     25          1           0       -5.145250    4.656723   -0.297287
     26          1           0       -4.558077    4.317251    2.757832
     27          1           0       -2.887177    4.486800    3.327458
     28          1           0       -3.704210    5.859281    2.568960
     29          1           0       -1.895394    1.881727   -1.482407
     30          1           0       -0.286165    1.211797   -1.678503
     31          1           0       -1.628681    0.144610   -1.259550
     32          1           0        1.883643    1.291996    0.774048
     33          1           0        1.441507    0.321707   -0.636001
     34          1           0        2.415514   -0.762534    2.055122
     35          1           0        1.890406   -1.764960    0.686881
     36          1           0        3.310385   -0.717000    0.531108
     37          6           0       -3.083753    0.253951    1.227079
     38          6           0       -4.316923    0.324872    2.093601
     39          6           0       -4.549449   -0.475280    3.141705
     40          1           0       -2.502335   -0.632195    1.503253
     41          1           0       -3.440830    0.086452    0.202964
     42          1           0       -5.057440    1.076693    1.825303
     43          1           0       -5.460491   -0.375305    3.724380
     44          1           0       -3.842557   -1.239477    3.451456
 ---------------------------------------------------------------------
                    Distance matrix (angstroms):
                    1          2          3          4          5
     1  C    0.000000
     2  C    1.540595   0.000000
     3  C    2.549021   1.555186   0.000000
     4  C    2.903779   2.482774   1.531206   0.000000
     5  C    2.478141   2.912718   2.519158   1.496380   0.000000
     6  H    1.096866   2.172407   2.938860   3.508666   2.987738
     7  H    2.143398   1.097161   2.152448   2.673683   3.230473
     8  H    3.282975   2.749110   2.189192   1.095398   2.084217
     9  H    3.912601   3.459789   2.179676   1.095605   2.120515
    10  O    1.447364   2.508014   2.855937   2.423138   1.348272
    11  O    3.572408   4.136871   3.599194   2.384114   1.226623
    12  C    1.540474   2.556488   3.905561   4.166605   3.647313
    13  C    2.550679   3.919234   5.086322   5.139047   4.218443
    14  C    2.543703   1.536900   2.582880   3.884604   4.369718
    15  O    3.813719   2.452489   1.445425   2.504980   3.820922
    16  Si   4.949605   3.549865   2.819504   3.253288   4.707453
    17  C    5.959132   4.823645   3.734710   3.459443   4.888221
    18  C    4.854978   3.583960   3.583203   3.785290   4.972690
    19  C    6.436926   4.924190   4.309757   5.045661   6.494338
    20  H    5.919053   4.676057   4.620132   4.703376   5.906163
    21  H    4.382582   3.373728   3.463387   3.295116   4.293600
    22  H    4.672391   3.365103   3.753534   4.268286   5.328816
    23  H    7.255002   5.758096   5.192757   5.738133   7.201326
    24  H    6.348608   4.808440   4.483940   5.454493   6.816038
    25  H    6.877920   5.405903   4.560147   5.330144   6.783864
    26  H    6.342455   5.244485   3.933653   3.742996   5.140527
    27  H    5.619112   4.705091   3.656326   2.943841   4.226340
    28  H    6.888207   5.711225   4.749752   4.466073   5.862938
    29  H    3.503691   2.191754   2.783356   4.182122   4.976250
    30  H    2.845148   2.183831   3.524867   4.656232   4.990435
    31  H    2.771433   2.190792   2.943280   4.308877   4.625643
    32  H    2.169460   2.819549   4.117901   4.145266   3.741859
    33  H    2.182359   2.779320   4.284124   4.857838   4.549836
    34  H    2.843396   4.281310   5.219095   4.954254   3.818846
    35  H    2.797197   4.214098   5.293031   5.505889   4.546223
    36  H    3.495171   4.711032   5.999908   6.069390   5.206842
    37  C    3.079486   2.576729   1.569283   2.547029   3.052728
    38  C    4.443295   3.941589   2.584229   3.047775   3.670185
    39  C    5.074513   4.911232   3.626669   3.667250   3.891881
    40  H    2.694036   2.782872   2.214497   2.853725   2.782496
    41  H    3.520833   2.844667   2.193235   3.491574   4.055098
    42  H    5.177287   4.391904   2.952856   3.509437   4.440065
    43  H    6.128283   5.894572   4.516844   4.448537   4.759317
    44  H    4.793472   4.966983   3.906654   3.806674   3.599746
                    6          7          8          9         10
     6  H    0.000000
     7  H    3.044860   0.000000
     8  H    4.120469   2.477671   0.000000
     9  H    4.373607   3.686848   1.751477   0.000000
    10  O    2.042913   2.871056   2.817227   3.312832   0.000000
    11  O    3.942167   4.424828   2.878736   2.526501   2.242402
    12  C    2.144637   2.653817   4.236517   5.235180   2.399513
    13  C    2.734603   4.119168   5.294651   6.131817   2.878038
    14  C    2.701912   2.121477   4.175276   4.736949   3.840216
    15  O    4.205709   2.705594   2.806075   2.783577   4.247833
    16  Si   5.572754   3.269438   3.000810   3.389556   5.240757
    17  C    6.601734   4.563525   3.143762   3.070069   5.804634
    18  C    5.721137   2.776992   3.080386   4.286719   5.202727
    19  C    6.921267   4.721355   4.889287   5.088073   6.950231
    20  H    6.807307   3.834432   3.909190   5.078033   6.200064
    21  H    5.356344   2.451126   2.395490   3.897606   4.513948
    22  H    5.492232   2.537628   3.689559   4.930235   5.300571
    23  H    7.829896   5.396771   5.415334   5.741094   7.696088
    24  H    6.778562   4.628224   5.333144   5.670277   7.074015
    25  H    7.234674   5.391162   5.355380   5.194243   7.344907
    26  H    6.837394   5.194378   3.723578   3.102525   6.159849
    27  H    6.330977   4.399847   2.491329   2.521572   5.230641
    28  H    7.588272   5.315595   3.996582   4.107370   6.749047
    29  H    3.714283   2.522364   4.393110   4.896286   4.670926
    30  H    3.078198   2.409978   4.785132   5.601380   4.235130
    31  H    2.473948   3.050465   4.823576   5.067359   4.068235
    32  H    3.055046   2.475677   3.930543   5.228573   2.662921
    33  H    2.519730   2.895818   4.934239   5.926504   3.362555
    34  H    3.130990   4.431367   5.085062   5.870626   2.587978
    35  H    2.528962   4.657985   5.853273   6.435427   3.238849
    36  H    3.727980   4.752345   6.100379   7.092940   3.883339
    37  C    2.889241   3.505585   3.516862   2.786024   3.378398
    38  C    4.270778   4.726124   4.044698   2.696275   4.402062
    39  C    4.802747   5.706954   4.706217   3.138733   4.733367
    40  H    2.235308   3.792092   3.868504   3.207834   2.880989
    41  H    3.174967   3.817462   4.349562   3.775597   4.165139
    42  H    5.102906   5.053050   4.344952   3.029301   5.228124
    43  H    5.887415   6.630383   5.411718   3.717898   5.716647
    44  H    4.418830   5.807924   4.873971   3.450288   4.315531
                   11         12         13         14         15
    11  O    0.000000
    12  C    4.621194   0.000000
    13  C    4.898155   1.524769   0.000000
    14  C    5.574982   3.150231   4.499083   0.000000
    15  O    4.815160   4.992632   6.319416   2.914542   0.000000
    16  Si   5.603260   5.883003   7.287563   4.051888   1.671172
    17  C    5.424639   7.007271   8.258465   5.658821   2.940828
    18  C    5.936122   5.321084   6.760510   4.139011   2.962790
    19  C    7.406894   7.304563   8.772623   4.891765   2.894747
    20  H    6.783576   6.301902   7.721008   5.170718   3.878755
    21  H    5.193857   4.773654   6.115234   4.266422   3.272026
    22  H    6.408118   4.947327   6.442209   3.573794   3.182421
    23  H    8.063739   8.027794   9.508778   5.798867   3.831081
    24  H    7.835203   7.089607   8.585544   4.455837   3.131714
    25  H    7.619852   7.899262   9.319780   5.344711   3.124507
    26  H    5.573686   7.545074   8.745097   6.011533   3.119249
    27  H    4.626212   6.635467   7.774817   5.789586   3.279928
    28  H    6.365264   7.824799   9.109108   6.473554   3.858498
    29  H    6.173485   4.145592   5.552097   1.094078   2.532987
    30  H    6.198762   2.874306   4.212887   1.094213   3.863466
    31  H    5.756082   3.513630   4.619283   1.094517   3.402682
    32  H    4.684820   1.096837   2.136481   3.603874   5.083046
    33  H    5.597297   1.094252   2.135974   2.801201   5.176811
    34  H    4.269789   2.179011   1.094313   5.151066   6.535116
    35  H    5.183819   2.171407   1.094589   4.594345   6.559416
    36  H    5.871156   2.160616   1.094734   5.137480   7.146699
    37  C    3.887975   4.579748   5.499409   3.108042   2.377591
    38  C    4.142262   5.975224   6.813234   4.523073   2.945966
    39  C    3.977924   6.605238   7.201963   5.626521   4.198862
    40  H    3.516981   4.184559   4.843661   3.392689   3.346662
    41  H    4.952676   4.884368   5.866384   2.788009   2.555637
    42  H    4.945202   6.670295   7.648174   4.830480   2.762171
    43  H    4.683643   7.659462   8.254849   6.598430   4.882190
    44  H    3.531814   6.266653   6.649358   5.760565   4.779922
                   16         17         18         19         20
    16  Si   0.000000
    17  C    1.878960   0.000000
    18  C    1.875734   3.057901   0.000000
    19  C    1.892430   3.032910   3.029877   0.000000
    20  H    2.479142   3.263292   1.094293   3.178882   0.000000
    21  H    2.491783   3.268891   1.093245   3.997705   1.767855
    22  H    2.482763   4.013229   1.093995   3.264631   1.770547
    23  H    2.495067   3.218226   3.209211   1.093800   2.972487
    24  H    2.492519   3.991642   3.240556   1.093829   3.477380
    25  H    2.492883   3.237117   3.988487   1.093807   4.187472
    26  H    2.483272   1.093983   4.010220   3.299534   4.278299
    27  H    2.494435   1.093091   3.240250   3.996604   3.523494
    28  H    2.482249   1.094204   3.295345   3.152673   3.125779
    29  H    3.477225   5.232577   3.728188   3.977033   4.675190
    30  H    4.763699   6.430543   4.452374   5.536363   5.417875
    31  H    4.786629   6.298374   5.137505   5.526431   6.176849
    32  H    5.675078   6.719701   4.816275   7.164057   5.703748
    33  H    6.077855   7.427584   5.478154   7.275624   6.444092
    34  H    7.442190   8.179137   6.942486   9.068343   7.872905
    35  H    7.718727   8.727168   7.404343   9.125364   8.417341
    36  H    8.001440   9.040782   7.268430   9.430284   8.164470
    37  C    3.992059   4.731072   5.067140   5.143727   6.079668
    38  C    4.310310   4.528167   5.739338   5.328421   6.629254
    39  C    5.463598   5.368518   6.836898   6.563577   7.708694
    40  H    4.925182   5.608135   5.780827   6.181364   6.830830
    41  H    4.215971   5.237012   5.327931   5.010427   6.330842
    42  H    3.901206   4.040061   5.558714   4.633367   6.343060
    43  H    5.969502   5.604236   7.472711   6.936790   8.259244
    44  H    6.116305   6.085572   7.289671   7.365622   8.216728
                   21         22         23         24         25
    21  H    0.000000
    22  H    1.774318   0.000000
    23  H    4.204834   3.550441   0.000000
    24  H    4.267513   3.096958   1.776455   0.000000
    25  H    4.868282   4.270412   1.776426   1.775940   0.000000
    26  H    4.259144   4.872152   3.607677   4.295448   3.129499
    27  H    3.073653   4.253369   4.194513   4.867702   4.273938
    28  H    3.611626   4.291915   2.953613   4.170780   3.426093
    29  H    4.130567   3.120890   4.896619   3.432975   4.434713
    30  H    4.535340   3.693448   6.346289   4.982069   6.114408
    31  H    5.260136   4.628013   6.514756   5.084803   5.800980
    32  H    4.145593   4.494558   7.764062   7.005849   7.866034
    33  H    5.111512   4.899728   8.017084   6.900130   7.892557
    34  H    6.171938   6.787051   9.768584   9.007384   9.595172
    35  H    6.846757   7.057550   9.945286   8.900014   9.576380
    36  H    6.620381   6.859484  10.113475   9.175788  10.052905
    37  C    5.026455   5.172256   6.139566   5.272112   5.094886
    38  C    5.743365   6.058221   6.272157   5.684783   5.016712
    39  C    6.706167   7.228655   7.455567   6.988794   6.206376
    40  H    5.582906   5.835628   7.163454   6.265127   6.180582
    41  H    5.471223   5.256477   6.074572   4.951292   4.903333
    42  H    5.736325   5.929378   5.553473   5.072915   4.162897
    43  H    7.384345   7.953109   7.766446   7.463426   6.449379
    44  H    7.027407   7.632359   8.267545   7.731253   7.107409
                   26         27         28         29         30
    26  H    0.000000
    27  H    1.773451   0.000000
    28  H    1.772743   1.768210   0.000000
    29  H    5.567880   5.559212   5.958718   0.000000
    30  H    6.897401   6.523079   7.164013   1.754103   0.000000
    31  H    6.490890   6.440425   7.184899   1.771546   1.765434
    32  H    7.388053   6.283900   7.436794   4.440776   3.275592
    33  H    7.967276   7.196840   8.210658   3.779547   2.205430
    34  H    8.656153   7.569206   9.031250   6.171722   5.013682
    35  H    9.103025   8.299545   9.642147   5.686512   4.381048
    36  H    9.602847   8.562061   9.828777   6.156928   4.640885
    37  C    4.585547   4.729402   5.797011   3.376857   4.145645
    38  C    4.054436   4.570363   5.588476   4.590799   5.591280
    39  C    4.807888   5.236401   6.416317   5.829400   6.652535
    40  H    5.504276   5.447930   6.687264   3.949981   4.293633
    41  H    5.067075   5.425132   6.244426   2.907208   3.841644
    42  H    3.408840   4.312232   5.025675   4.646242   5.921146
    43  H    4.875310   5.515393   6.579482   6.701846   7.647463
    44  H    5.645379   5.806753   7.154740   6.154377   6.706202
                   31         32         33         34         35
    31  H    0.000000
    32  H    4.217634   0.000000
    33  H    3.137870   1.767819   0.000000
    34  H    5.307115   2.478937   3.060459   0.000000
    35  H    4.451856   3.058206   2.511117   1.775579   0.000000
    36  H    5.323833   2.476020   2.435931   1.767904   1.771673
    37  C    2.883143   5.094880   4.894245   5.653391   5.395375
    38  C    4.301484   6.412766   6.372617   6.819798   6.699044
    39  C    5.318477   7.079106   7.127258   7.055061   7.011503
    40  H    2.999963   4.844693   4.586963   4.950433   4.609316
    41  H    2.329423   5.489033   4.959478   6.200648   5.664272
    42  H    4.705474   7.023541   6.990303   7.699391   7.592336
    43  H    6.308141   8.088304   8.193676   8.060262   8.074232
    44  H    5.386142   6.809276   6.860462   6.429672   6.386382
                   36         37         38         39         40
    36  H    0.000000
    37  C    6.504777   0.000000
    38  C    7.855107   1.508840   0.000000
    39  C    8.285568   2.519094   1.338967   0.000000
    40  H    5.894062   1.095251   2.134764   2.626751   0.000000
    41  H    6.806770   1.097439   2.097353   3.190733   1.757264
    42  H    8.655216   2.220409   1.088845   2.097520   3.090724
    43  H    9.340343   3.504477   2.111264   1.086049   3.708111
    44  H    7.743771   2.784594   2.125084   1.086112   2.441410
                   41         42         43         44
    41  H    0.000000
    42  H    2.495193   0.000000
    43  H    4.085660   2.424302   0.000000
    44  H    3.531596   3.079766   1.854452   0.000000
 Stoichiometry    C14H26O3Si
 Framework group  C1[X(C14H26O3Si)]
 Deg. of freedom   126
 Full point group                 C1      NOp   1
 Largest Abelian subgroup         C1      NOp   1
 Largest concise Abelian subgroup C1      NOp   1
                         Standard orientation:                         
 ---------------------------------------------------------------------
 Center     Atomic      Atomic             Coordinates (Angstroms)
 Number     Number       Type             X           Y           Z
 ---------------------------------------------------------------------
      1          6           0       -2.253633   -0.643460   -0.320386
      2          6           0       -0.771873   -0.973151   -0.583300
      3          6           0        0.116872    0.290114   -0.401929
      4          6           0       -0.126396    0.812062    1.016868
      5          6           0       -1.566954    1.122571    1.276733
      6          1           0       -2.681175   -0.135570   -1.193525
      7          1           0       -0.457010   -1.703236    0.172743
      8          1           0        0.166789    0.079352    1.776522
      9          1           0        0.469577    1.710069    1.213717
     10          8           0       -2.471916    0.242443    0.803175
     11          8           0       -1.909759    2.061957    1.987116
     12          6           0       -3.092629   -1.908826   -0.059622
     13          6           0       -4.574677   -1.602297    0.126101
     14          6           0       -0.580901   -1.660349   -1.944679
     15          8           0        1.493576   -0.040214   -0.693174
     16         14           0        2.656366   -0.713405    0.300581
     17          6           0        3.273936    0.515767    1.580517
     18          6           0        2.070894   -2.266140    1.175002
     19          6           0        4.143702   -1.202806   -0.762249
     20          1           0        2.893461   -2.721593    1.734845
     21          1           0        1.266277   -2.046308    1.881720
     22          1           0        1.705224   -3.001715    0.452480
     23          1           0        4.930273   -1.640636   -0.140951
     24          1           0        3.845659   -1.937004   -1.516295
     25          1           0        4.550578   -0.325235   -1.272871
     26          1           0        3.559697    1.456748    1.101251
     27          1           0        2.507235    0.729790    2.329658
     28          1           0        4.150010    0.117000    2.100864
     29          1           0        0.476555   -1.831755   -2.166970
     30          1           0       -1.066246   -2.640878   -1.962123
     31          1           0       -1.007457   -1.066808   -2.759373
     32          1           0       -2.732225   -2.407337    0.848478
     33          1           0       -2.992007   -2.617257   -0.887503
     34          1           0       -4.747931   -0.972845    1.004335
     35          1           0       -4.980963   -1.090369   -0.751958
     36          1           0       -5.135619   -2.531875    0.266359
     37          6           0       -0.242825    1.391114   -1.460732
     38          6           0        0.531192    2.676608   -1.302611
     39          6           0       -0.024018    3.861311   -1.017912
     40          1           0       -1.314924    1.614875   -1.450244
     41          1           0       -0.011422    1.018491   -2.466702
     42          1           0        1.609247    2.615748   -1.442890
     43          1           0        0.589477    4.752154   -0.920319
     44          1           0       -1.093560    3.975270   -0.867138
 ---------------------------------------------------------------------
 Rotational constants (GHZ):      0.4775549      0.2801517      0.2314653
 Standard basis: 6-31G(d,p) (6D, 7F)
 There are   404 symmetry adapted cartesian basis functions of A   symmetry.
 There are   404 symmetry adapted basis functions of A   symmetry.
   404 basis functions,   710 primitive gaussians,   404 cartesian basis functions
    74 alpha electrons       74 beta electrons
       nuclear repulsion energy      1630.6647844179 Hartrees.
 NAtoms=   44 NActive=   44 NUniq=   44 SFac= 1.00D+00 NAtFMM=   60 NAOKFM=F Big=F
 Integral buffers will be    131072 words long.
 Raffenetti 2 integral format.
 Two-electron integral symmetry is turned on.
 ------------------------------------------------------------------------------
 Polarizable Continuum Model (PCM)
 =================================
 Model                : PCM (using non-symmetric T matrix).
 Atomic radii         : UFF (Universal Force Field).
 Polarization charges : Total charges.
 Charge compensation  : None.
 Solution method      : On-the-fly selection.
 Cavity type          : Scaled VdW (van der Waals Surface) (Alpha=1.100).
 Cavity algorithm     : GePol (No added spheres)
                        Default sphere list used, NSphG=   44.
                        Lebedev-Laikov grids with approx.  5.0 points / Ang**2.
                        Smoothing algorithm: Karplus/York (Gamma=1.0000).
                        Polarization charges: spherical gaussians, with
                                              point-specific exponents (IZeta= 3).
                        Self-potential: point-specific (ISelfS= 7).
                        Self-field    : sphere-specific E.n sum rule (ISelfD= 2).
 1st derivatives      : Analytical E(r).r(x)/FMM algorithm (CHGder, D1EAlg=3).
                        Cavity 1st derivative terms included.
 Solvent              : Chloroform, Eps=   4.711300 Eps(inf)=   2.090627
 ------------------------------------------------------------------------------
 One-electron integrals computed using PRISM.
 NBasis=   404 RedAO= T EigKep=  1.92D-03  NBF=   404
 NBsUse=   404 1.00D-06 EigRej= -1.00D+00 NBFU=   404
 ExpMin= 7.78D-02 ExpMax= 1.61D+04 ExpMxC= 2.43D+03 IAcc=2 IRadAn=         4 AccDes= 0.00D+00
 Harris functional with IExCor=  402 and IRadAn=       4 diagonalized for initial guess.
 HarFok:  IExCor=  402 AccDes= 0.00D+00 IRadAn=         4 IDoV= 1 UseB2=F ITyADJ=14
 ICtDFT=  3500011 ScaDFX=  1.000000  1.000000  1.000000  1.000000
 FoFCou: FMM=F IPFlag=           0 FMFlag=      100000 FMFlg1=           0
         NFxFlg=           0 DoJE=T BraDBF=F KetDBF=T FulRan=T
         wScrn=  0.000000 ICntrl=     500 IOpCl=  0 I1Cent=   200000004 NGrid=           0
         NMat0=    1 NMatS0=      1 NMatT0=    0 NMatD0=    1 NMtDS0=    0 NMtDT0=    0
 Petite list used in FoFCou.
 Requested convergence on RMS density matrix=1.00D-08 within 128 cycles.
 Requested convergence on MAX density matrix=1.00D-06.
 Requested convergence on             energy=1.00D-06.
 No special actions if energy rises.
 Inv3:  Mode=1 IEnd=    25491675.
 Iteration    1 A*A^-1 deviation from unit magnitude is 4.66D-15 for   2908.
 Iteration    1 A*A^-1 deviation from orthogonality  is 4.26D-15 for   2911   1724.
 Iteration    1 A^-1*A deviation from unit magnitude is 4.44D-15 for   2899.
 Iteration    1 A^-1*A deviation from orthogonality  is 1.92D-12 for   2483   2465.
 Error on total polarization charges =  0.00937
 SCF Done:  E(RB3LYP) =  -1064.41807574     A.U. after   13 cycles
            NFock= 13  Conv=0.58D-08     -V/T= 2.0081

 **********************************************************************

            Population analysis using the SCF density.

 **********************************************************************

 Orbital symmetries:
       Occupied  (A) (A) (A) (A) (A) (A) (A) (A) (A) (A) (A) (A)
                 (A) (A) (A) (A) (A) (A) (A) (A) (A) (A) (A) (A)
                 (A) (A) (A) (A) (A) (A) (A) (A) (A) (A) (A) (A)
                 (A) (A) (A) (A) (A) (A) (A) (A) (A) (A) (A) (A)
                 (A) (A) (A) (A) (A) (A) (A) (A) (A) (A) (A) (A)
                 (A) (A) (A) (A) (A) (A) (A) (A) (A) (A) (A) (A)
                 (A) (A)
       Virtual   (A) (A) (A) (A) (A) (A) (A) (A) (A) (A) (A) (A)
                 (A) (A) (A) (A) (A) (A) (A) (A) (A) (A) (A) (A)
                 (A) (A) (A) (A) (A) (A) (A) (A) (A) (A) (A) (A)
                 (A) (A) (A) (A) (A) (A) (A) (A) (A) (A) (A) (A)
                 (A) (A) (A) (A) (A) (A) (A) (A) (A) (A) (A) (A)
                 (A) (A) (A) (A) (A) (A) (A) (A) (A) (A) (A) (A)
                 (A) (A) (A) (A) (A) (A) (A) (A) (A) (A) (A) (A)
                 (A) (A) (A) (A) (A) (A) (A) (A) (A) (A) (A) (A)
                 (A) (A) (A) (A) (A) (A) (A) (A) (A) (A) (A) (A)
                 (A) (A) (A) (A) (A) (A) (A) (A) (A) (A) (A) (A)
                 (A) (A) (A) (A) (A) (A) (A) (A) (A) (A) (A) (A)
                 (A) (A) (A) (A) (A) (A) (A) (A) (A) (A) (A) (A)
                 (A) (A) (A) (A) (A) (A) (A) (A) (A) (A) (A) (A)
                 (A) (A) (A) (A) (A) (A) (A) (A) (A) (A) (A) (A)
                 (A) (A) (A) (A) (A) (A) (A) (A) (A) (A) (A) (A)
                 (A) (A) (A) (A) (A) (A) (A) (A) (A) (A) (A) (A)
                 (A) (A) (A) (A) (A) (A) (A) (A) (A) (A) (A) (A)
                 (A) (A) (A) (A) (A) (A) (A) (A) (A) (A) (A) (A)
                 (A) (A) (A) (A) (A) (A) (A) (A) (A) (A) (A) (A)
                 (A) (A) (A) (A) (A) (A) (A) (A) (A) (A) (A) (A)
                 (A) (A) (A) (A) (A) (A) (A) (A) (A) (A) (A) (A)
                 (A) (A) (A) (A) (A) (A) (A) (A) (A) (A) (A) (A)
                 (A) (A) (A) (A) (A) (A) (A) (A) (A) (A) (A) (A)
                 (A) (A) (A) (A) (A) (A) (A) (A) (A) (A) (A) (A)
                 (A) (A) (A) (A) (A) (A) (A) (A) (A) (A) (A) (A)
                 (A) (A) (A) (A) (A) (A) (A) (A) (A) (A) (A) (A)
                 (A) (A) (A) (A) (A) (A) (A) (A) (A) (A) (A) (A)
                 (A) (A) (A) (A) (A) (A)
 The electronic state is 1-A.
 Alpha  occ. eigenvalues --  -66.13968 -19.19333 -19.14446 -19.13551 -10.32372
 Alpha  occ. eigenvalues --  -10.26642 -10.25750 -10.20223 -10.20066 -10.19200
 Alpha  occ. eigenvalues --  -10.19046 -10.18968 -10.18120 -10.17861 -10.17412
 Alpha  occ. eigenvalues --  -10.16032 -10.15809 -10.15656  -5.28132  -3.64189
 Alpha  occ. eigenvalues --   -3.63956  -3.63919  -1.09917  -1.01466  -1.00729
 Alpha  occ. eigenvalues --   -0.83075  -0.80609  -0.77650  -0.75283  -0.71504
 Alpha  occ. eigenvalues --   -0.69872  -0.69423  -0.67804  -0.67400  -0.64013
 Alpha  occ. eigenvalues --   -0.61685  -0.59444  -0.56397  -0.54188  -0.51517
 Alpha  occ. eigenvalues --   -0.50528  -0.47995  -0.47187  -0.46480  -0.45632
 Alpha  occ. eigenvalues --   -0.44408  -0.43448  -0.42939  -0.42337  -0.41529
 Alpha  occ. eigenvalues --   -0.40886  -0.40647  -0.40272  -0.39826  -0.39521
 Alpha  occ. eigenvalues --   -0.39060  -0.38697  -0.37967  -0.37899  -0.37003
 Alpha  occ. eigenvalues --   -0.36483  -0.36217  -0.35172  -0.34899  -0.34524
 Alpha  occ. eigenvalues --   -0.34115  -0.32478  -0.31773  -0.30607  -0.29522
 Alpha  occ. eigenvalues --   -0.28557  -0.27144  -0.26536  -0.25387
 Alpha virt. eigenvalues --   -0.00267   0.01609   0.06614   0.07043   0.08797
 Alpha virt. eigenvalues --    0.09593   0.09736   0.10832   0.10990   0.11448
 Alpha virt. eigenvalues --    0.12417   0.12783   0.13303   0.13575   0.13960
 Alpha virt. eigenvalues --    0.14393   0.15034   0.15757   0.16740   0.16895
 Alpha virt. eigenvalues --    0.16983   0.17436   0.18346   0.18807   0.18988
 Alpha virt. eigenvalues --    0.19501   0.19810   0.20302   0.20632   0.20969
 Alpha virt. eigenvalues --    0.21455   0.22012   0.22401   0.23036   0.23787
 Alpha virt. eigenvalues --    0.24508   0.25614   0.25986   0.27634   0.28423
 Alpha virt. eigenvalues --    0.29249   0.30200   0.31635   0.35594   0.36301
 Alpha virt. eigenvalues --    0.37698   0.38713   0.39177   0.40599   0.44643
 Alpha virt. eigenvalues --    0.46534   0.46702   0.48535   0.49686   0.50361
 Alpha virt. eigenvalues --    0.51757   0.52679   0.53571   0.54566   0.55591
 Alpha virt. eigenvalues --    0.57140   0.57774   0.59054   0.60200   0.60615
 Alpha virt. eigenvalues --    0.60785   0.62378   0.63342   0.64344   0.65457
 Alpha virt. eigenvalues --    0.66057   0.66415   0.67424   0.68433   0.68719
 Alpha virt. eigenvalues --    0.69532   0.70875   0.71877   0.72808   0.73298
 Alpha virt. eigenvalues --    0.74372   0.75585   0.75857   0.77281   0.78292
 Alpha virt. eigenvalues --    0.78696   0.79574   0.79992   0.80959   0.82759
 Alpha virt. eigenvalues --    0.83983   0.84285   0.84734   0.85413   0.86145
 Alpha virt. eigenvalues --    0.86656   0.87133   0.87750   0.88500   0.88694
 Alpha virt. eigenvalues --    0.89307   0.89434   0.89931   0.90526   0.91143
 Alpha virt. eigenvalues --    0.91851   0.92180   0.92972   0.93207   0.93831
 Alpha virt. eigenvalues --    0.94447   0.95742   0.96043   0.96979   0.97507
 Alpha virt. eigenvalues --    0.98036   0.99320   0.99631   1.00601   1.01728
 Alpha virt. eigenvalues --    1.02439   1.03179   1.04439   1.05700   1.08001
 Alpha virt. eigenvalues --    1.10729   1.11998   1.12823   1.16606   1.17821
 Alpha virt. eigenvalues --    1.18991   1.20840   1.21314   1.22478   1.24971
 Alpha virt. eigenvalues --    1.26888   1.28968   1.30488   1.31117   1.35097
 Alpha virt. eigenvalues --    1.36077   1.37285   1.38880   1.41112   1.43125
 Alpha virt. eigenvalues --    1.44500   1.45022   1.46969   1.47330   1.48237
 Alpha virt. eigenvalues --    1.48580   1.51058   1.52417   1.53387   1.56391
 Alpha virt. eigenvalues --    1.58712   1.61381   1.63076   1.64109   1.64791
 Alpha virt. eigenvalues --    1.66788   1.66986   1.69373   1.69814   1.71645
 Alpha virt. eigenvalues --    1.74522   1.75331   1.77537   1.78117   1.79334
 Alpha virt. eigenvalues --    1.81110   1.81725   1.83653   1.84396   1.85897
 Alpha virt. eigenvalues --    1.86918   1.87447   1.88424   1.89560   1.90013
 Alpha virt. eigenvalues --    1.92082   1.92976   1.94950   1.96160   1.97515
 Alpha virt. eigenvalues --    1.98189   1.99871   2.00262   2.01091   2.02516
 Alpha virt. eigenvalues --    2.04185   2.04557   2.04821   2.05326   2.05763
 Alpha virt. eigenvalues --    2.05950   2.06589   2.07819   2.08339   2.08569
 Alpha virt. eigenvalues --    2.08990   2.10717   2.10868   2.11503   2.11624
 Alpha virt. eigenvalues --    2.12063   2.13021   2.13318   2.13653   2.14180
 Alpha virt. eigenvalues --    2.14246   2.15505   2.16198   2.16915   2.17287
 Alpha virt. eigenvalues --    2.18518   2.20559   2.23639   2.25622   2.27073
 Alpha virt. eigenvalues --    2.28330   2.29042   2.29928   2.31665   2.33424
 Alpha virt. eigenvalues --    2.34367   2.34966   2.35289   2.36179   2.36566
 Alpha virt. eigenvalues --    2.37524   2.38192   2.38987   2.39544   2.41366
 Alpha virt. eigenvalues --    2.43275   2.44186   2.46543   2.48433   2.50161
 Alpha virt. eigenvalues --    2.52377   2.53616   2.55354   2.57358   2.57564
 Alpha virt. eigenvalues --    2.59277   2.62520   2.62986   2.63761   2.64243
 Alpha virt. eigenvalues --    2.64982   2.67034   2.68302   2.68614   2.69703
 Alpha virt. eigenvalues --    2.71989   2.73018   2.74192   2.75402   2.76339
 Alpha virt. eigenvalues --    2.77157   2.78894   2.79137   2.80584   2.81404
 Alpha virt. eigenvalues --    2.81590   2.83013   2.84156   2.84962   2.85344
 Alpha virt. eigenvalues --    2.85542   2.86040   2.87202   2.89259   2.90289
 Alpha virt. eigenvalues --    2.90914   2.92050   2.92508   2.94114   2.95592
 Alpha virt. eigenvalues --    2.96737   2.98797   3.03247   3.06780   3.11761
 Alpha virt. eigenvalues --    3.17210   3.19396   3.20407   3.20617   3.21391
 Alpha virt. eigenvalues --    3.21580   3.22940   3.25557   3.28594   3.32184
 Alpha virt. eigenvalues --    3.32999   3.34816   3.40500   3.43261   3.43486
 Alpha virt. eigenvalues --    3.44264   3.44341   3.44852   3.45064   3.45556
 Alpha virt. eigenvalues --    3.46145   3.47198   3.47876   3.48891   3.52640
 Alpha virt. eigenvalues --    3.54628   3.56440   3.67049   4.02571   4.14328
 Alpha virt. eigenvalues --    4.19366   4.26239   4.34453   4.38959   4.45080
 Alpha virt. eigenvalues --    4.45888   4.47994   4.51976   4.53919   4.60049
 Alpha virt. eigenvalues --    4.64505   4.65276   4.73501   4.77986   4.82002
          Condensed to atoms (all electrons):
               1          2          3          4          5          6
     1  C    4.793715   0.331504  -0.029197  -0.010828  -0.006711   0.382855
     2  C    0.331504   5.091867   0.330515  -0.052755  -0.017502  -0.046514
     3  C   -0.029197   0.330515   4.845974   0.294031  -0.012953  -0.010509
     4  C   -0.010828  -0.052755   0.294031   5.340970   0.286581   0.001107
     5  C   -0.006711  -0.017502  -0.012953   0.286581   4.363825  -0.001334
     6  H    0.382855  -0.046514  -0.010509   0.001107  -0.001334   0.637084
     7  H   -0.040941   0.377566  -0.042380  -0.007307   0.000723   0.006590
     8  H   -0.000068  -0.006625  -0.027837   0.362642  -0.026036   0.000032
     9  H    0.000166   0.005688  -0.029769   0.355497  -0.020524   0.000050
    10  O    0.167307  -0.026486   0.001687  -0.097851   0.255097  -0.042955
    11  O    0.001735   0.000002   0.001410  -0.082476   0.576214   0.000093
    12  C    0.379523  -0.035394   0.004826  -0.000813   0.001236  -0.052636
    13  C   -0.038920   0.004223  -0.000091  -0.000007   0.000110  -0.006205
    14  C   -0.035478   0.349099  -0.030866   0.005281   0.000433  -0.004881
    15  O    0.002634  -0.040295   0.183617  -0.026268   0.001432  -0.000047
    16  Si   0.000553  -0.005245  -0.011435   0.002562  -0.000542  -0.000069
    17  C    0.000001  -0.000111  -0.002227  -0.000158   0.000107   0.000000
    18  C    0.000030  -0.000955  -0.000927  -0.002409  -0.000025  -0.000001
    19  C    0.000000  -0.000086   0.001018  -0.000062   0.000000   0.000000
    20  H   -0.000001   0.000098   0.000000   0.000040   0.000001   0.000000
    21  H   -0.000015  -0.001197   0.000493  -0.001161  -0.000032   0.000000
    22  H    0.000006  -0.000712  -0.000368   0.000147   0.000004   0.000000
    23  H    0.000000   0.000001  -0.000012   0.000002   0.000000   0.000000
    24  H    0.000000  -0.000009  -0.000043   0.000003   0.000000   0.000000
    25  H    0.000000   0.000003  -0.000040  -0.000004   0.000000   0.000000
    26  H    0.000000   0.000001   0.000023  -0.000242  -0.000002   0.000000
    27  H    0.000000  -0.000020  -0.000154   0.000307   0.000003   0.000000
    28  H    0.000000   0.000001   0.000044   0.000030  -0.000001   0.000000
    29  H    0.003609  -0.025708  -0.007894   0.000217  -0.000019  -0.000037
    30  H   -0.003556  -0.028879   0.004324  -0.000126  -0.000012  -0.000172
    31  H   -0.006482  -0.033960  -0.006965   0.000056  -0.000013   0.006471
    32  H   -0.032016  -0.007626  -0.000148   0.000002   0.000166   0.006118
    33  H   -0.030978  -0.003822   0.000024   0.000034  -0.000036  -0.000281
    34  H   -0.007809   0.000154  -0.000005   0.000041   0.000244   0.000073
    35  H   -0.005226   0.000087  -0.000002   0.000001  -0.000018   0.005752
    36  H    0.004099  -0.000105   0.000002   0.000001  -0.000003  -0.000052
    37  C   -0.001982  -0.055670   0.348164  -0.071506   0.002120   0.003649
    38  C   -0.000003   0.004947  -0.037424  -0.008314  -0.000789  -0.000013
    39  C   -0.000027  -0.000004  -0.002987  -0.000573   0.000790   0.000000
    40  H    0.002807  -0.004679  -0.026422  -0.004349   0.003672   0.000434
    41  H   -0.000276  -0.007450  -0.028365   0.005854  -0.000136   0.000108
    42  H    0.000002   0.000023  -0.003499  -0.000477   0.000061   0.000001
    43  H    0.000000   0.000003  -0.000045  -0.000056  -0.000001   0.000000
    44  H   -0.000012  -0.000010   0.000022  -0.000074   0.000631   0.000012
               7          8          9         10         11         12
     1  C   -0.040941  -0.000068   0.000166   0.167307   0.001735   0.379523
     2  C    0.377566  -0.006625   0.005688  -0.026486   0.000002  -0.035394
     3  C   -0.042380  -0.027837  -0.029769   0.001687   0.001410   0.004826
     4  C   -0.007307   0.362642   0.355497  -0.097851  -0.082476  -0.000813
     5  C    0.000723  -0.026036  -0.020524   0.255097   0.576214   0.001236
     6  H    0.006590   0.000032   0.000050  -0.042955   0.000093  -0.052636
     7  H    0.641199   0.003668   0.000037   0.000128  -0.000007  -0.009928
     8  H    0.003668   0.561748  -0.028291   0.000761  -0.000078  -0.000022
     9  H    0.000037  -0.028291   0.556613   0.003159   0.001573   0.000007
    10  O    0.000128   0.000761   0.003159   8.336125  -0.075732  -0.045539
    11  O   -0.000007  -0.000078   0.001573  -0.075732   8.079318  -0.000063
    12  C   -0.009928  -0.000022   0.000007  -0.045539  -0.000063   4.938900
    13  C    0.000084   0.000001   0.000000  -0.003433  -0.000007   0.361542
    14  C   -0.043771   0.000052  -0.000130   0.002300   0.000002  -0.004987
    15  O   -0.002449  -0.003476   0.000127  -0.000015  -0.000013  -0.000033
    16  Si  -0.002068   0.004719   0.000405  -0.000111  -0.000051  -0.000039
    17  C   -0.000021  -0.001562  -0.000710   0.000000   0.000000   0.000000
    18  C    0.001800  -0.000059   0.000123   0.000003   0.000000  -0.000006
    19  C   -0.000009   0.000000  -0.000005   0.000000   0.000000   0.000000
    20  H    0.000053  -0.000012   0.000000   0.000000   0.000000   0.000000
    21  H    0.002018   0.003023  -0.000009  -0.000003   0.000000   0.000000
    22  H    0.001143  -0.000102   0.000000   0.000000   0.000000   0.000001
    23  H    0.000000   0.000001   0.000000   0.000000   0.000000   0.000000
    24  H   -0.000007   0.000000   0.000000   0.000000   0.000000   0.000000
    25  H    0.000000   0.000001  -0.000001   0.000000   0.000000   0.000000
    26  H    0.000001   0.000050   0.000524   0.000000   0.000000   0.000000
    27  H   -0.000011   0.000823   0.000835   0.000000  -0.000002   0.000000
    28  H    0.000002   0.000036   0.000043   0.000000   0.000000   0.000000
    29  H   -0.002299   0.000006  -0.000005  -0.000045   0.000000   0.000068
    30  H   -0.005881  -0.000006   0.000003  -0.000006   0.000000   0.000893
    31  H    0.005722   0.000002   0.000004   0.000020   0.000000  -0.000407
    32  H    0.006771   0.000051   0.000001  -0.000492  -0.000013   0.376462
    33  H    0.000059  -0.000002   0.000000   0.002989   0.000001   0.378141
    34  H    0.000001  -0.000001   0.000000   0.008249   0.000011  -0.033029
    35  H    0.000017   0.000000   0.000000  -0.000331   0.000000  -0.037619
    36  H   -0.000007   0.000000   0.000000   0.000126   0.000000  -0.028050
    37  C    0.005620   0.005598  -0.009430  -0.003003   0.000434   0.000030
    38  C   -0.000119   0.000193   0.010898   0.000072  -0.000313  -0.000002
    39  C   -0.000001   0.000029   0.004103  -0.000007  -0.000094   0.000000
    40  H   -0.000015  -0.000027   0.000205   0.001321  -0.000419   0.000149
    41  H   -0.000026  -0.000128   0.000156   0.000048   0.000000  -0.000022
    42  H    0.000001  -0.000006   0.000349  -0.000001   0.000000   0.000000
    43  H    0.000000   0.000000   0.000064   0.000000   0.000004   0.000000
    44  H    0.000000   0.000004   0.000013  -0.000036   0.000505   0.000000
              13         14         15         16         17         18
     1  C   -0.038920  -0.035478   0.002634   0.000553   0.000001   0.000030
     2  C    0.004223   0.349099  -0.040295  -0.005245  -0.000111  -0.000955
     3  C   -0.000091  -0.030866   0.183617  -0.011435  -0.002227  -0.000927
     4  C   -0.000007   0.005281  -0.026268   0.002562  -0.000158  -0.002409
     5  C    0.000110   0.000433   0.001432  -0.000542   0.000107  -0.000025
     6  H   -0.006205  -0.004881  -0.000047  -0.000069   0.000000  -0.000001
     7  H    0.000084  -0.043771  -0.002449  -0.002068  -0.000021   0.001800
     8  H    0.000001   0.000052  -0.003476   0.004719  -0.001562  -0.000059
     9  H    0.000000  -0.000130   0.000127   0.000405  -0.000710   0.000123
    10  O   -0.003433   0.002300  -0.000015  -0.000111   0.000000   0.000003
    11  O   -0.000007   0.000002  -0.000013  -0.000051   0.000000   0.000000
    12  C    0.361542  -0.004987  -0.000033  -0.000039   0.000000  -0.000006
    13  C    4.933171   0.000058   0.000000   0.000003   0.000000   0.000000
    14  C    0.000058   4.969582  -0.006071   0.001135   0.000002  -0.000110
    15  O    0.000000  -0.006071   8.305087   0.331034  -0.016897  -0.015241
    16  Si   0.000003   0.001135   0.331034  11.848666   0.370880   0.367646
    17  C    0.000000   0.000002  -0.016897   0.370880   5.141414  -0.034930
    18  C    0.000000  -0.000110  -0.015241   0.367646  -0.034930   5.148322
    19  C    0.000000  -0.000028  -0.018902   0.378933  -0.032968  -0.031736
    20  H    0.000000  -0.000004   0.000530  -0.013963  -0.000236   0.371161
    21  H    0.000000  -0.000005  -0.000484  -0.028914  -0.001493   0.374495
    22  H    0.000000   0.000472  -0.000427  -0.027432   0.001331   0.378207
    23  H    0.000000   0.000000   0.000480  -0.014980  -0.000573  -0.000689
    24  H    0.000000  -0.000015  -0.000386  -0.025368   0.001383  -0.001250
    25  H    0.000000  -0.000001  -0.000414  -0.024594  -0.001257   0.001389
    26  H    0.000000   0.000000  -0.000577  -0.025739   0.379025   0.001288
    27  H    0.000000   0.000000  -0.000428  -0.026743   0.375336  -0.001634
    28  H    0.000000   0.000000   0.000562  -0.013516   0.369483  -0.000089
    29  H    0.000001   0.380269   0.007374   0.003442   0.000010  -0.000312
    30  H   -0.000142   0.378390   0.000173  -0.000191   0.000000   0.000000
    31  H   -0.000020   0.382551  -0.000037  -0.000284   0.000000   0.000006
    32  H   -0.040736   0.000028  -0.000001  -0.000046   0.000000  -0.000008
    33  H   -0.037066   0.000547   0.000000  -0.000003   0.000000   0.000000
    34  H    0.389136  -0.000008   0.000000   0.000000   0.000000   0.000000
    35  H    0.386263  -0.000008   0.000000   0.000000   0.000000   0.000000
    36  H    0.380168  -0.000002   0.000000   0.000000   0.000000   0.000000
    37  C    0.000000  -0.009612  -0.063766  -0.002284   0.000033  -0.000057
    38  C    0.000000   0.000093   0.001514   0.001207  -0.000152   0.000004
    39  C    0.000000   0.000000   0.000363   0.000115  -0.000009   0.000000
    40  H    0.000003   0.000157   0.003507   0.000161   0.000000   0.000002
    41  H    0.000000   0.002100  -0.000403   0.000518   0.000002  -0.000001
    42  H    0.000000  -0.000003   0.004327   0.001779  -0.000056   0.000003
    43  H    0.000000   0.000000   0.000003   0.000008   0.000000   0.000000
    44  H    0.000000   0.000000  -0.000001   0.000011   0.000000   0.000000
              19         20         21         22         23         24
     1  C    0.000000  -0.000001  -0.000015   0.000006   0.000000   0.000000
     2  C   -0.000086   0.000098  -0.001197  -0.000712   0.000001  -0.000009
     3  C    0.001018   0.000000   0.000493  -0.000368  -0.000012  -0.000043
     4  C   -0.000062   0.000040  -0.001161   0.000147   0.000002   0.000003
     5  C    0.000000   0.000001  -0.000032   0.000004   0.000000   0.000000
     6  H    0.000000   0.000000   0.000000   0.000000   0.000000   0.000000
     7  H   -0.000009   0.000053   0.002018   0.001143   0.000000  -0.000007
     8  H    0.000000  -0.000012   0.003023  -0.000102   0.000001   0.000000
     9  H   -0.000005   0.000000  -0.000009   0.000000   0.000000   0.000000
    10  O    0.000000   0.000000  -0.000003   0.000000   0.000000   0.000000
    11  O    0.000000   0.000000   0.000000   0.000000   0.000000   0.000000
    12  C    0.000000   0.000000   0.000000   0.000001   0.000000   0.000000
    13  C    0.000000   0.000000   0.000000   0.000000   0.000000   0.000000
    14  C   -0.000028  -0.000004  -0.000005   0.000472   0.000000  -0.000015
    15  O   -0.018902   0.000530  -0.000484  -0.000427   0.000480  -0.000386
    16  Si   0.378933  -0.013963  -0.028914  -0.027432  -0.014980  -0.025368
    17  C   -0.032968  -0.000236  -0.001493   0.001331  -0.000573   0.001383
    18  C   -0.031736   0.371161   0.374495   0.378207  -0.000689  -0.001250
    19  C    5.117514  -0.001018   0.001480  -0.001114   0.373703   0.375457
    20  H   -0.001018   0.564829  -0.022605  -0.022776   0.000120  -0.000034
    21  H    0.001480  -0.022605   0.582238  -0.023739   0.000001   0.000003
    22  H   -0.001114  -0.022776  -0.023739   0.574365  -0.000045   0.000627
    23  H    0.373703   0.000120   0.000001  -0.000045   0.566752  -0.023504
    24  H    0.375457  -0.000034   0.000003   0.000627  -0.023504   0.578108
    25  H    0.376309   0.000013  -0.000028   0.000003  -0.023526  -0.022040
    26  H   -0.000986   0.000014   0.000005  -0.000024  -0.000022   0.000001
    27  H    0.001439  -0.000028   0.000633   0.000007   0.000000  -0.000028
    28  H   -0.000956   0.000021  -0.000024   0.000004   0.000043   0.000018
    29  H   -0.000150   0.000003   0.000000   0.000239   0.000001   0.000258
    30  H    0.000000   0.000000   0.000001   0.000087   0.000000   0.000000
    31  H    0.000001   0.000000   0.000000  -0.000006   0.000000  -0.000001
    32  H    0.000000   0.000000   0.000022   0.000002   0.000000   0.000000
    33  H    0.000000   0.000000   0.000000   0.000000   0.000000   0.000000
    34  H    0.000000   0.000000   0.000000   0.000000   0.000000   0.000000
    35  H    0.000000   0.000000   0.000000   0.000000   0.000000   0.000000
    36  H    0.000000   0.000000   0.000000   0.000000   0.000000   0.000000
    37  C   -0.000007   0.000001  -0.000005  -0.000005   0.000000  -0.000002
    38  C   -0.000014   0.000000   0.000000   0.000000   0.000000   0.000000
    39  C    0.000000   0.000000   0.000000   0.000000   0.000000   0.000000
    40  H    0.000000   0.000000   0.000000   0.000000   0.000000   0.000000
    41  H   -0.000010   0.000000   0.000000   0.000000   0.000000   0.000000
    42  H   -0.000034   0.000000   0.000000   0.000000   0.000000  -0.000001
    43  H    0.000000   0.000000   0.000000   0.000000   0.000000   0.000000
    44  H    0.000000   0.000000   0.000000   0.000000   0.000000   0.000000
              25         26         27         28         29         30
     1  C    0.000000   0.000000   0.000000   0.000000   0.003609  -0.003556
     2  C    0.000003   0.000001  -0.000020   0.000001  -0.025708  -0.028879
     3  C   -0.000040   0.000023  -0.000154   0.000044  -0.007894   0.004324
     4  C   -0.000004  -0.000242   0.000307   0.000030   0.000217  -0.000126
     5  C    0.000000  -0.000002   0.000003  -0.000001  -0.000019  -0.000012
     6  H    0.000000   0.000000   0.000000   0.000000  -0.000037  -0.000172
     7  H    0.000000   0.000001  -0.000011   0.000002  -0.002299  -0.005881
     8  H    0.000001   0.000050   0.000823   0.000036   0.000006  -0.000006
     9  H   -0.000001   0.000524   0.000835   0.000043  -0.000005   0.000003
    10  O    0.000000   0.000000   0.000000   0.000000  -0.000045  -0.000006
    11  O    0.000000   0.000000  -0.000002   0.000000   0.000000   0.000000
    12  C    0.000000   0.000000   0.000000   0.000000   0.000068   0.000893
    13  C    0.000000   0.000000   0.000000   0.000000   0.000001  -0.000142
    14  C   -0.000001   0.000000   0.000000   0.000000   0.380269   0.378390
    15  O   -0.000414  -0.000577  -0.000428   0.000562   0.007374   0.000173
    16  Si  -0.024594  -0.025739  -0.026743  -0.013516   0.003442  -0.000191
    17  C   -0.001257   0.379025   0.375336   0.369483   0.000010   0.000000
    18  C    0.001389   0.001288  -0.001634  -0.000089  -0.000312   0.000000
    19  C    0.376309  -0.000986   0.001439  -0.000956  -0.000150   0.000000
    20  H    0.000013   0.000014  -0.000028   0.000021   0.000003   0.000000
    21  H   -0.000028   0.000005   0.000633  -0.000024   0.000000   0.000001
    22  H    0.000003  -0.000024   0.000007   0.000004   0.000239   0.000087
    23  H   -0.023526  -0.000022   0.000000   0.000043   0.000001   0.000000
    24  H   -0.022040   0.000001  -0.000028   0.000018   0.000258   0.000000
    25  H    0.574357   0.000537   0.000007  -0.000054  -0.000003   0.000000
    26  H    0.000537   0.571397  -0.022790  -0.023234   0.000000   0.000000
    27  H    0.000007  -0.022790   0.581667  -0.023453   0.000000   0.000000
    28  H   -0.000054  -0.023234  -0.023453   0.571070   0.000000   0.000000
    29  H   -0.000003   0.000000   0.000000   0.000000   0.564870  -0.029217
    30  H    0.000000   0.000000   0.000000   0.000000  -0.029217   0.601122
    31  H    0.000000   0.000000   0.000000   0.000000  -0.027585  -0.031502
    32  H    0.000000   0.000000   0.000000   0.000000  -0.000021   0.000304
    33  H    0.000000   0.000000   0.000000   0.000000  -0.000020   0.002945
    34  H    0.000000   0.000000   0.000000   0.000000   0.000000   0.000000
    35  H    0.000000   0.000000   0.000000   0.000000   0.000000   0.000014
    36  H    0.000000   0.000000   0.000000   0.000000   0.000000   0.000005
    37  C    0.000006   0.000009   0.000010   0.000001  -0.000239   0.000074
    38  C   -0.000005   0.000089  -0.000036   0.000001  -0.000041  -0.000001
    39  C    0.000000   0.000007  -0.000006   0.000000   0.000000   0.000000
    40  H    0.000000   0.000000   0.000000   0.000000   0.000033  -0.000017
    41  H   -0.000001   0.000000  -0.000001   0.000000   0.000788  -0.000055
    42  H    0.000012   0.000268  -0.000012   0.000000   0.000000   0.000000
    43  H    0.000000  -0.000001   0.000000   0.000000   0.000000   0.000000
    44  H    0.000000   0.000000   0.000000   0.000000   0.000000   0.000000
              31         32         33         34         35         36
     1  C   -0.006482  -0.032016  -0.030978  -0.007809  -0.005226   0.004099
     2  C   -0.033960  -0.007626  -0.003822   0.000154   0.000087  -0.000105
     3  C   -0.006965  -0.000148   0.000024  -0.000005  -0.000002   0.000002
     4  C    0.000056   0.000002   0.000034   0.000041   0.000001   0.000001
     5  C   -0.000013   0.000166  -0.000036   0.000244  -0.000018  -0.000003
     6  H    0.006471   0.006118  -0.000281   0.000073   0.005752  -0.000052
     7  H    0.005722   0.006771   0.000059   0.000001   0.000017  -0.000007
     8  H    0.000002   0.000051  -0.000002  -0.000001   0.000000   0.000000
     9  H    0.000004   0.000001   0.000000   0.000000   0.000000   0.000000
    10  O    0.000020  -0.000492   0.002989   0.008249  -0.000331   0.000126
    11  O    0.000000  -0.000013   0.000001   0.000011   0.000000   0.000000
    12  C   -0.000407   0.376462   0.378141  -0.033029  -0.037619  -0.028050
    13  C   -0.000020  -0.040736  -0.037066   0.389136   0.386263   0.380168
    14  C    0.382551   0.000028   0.000547  -0.000008  -0.000008  -0.000002
[...]
    13  C    0.000000   0.000000   0.000000   0.000000   0.000000   0.000000
    14  C   -0.000054  -0.000003  -0.000008   0.000273   0.000000  -0.000029
    15  O   -0.024817   0.000532  -0.000590  -0.000492   0.000678  -0.000613
    16  Si   0.381804  -0.013931  -0.026606  -0.025021  -0.015202  -0.024110
    17  C   -0.029011  -0.000253  -0.001122   0.001198  -0.000218   0.001180
    18  C   -0.028030   0.368694   0.376320   0.378029  -0.000381  -0.001301
    19  C    5.112595  -0.000662   0.001208  -0.001151   0.368501   0.377152
    20  H   -0.000662   0.569631  -0.023474  -0.023648   0.000074  -0.000020
    21  H    0.001208  -0.023474   0.576316  -0.023713  -0.000002   0.000006
    22  H   -0.001151  -0.023648  -0.023713   0.572245  -0.000050   0.000534
    23  H    0.368501   0.000074  -0.000002  -0.000050   0.576038  -0.024043
    24  H    0.377152  -0.000020   0.000006   0.000534  -0.024043   0.572725
    25  H    0.377420   0.000007  -0.000021   0.000000  -0.024050  -0.022457
    26  H   -0.001069   0.000010   0.000000  -0.000021  -0.000038   0.000000
    27  H    0.001193  -0.000030   0.000423   0.000004   0.000002  -0.000021
    28  H   -0.000583   0.000062  -0.000030   0.000003   0.000006   0.000008
    29  H   -0.000128   0.000003   0.000002   0.000082   0.000002   0.000497
    30  H    0.000000   0.000000   0.000000   0.000059   0.000000  -0.000001
    31  H    0.000002   0.000000   0.000000  -0.000002   0.000000  -0.000001
    32  H    0.000000   0.000000   0.000007   0.000001   0.000000   0.000000
    33  H    0.000000   0.000000   0.000000   0.000000   0.000000   0.000000
    34  H    0.000000   0.000000   0.000000   0.000000   0.000000   0.000000
    35  H    0.000000   0.000000   0.000000   0.000000   0.000000   0.000000
    36  H    0.000000   0.000000   0.000000   0.000000   0.000000   0.000000
    37  C   -0.000011   0.000001  -0.000004  -0.000004   0.000000  -0.000002
    38  C   -0.000036   0.000000   0.000000   0.000000   0.000000   0.000000
    39  C    0.000000   0.000000   0.000000   0.000000   0.000000   0.000000
    40  H    0.000000   0.000000   0.000000   0.000000   0.000000   0.000000
    41  H   -0.000012   0.000000   0.000000   0.000000   0.000000   0.000000
    42  H   -0.000065   0.000000   0.000000   0.000000   0.000000  -0.000001
    43  H    0.000000   0.000000   0.000000   0.000000   0.000000   0.000000
    44  H    0.000000   0.000000   0.000000   0.000000   0.000000   0.000000
              25         26         27         28         29         30
     1  C    0.000000   0.000000   0.000000   0.000000   0.003880  -0.003116
     2  C    0.000003   0.000000  -0.000011   0.000001  -0.029700  -0.027406
     3  C   -0.000047  -0.000021  -0.000062   0.000022  -0.008849   0.004019
     4  C   -0.000006  -0.000126   0.000396   0.000027   0.000310  -0.000129
     5  C    0.000000  -0.000001  -0.000014   0.000000  -0.000023  -0.000010
     6  H    0.000000   0.000000   0.000000   0.000000  -0.000023  -0.000149
     7  H    0.000000   0.000001  -0.000008   0.000001  -0.001577  -0.006386
     8  H    0.000001   0.000056   0.000551   0.000030   0.000007  -0.000004
     9  H    0.000000   0.000294   0.000649   0.000025  -0.000007   0.000003
    10  O    0.000000   0.000000   0.000000   0.000000  -0.000047  -0.000016
    11  O    0.000000   0.000000   0.000000   0.000000   0.000000   0.000000
    12  C    0.000000   0.000000   0.000000   0.000000   0.000078   0.000600
    13  C    0.000000   0.000000   0.000000   0.000000   0.000001  -0.000102
    14  C    0.000000   0.000000   0.000000   0.000000   0.379443   0.379498
    15  O   -0.000546  -0.000661  -0.000506   0.000568   0.009933   0.000118
    16  Si  -0.022971  -0.024942  -0.023611  -0.014003   0.003152  -0.000126
    17  C   -0.001245   0.379060   0.376729   0.367705   0.000011   0.000000
    18  C    0.001186   0.001178  -0.001307  -0.000129  -0.000266  -0.000003
    19  C    0.377420  -0.001069   0.001193  -0.000583  -0.000128   0.000000
    20  H    0.000007   0.000010  -0.000030   0.000062   0.000003   0.000000
    21  H   -0.000021   0.000000   0.000423  -0.000030   0.000002   0.000000
    22  H    0.000000  -0.000021   0.000004   0.000003   0.000082   0.000059
    23  H   -0.024050  -0.000038   0.000002   0.000006   0.000002   0.000000
    24  H   -0.022457   0.000000  -0.000021   0.000008   0.000497  -0.000001
    25  H    0.569828   0.000444   0.000006  -0.000029  -0.000007   0.000000
    26  H    0.000444   0.570632  -0.023244  -0.023860   0.000000   0.000000
    27  H    0.000006  -0.023244   0.573257  -0.023879   0.000000   0.000000
    28  H   -0.000029  -0.023860  -0.023879   0.574341   0.000000   0.000000
    29  H   -0.000007   0.000000   0.000000   0.000000   0.565110  -0.027467
    30  H    0.000000   0.000000   0.000000   0.000000  -0.027467   0.596229
    31  H    0.000000   0.000000   0.000000   0.000000  -0.027791  -0.031938
    32  H    0.000000   0.000000   0.000000   0.000000  -0.000021   0.000315
    33  H    0.000000   0.000000   0.000000   0.000000  -0.000017   0.002480
    34  H    0.000000   0.000000   0.000000   0.000000   0.000000   0.000000
    35  H    0.000000   0.000000   0.000000   0.000000   0.000000   0.000012
    36  H    0.000000   0.000000   0.000000   0.000000   0.000000   0.000003
    37  C    0.000009   0.000010   0.000009   0.000000  -0.000573   0.000132
    38  C   -0.000015   0.000128  -0.000032   0.000002  -0.000061  -0.000001
    39  C    0.000000   0.000010  -0.000006   0.000000   0.000000   0.000000
    40  H    0.000000   0.000000   0.000000   0.000000   0.000046  -0.000013
    41  H   -0.000002   0.000001   0.000000   0.000000   0.001186  -0.000094
    42  H    0.000094   0.000397  -0.000011   0.000001   0.000000   0.000000
    43  H    0.000000  -0.000001   0.000000   0.000000   0.000000   0.000000
    44  H    0.000000   0.000000   0.000000   0.000000   0.000000   0.000000
              31         32         33         34         35         36
     1  C   -0.006919  -0.033949  -0.034317  -0.008087  -0.004699   0.003861
     2  C   -0.034071  -0.007418  -0.004219   0.000161   0.000067  -0.000099
     3  C   -0.006151  -0.000150   0.000010  -0.000005  -0.000001   0.000001
     4  C    0.000019   0.000000   0.000042   0.000045   0.000001   0.000001
     5  C   -0.000008   0.000338  -0.000047   0.000324  -0.000013  -0.000002
     6  H    0.007073   0.006363  -0.000395   0.000098   0.005333  -0.000039
     7  H    0.005470   0.006900   0.000079   0.000001   0.000014  -0.000005
     8  H    0.000002   0.000027  -0.000004  -0.000001   0.000000   0.000000
     9  H    0.000004   0.000001   0.000000   0.000000   0.000000   0.000000
    10  O    0.000031  -0.000516   0.003411   0.009176  -0.000253   0.000127
    11  O    0.000000  -0.000034   0.000001   0.000022   0.000000   0.000000
    12  C   -0.000591   0.375791   0.374863  -0.033637  -0.036156  -0.027241
    13  C   -0.000028  -0.038088  -0.035425   0.388619   0.385626   0.380504
    14  C    0.382795  -0.000078   0.001336  -0.000008  -0.000011  -0.000001
    15  O    0.000049  -0.000002   0.000000   0.000000   0.000000   0.000000
    16  Si  -0.000230  -0.000030  -0.000002   0.000000   0.000000   0.000000
    17  C    0.000000   0.000000   0.000000   0.000000   0.000000   0.000000
    18  C    0.000004  -0.000004   0.000000   0.000000   0.000000   0.000000
    19  C    0.000002   0.000000   0.000000   0.000000   0.000000   0.000000
    20  H    0.000000   0.000000   0.000000   0.000000   0.000000   0.000000
    21  H    0.000000   0.000007   0.000000   0.000000   0.000000   0.000000
    22  H   -0.000002   0.000001   0.000000   0.000000   0.000000   0.000000
    23  H    0.000000   0.000000   0.000000   0.000000   0.000000   0.000000
    24  H   -0.000001   0.000000   0.000000   0.000000   0.000000   0.000000
    25  H    0.000000   0.000000   0.000000   0.000000   0.000000   0.000000
    26  H    0.000000   0.000000   0.000000   0.000000   0.000000   0.000000
    27  H    0.000000   0.000000   0.000000   0.000000   0.000000   0.000000
    28  H    0.000000   0.000000   0.000000   0.000000   0.000000   0.000000
    29  H   -0.027791  -0.000021  -0.000017   0.000000   0.000000   0.000000
    30  H   -0.031938   0.000315   0.002480   0.000000   0.000012   0.000003
    31  H    0.595168   0.000062   0.000497   0.000001   0.000000   0.000000
    32  H    0.000062   0.616330  -0.032228  -0.003759   0.005147  -0.003153
    33  H    0.000497  -0.032228   0.615137   0.005000  -0.004226  -0.003475
    34  H    0.000001  -0.003759   0.005000   0.576542  -0.030568  -0.029974
    35  H    0.000000   0.005147  -0.004226  -0.030568   0.604104  -0.031234
    36  H    0.000000  -0.003153  -0.003475  -0.029974  -0.031234   0.603694
    37  C    0.002001   0.000009  -0.000004   0.000000  -0.000001   0.000000
    38  C   -0.000045   0.000000   0.000000   0.000000   0.000000   0.000000
    39  C    0.000000   0.000000   0.000000   0.000000   0.000000   0.000000
    40  H    0.000043  -0.000004  -0.000003   0.000000  -0.000005   0.000000
    41  H    0.002133   0.000000  -0.000001   0.000000   0.000000   0.000000
    42  H    0.000003   0.000000   0.000000   0.000000   0.000000   0.000000
    43  H    0.000000   0.000000   0.000000   0.000000   0.000000   0.000000
    44  H    0.000000   0.000000   0.000000   0.000000   0.000000   0.000000
              37         38         39         40         41         42
     1  C   -0.001349  -0.000025  -0.000020   0.002286  -0.000478   0.000002
     2  C   -0.056678   0.005058  -0.000031  -0.004181  -0.009170   0.000044
     3  C    0.347005  -0.036272  -0.002111  -0.025812  -0.032168  -0.004781
     4  C   -0.071570  -0.009431  -0.000567  -0.004844   0.006380  -0.000364
     5  C    0.001870  -0.000300   0.000296   0.002528  -0.000111   0.000031
     6  H    0.004534  -0.000017   0.000002  -0.000252   0.000114   0.000001
     7  H    0.005905  -0.000125   0.000000  -0.000059  -0.000006   0.000000
     8  H    0.005615   0.000151   0.000009   0.000034  -0.000163  -0.000002
     9  H   -0.009810   0.011567   0.004343   0.000165   0.000207   0.000292
    10  O   -0.003107   0.000047  -0.000007   0.002477   0.000064  -0.000001
    11  O    0.000174  -0.000076  -0.000027  -0.000319   0.000001   0.000000
    12  C   -0.000034  -0.000002   0.000000   0.000171  -0.000022   0.000000
    13  C    0.000000   0.000000   0.000000   0.000004   0.000000   0.000000
    14  C   -0.009832   0.000071   0.000002   0.000104   0.003258  -0.000005
    15  O   -0.065998   0.001187   0.000468   0.003542  -0.000290   0.005130
    16  Si  -0.001900   0.001232   0.000128   0.000119   0.000464   0.002096
    17  C    0.000030  -0.000177  -0.000011   0.000000   0.000001  -0.000073
    18  C   -0.000060   0.000004   0.000000   0.000001   0.000000   0.000005
    19  C   -0.000011  -0.000036   0.000000   0.000000  -0.000012  -0.000065
    20  H    0.000001   0.000000   0.000000   0.000000   0.000000   0.000000
    21  H   -0.000004   0.000000   0.000000   0.000000   0.000000   0.000000
    22  H   -0.000004   0.000000   0.000000   0.000000   0.000000   0.000000
    23  H    0.000000   0.000000   0.000000   0.000000   0.000000   0.000000
    24  H   -0.000002   0.000000   0.000000   0.000000   0.000000  -0.000001
    25  H    0.000009  -0.000015   0.000000   0.000000  -0.000002   0.000094
    26  H    0.000010   0.000128   0.000010   0.000000   0.000001   0.000397
    27  H    0.000009  -0.000032  -0.000006   0.000000   0.000000  -0.000011
    28  H    0.000000   0.000002   0.000000   0.000000   0.000000   0.000001
    29  H   -0.000573  -0.000061   0.000000   0.000046   0.001186   0.000000
    30  H    0.000132  -0.000001   0.000000  -0.000013  -0.000094   0.000000
    31  H    0.002001  -0.000045   0.000000   0.000043   0.002133   0.000003
    32  H    0.000009   0.000000   0.000000  -0.000004   0.000000   0.000000
    33  H   -0.000004   0.000000   0.000000  -0.000003  -0.000001   0.000000
    34  H    0.000000   0.000000   0.000000   0.000000   0.000000   0.000000
    35  H   -0.000001   0.000000   0.000000  -0.000005   0.000000   0.000000
    36  H    0.000000   0.000000   0.000000   0.000000   0.000000   0.000000
    37  C    5.064208   0.385977  -0.040808   0.362306   0.367656  -0.049784
    38  C    0.385977   4.765531   0.655331  -0.038561  -0.032879   0.385429
    39  C   -0.040808   0.655331   4.933892  -0.006014   0.001028  -0.045770
    40  H    0.362306  -0.038561  -0.006014   0.619080  -0.030764   0.005182
    41  H    0.367656  -0.032879   0.001028  -0.030764   0.604379  -0.002167
    42  H   -0.049784   0.385429  -0.045770   0.005182  -0.002167   0.600833
    43  H    0.004681  -0.025971   0.376578   0.000090  -0.000213  -0.007953
    44  H   -0.012037  -0.034140   0.381728   0.006184   0.000182   0.005610
              43         44
     1  C    0.000000  -0.000006
     2  C    0.000003  -0.000010
     3  C   -0.000046   0.000060
     4  C   -0.000050  -0.000026
     5  C   -0.000003   0.000207
     6  H    0.000000   0.000004
     7  H    0.000000   0.000000
     8  H    0.000000   0.000001
     9  H    0.000064   0.000020
    10  O    0.000000  -0.000012
    11  O    0.000000   0.000034
    12  C    0.000000   0.000000
    13  C    0.000000   0.000000
    14  C    0.000000   0.000000
    15  O    0.000003  -0.000002
    16  Si   0.000012   0.000011
    17  C    0.000000   0.000000
    18  C    0.000000   0.000000
    19  C    0.000000   0.000000
    20  H    0.000000   0.000000
    21  H    0.000000   0.000000
    22  H    0.000000   0.000000
    23  H    0.000000   0.000000
    24  H    0.000000   0.000000
    25  H    0.000000   0.000000
    26  H   -0.000001   0.000000
    27  H    0.000000   0.000000
    28  H    0.000000   0.000000
    29  H    0.000000   0.000000
    30  H    0.000000   0.000000
    31  H    0.000000   0.000000
    32  H    0.000000   0.000000
    33  H    0.000000   0.000000
    34  H    0.000000   0.000000
    35  H    0.000000   0.000000
    36  H    0.000000   0.000000
    37  C    0.004681  -0.012037
    38  C   -0.025971  -0.034140
    39  C    0.376578   0.381728
    40  H    0.000090   0.006184
    41  H   -0.000213   0.000182
    42  H   -0.007953   0.005610
    43  H    0.591379  -0.043458
    44  H   -0.043458   0.591848
 Mulliken charges:
               1
     1  C    0.179321
     2  C   -0.096910
     3  C    0.309967
     4  C   -0.298878
     5  C    0.589415
     6  H    0.112795
     7  H    0.101767
     8  H    0.149329
     9  H    0.148301
    10  O   -0.486362
    11  O   -0.499713
    12  C   -0.187927
    13  C   -0.328539
    14  C   -0.339782
    15  O   -0.653846
    16  Si   0.917056
    17  C   -0.549228
    18  C   -0.557403
    19  C   -0.535120
    20  H    0.122927
    21  H    0.118620
    22  H    0.121316
    23  H    0.118696
    24  H    0.120560
    25  H    0.122400
    26  H    0.121761
    27  H    0.119525
    28  H    0.119711
    29  H    0.132815
    30  H    0.113493
    31  H    0.112419
    32  H    0.108142
    33  H    0.111506
    34  H    0.126053
    35  H    0.106865
    36  H    0.107035
    37  C   -0.228563
    38  C   -0.033552
    39  C   -0.258442
    40  H    0.106468
    41  H    0.121486
    42  H    0.105826
    43  H    0.104885
    44  H    0.103803
 Sum of Mulliken charges =   0.00000
 Mulliken charges with hydrogens summed into heavy atoms:
               1
     1  C    0.292116
     2  C    0.004857
     3  C    0.309967
     4  C   -0.001248
     5  C    0.589415
    10  O   -0.486362
    11  O   -0.499713
    12  C    0.031720
    13  C    0.011416
    14  C    0.018945
    15  O   -0.653846
    16  Si   0.917056
    17  C   -0.188230
    18  C   -0.194540
    19  C   -0.173464
    37  C   -0.000609
    38  C    0.072274
    39  C   -0.049753
 Electronic spatial extent (au):  <R**2>=           5543.7649
 Charge=              0.0000 electrons
 Dipole moment (field-independent basis, Debye):
    X=              2.2234    Y=             -3.8537    Z=             -2.7464  Tot=              5.2286
 Quadrupole moment (field-independent basis, Debye-Ang):
   XX=           -118.2042   YY=           -119.1999   ZZ=           -124.7995
   XY=              7.1746   XZ=             11.8359   YZ=             -6.8093
 Traceless Quadrupole moment (field-independent basis, Debye-Ang):
   XX=              2.5303   YY=              1.5347   ZZ=             -4.0650
   XY=              7.1746   XZ=             11.8359   YZ=             -6.8093
 Octapole moment (field-independent basis, Debye-Ang**2):
  XXX=             17.1766  YYY=             -2.9285  ZZZ=             -7.9452  XYY=              6.7241
  XXY=            -22.0003  XXZ=            -14.9656  XZZ=             10.9796  YZZ=            -22.9527
  YYZ=            -12.2759  XYZ=             11.7547
 Hexadecapole moment (field-independent basis, Debye-Ang**3):
 XXXX=          -4224.2565 YYYY=          -2020.2845 ZZZZ=          -1177.3672 XXXY=             25.7699
 XXXZ=             54.0502 YYYX=             26.9942 YYYZ=              0.0150 ZZZX=             23.2325
 ZZZY=            -11.0007 XXYY=          -1035.7721 XXZZ=           -930.2181 YYZZ=           -590.1886
 XXYZ=            -47.7565 YYXZ=             21.7921 ZZXY=             27.2331
 N-N= 1.622788128452D+03 E-N=-5.735898356933D+03  KE= 1.055909233852D+03
 1\1\GINC-CPU-E-609\FOpt\RB3LYP\6-31G(d,p)\C14H26O3Si1\KE291\06-Feb-201
 9\0\\# b3lyp/6-31g(d,p) Opt=(maxcycles=25) scrf=(solvent=chloroform)\\
 P_ng_2ginp001\\0,1\C,0.0157819477,0.2228434004,0.9564997634\C,-0.87006
 90398,1.3569365504,0.413520918\C,-2.1488860347,1.5414356171,1.27950853
 57\C,-1.6822520188,1.8397662412,2.7111626132\C,-0.6832300811,0.8466993
 205,3.2714659796\H,-0.4360316125,-0.7414424586,0.6899279998\H,-0.30953
 21752,2.2964087612,0.5123422496\H,-1.1796342371,2.8142730942,2.7360173
 044\H,-2.5201762431,1.8862531562,3.4087158735\O,0.1273243587,0.1931240
 443,2.4146017502\O,-0.5449692553,0.6584219507,4.462045116\C,1.45366137
 33,0.257600501,0.4325992413\C,2.3088296044,-0.9245304862,0.8987061106\
 C,-1.1729173406,1.1414751298,-1.0775512793\O,-2.9281917088,2.610158592
 1,0.7499019284\Si,-2.9778434537,4.2849815741,0.9082414525\C,-3.6806020
 857,4.787580294,2.585317002\C,-1.2856675206,5.0852032029,0.653771093\C
 ,-4.1477952216,4.8191752775,-0.4642832896\H,-1.3902165535,6.1763674888
 ,0.6800412315\H,-0.560207356,4.8124937943,1.4273650748\H,-0.857997377,
 4.8188178807,-0.318583607\H,-4.2910645567,5.9054276088,-0.454806204\H,
 -3.7557606151,4.5412599713,-1.4481679884\H,-5.13124413,4.3513223781,-0
 .3509508068\H,-4.6444674748,4.3009497087,2.7684657795\H,-3.0143921534,
 4.5341545533,3.415806197\H,-3.8451330719,5.8711325809,2.6143777427\H,-
 1.9360587972,1.8492243964,-1.407144205\H,-0.2816129539,1.2983243065,-1
 .6898389517\H,-1.5386627804,0.1291911284,-1.2783743839\H,1.9109780608,
 1.2041449534,0.7470830029\H,1.4175709402,0.2719765542,-0.6617217854\H,
 2.3851419892,-0.9514490691,1.9883471333\H,1.8797023226,-1.8766571693,0
 .5668853015\H,3.3201062214,-0.8533923737,0.4871746984\C,-3.0652367226,
 0.2878696422,1.2500567695\C,-4.3316445892,0.4372661575,2.0484821918\C,
 -4.6898821855,-0.3519341023,3.06268293\H,-2.5105717109,-0.5866018865,1
 .6081198564\H,-3.3254775589,0.1002495647,0.20147122\H,-4.9863551111,1.
 2521710789,1.7458491638\H,-5.6248331597,-0.2055214695,3.5958173114\H,-
 4.0636279319,-1.1766584396,3.3956879654\\Version=ES64L-G09RevD.01\Stat
 e=1-A\HF=-1064.425082\RMSD=4.430e-09\RMSF=6.595e-06\Dipole=-0.1820152,
 0.8175712,-1.8788288\Quadrupole=2.3373105,5.5695607,-7.9068712,0.47979
 69,-7.5194722,5.677284\PG=C01 [X(C14H26O3Si1)]\\@


 IF GOD HAD MEANT MAN TO SEE THE SUN RISE, HE
 WOULD HAVE SCHEDULED IT FOR A LATER HOUR.
 Job cpu time:       0 days  2 hours  8 minutes 28.5 seconds.
 File lengths (MBytes):  RWF=    381 Int=      0 D2E=      0 Chk=     17 Scr=      1
 Normal termination of Gaussian 09 at Wed Feb  6 11:15:08 2019.
