 Entering Gaussian System, Link 0=/usr/local/shared/gaussian/em64t/09-D01/g09/g09
 Initial command:
 /usr/local/shared/gaussian/em64t/09-D01/g09/l1.exe "/scratch/ke291/AT3_1ginp001/Gau-27838.inp" -scrdir="/scratch/ke291/AT3_1ginp001/"
 Entering Link 1 = /usr/local/shared/gaussian/em64t/09-D01/g09/l1.exe PID=     27843.
  
 Copyright (c) 1988,1990,1992,1993,1995,1998,2003,2009,2013,
            Gaussian, Inc.  All Rights Reserved.
  
 This is part of the Gaussian(R) 09 program.  It is based on
 the Gaussian(R) 03 system (copyright 2003, Gaussian, Inc.),
 the Gaussian(R) 98 system (copyright 1998, Gaussian, Inc.),
 the Gaussian(R) 94 system (copyright 1995, Gaussian, Inc.),
 the Gaussian 92(TM) system (copyright 1992, Gaussian, Inc.),
 the Gaussian 90(TM) system (copyright 1990, Gaussian, Inc.),
 the Gaussian 88(TM) system (copyright 1988, Gaussian, Inc.),
 the Gaussian 86(TM) system (copyright 1986, Carnegie Mellon
 University), and the Gaussian 82(TM) system (copyright 1983,
 Carnegie Mellon University). Gaussian is a federally registered
 trademark of Gaussian, Inc.
  
 This software contains proprietary and confidential information,
 including trade secrets, belonging to Gaussian, Inc.
  
 This software is provided under written license and may be
 used, copied, transmitted, or stored only in accord with that
 written license.
  
 The following legend is applicable only to US Government
 contracts under FAR:
  
                    RESTRICTED RIGHTS LEGEND
  
 Use, reproduction and disclosure by the US Government is
 subject to restrictions as set forth in subparagraphs (a)
 and (c) of the Commercial Computer Software - Restricted
 Rights clause in FAR 52.227-19.
  
 Gaussian, Inc.
 340 Quinnipiac St., Bldg. 40, Wallingford CT 06492
  
  
 ---------------------------------------------------------------
 Warning -- This program may not be used in any manner that
 competes with the business of Gaussian, Inc. or will provide
 assistance to any competitor of Gaussian, Inc.  The licensee
 of this program is prohibited from giving any competitor of
 Gaussian, Inc. access to this program.  By using this program,
 the user acknowledges that Gaussian, Inc. is engaged in the
 business of creating and licensing software in the field of
 computational chemistry and represents and warrants to the
 licensee that it is not a competitor of Gaussian, Inc. and that
 it will not use this program in any manner prohibited above.
 ---------------------------------------------------------------
  

 Cite this work as:
 Gaussian 09, Revision D.01,
 M. J. Frisch, G. W. Trucks, H. B. Schlegel, G. E. Scuseria, 
 M. A. Robb, J. R. Cheeseman, G. Scalmani, V. Barone, B. Mennucci, 
 G. A. Petersson, H. Nakatsuji, M. Caricato, X. Li, H. P. Hratchian, 
 A. F. Izmaylov, J. Bloino, G. Zheng, J. L. Sonnenberg, M. Hada, 
 M. Ehara, K. Toyota, R. Fukuda, J. Hasegawa, M. Ishida, T. Nakajima, 
 Y. Honda, O. Kitao, H. Nakai, T. Vreven, J. A. Montgomery, Jr., 
 J. E. Peralta, F. Ogliaro, M. Bearpark, J. J. Heyd, E. Brothers, 
 K. N. Kudin, V. N. Staroverov, T. Keith, R. Kobayashi, J. Normand, 
 K. Raghavachari, A. Rendell, J. C. Burant, S. S. Iyengar, J. Tomasi, 
 M. Cossi, N. Rega, J. M. Millam, M. Klene, J. E. Knox, J. B. Cross, 
 V. Bakken, C. Adamo, J. Jaramillo, R. Gomperts, R. E. Stratmann, 
 O. Yazyev, A. J. Austin, R. Cammi, C. Pomelli, J. W. Ochterski, 
 R. L. Martin, K. Morokuma, V. G. Zakrzewski, G. A. Voth, 
 P. Salvador, J. J. Dannenberg, S. Dapprich, A. D. Daniels, 
 O. Farkas, J. B. Foresman, J. V. Ortiz, J. Cioslowski, 
 and D. J. Fox, Gaussian, Inc., Wallingford CT, 2013.
 
 ******************************************
 Gaussian 09:  EM64L-G09RevD.01 24-Apr-2013
                 6-Mar-2019 
 ******************************************
 %nprocshared=2
 Will use up to    2 processors via shared memory.
 %mem=6000MB
 %chk=AT3_1ginp001.chk
 ---------------------------------------------------------------
 # b3lyp/6-31g(d,p) Opt=(maxcycles=50) scrf=(solvent=chloroform)
 ---------------------------------------------------------------
 1/6=50,14=-1,18=20,19=15,26=3,38=1/1,3;
 2/9=110,12=2,17=6,18=5,40=1/2;
 3/5=1,6=6,7=101,11=2,16=1,25=1,30=1,70=2201,71=1,72=7,74=-5/1,2,3;
 4//1;
 5/5=2,38=5,53=7/2;
 6/7=2,8=2,9=2,10=2,28=1/1;
 7//1,2,3,16;
 1/6=50,14=-1,18=20,19=15,26=3/3(2);
 2/9=110/2;
 99//99;
 2/9=110/2;
 3/5=1,6=6,7=101,11=2,16=1,25=1,30=1,70=2205,71=1,72=7,74=-5/1,2,3;
 4/5=5,16=3,69=1/1;
 5/5=2,38=5,53=7/2;
 7//1,2,3,16;
 1/6=50,14=-1,18=20,19=15,26=3/3(-5);
 2/9=110/2;
 6/7=2,8=2,9=2,10=2,19=2,28=1/1;
 99/9=1/99;
 ------------
 AT3_1ginp001
 ------------
 Symbolic Z-matrix:
 Charge =  0 Multiplicity = 1
 C                    -2.01827   0.5516    0.54875 
 C                    -1.22963  -0.08169   1.68805 
 C                    -0.38216   0.89833   2.53635 
 C                    -1.22895   1.9923    3.26886 
 C                    -0.35899   2.86066   4.20326 
 O                     0.54608   3.67442   3.46809 
 N                     0.66797   1.56802   1.74243 
 C                     1.73342   0.66478   1.29937 
 C                     4.94283   2.92762  -0.49863 
 C                     5.05995   2.46508   0.81138 
 C                     4.02208   1.7305    1.38439 
 C                     2.85681   1.43984   0.67394 
 C                     2.75844   1.91471  -0.6354 
 C                     3.7858    2.65024  -1.22472 
 H                     5.74711   3.50364  -0.94902 
 H                     5.9519    2.67334   1.39493 
 H                     3.67354   3.00503  -2.24485 
 F                     4.16664   1.29322   2.64361 
 F                     1.65234   1.66503  -1.35203 
 H                    -1.35923   1.02033  -0.18759 
 H                    -2.59719  -0.21794   0.02725 
 H                    -2.72372   1.3031    0.9136 
 H                    -1.9263   -0.6211    2.34011 
 H                    -0.58397  -0.86244   1.26877 
 H                    -1.67011   2.6571    2.51424 
 H                     0.21805   2.24024   4.89757 
 H                    -0.98293   3.53606   4.79762 
 H                     0.9598    3.07355   2.80975 
 H                     2.11892   0.08537   2.14701 
 H                     1.36106  -0.06088   0.56715 
 H                     0.10933   0.30551   3.32038 
 C                    -2.36641   1.38437   4.09839 
 H                    -2.8911    2.15905   4.66839 
 H                    -3.11463   0.90194   3.46292 
 H                    -1.98571   0.64264   4.8085 
 H                     0.2496    2.00595   0.91821 
 

 GradGradGradGradGradGradGradGradGradGradGradGradGradGradGradGradGradGrad
 Berny optimization.
 Initialization pass.
                           ----------------------------
                           !    Initial Parameters    !
                           ! (Angstroms and Degrees)  !
 --------------------------                            --------------------------
 ! Name  Definition              Value          Derivative Info.                !
 --------------------------------------------------------------------------------
 ! R1    R(1,2)                  1.5235         estimate D2E/DX2                !
 ! R2    R(1,20)                 1.0937         estimate D2E/DX2                !
 ! R3    R(1,21)                 1.0951         estimate D2E/DX2                !
 ! R4    R(1,22)                 1.0934         estimate D2E/DX2                !
 ! R5    R(2,3)                  1.5486         estimate D2E/DX2                !
 ! R6    R(2,23)                 1.0961         estimate D2E/DX2                !
 ! R7    R(2,24)                 1.0965         estimate D2E/DX2                !
 ! R8    R(3,4)                  1.5654         estimate D2E/DX2                !
 ! R9    R(3,7)                  1.477          estimate D2E/DX2                !
 ! R10   R(3,31)                 1.099          estimate D2E/DX2                !
 ! R11   R(4,5)                  1.544          estimate D2E/DX2                !
 ! R12   R(4,25)                 1.0982         estimate D2E/DX2                !
 ! R13   R(4,32)                 1.5335         estimate D2E/DX2                !
 ! R14   R(5,6)                  1.4219         estimate D2E/DX2                !
 ! R15   R(5,26)                 1.0954         estimate D2E/DX2                !
 ! R16   R(5,27)                 1.0949         estimate D2E/DX2                !
 ! R17   R(6,28)                 0.9827         estimate D2E/DX2                !
 ! R18   R(7,8)                  1.4654         estimate D2E/DX2                !
 ! R19   R(7,36)                 1.0228         estimate D2E/DX2                !
 ! R20   R(8,12)                 1.5013         estimate D2E/DX2                !
 ! R21   R(8,29)                 1.0967         estimate D2E/DX2                !
 ! R22   R(8,30)                 1.0961         estimate D2E/DX2                !
 ! R23   R(9,10)                 1.3942         estimate D2E/DX2                !
 ! R24   R(9,14)                 1.3939         estimate D2E/DX2                !
 ! R25   R(9,15)                 1.087          estimate D2E/DX2                !
 ! R26   R(10,11)                1.3947         estimate D2E/DX2                !
 ! R27   R(10,16)                1.086          estimate D2E/DX2                !
 ! R28   R(11,12)                1.3954         estimate D2E/DX2                !
 ! R29   R(11,18)                1.3408         estimate D2E/DX2                !
 ! R30   R(12,13)                1.3963         estimate D2E/DX2                !
 ! R31   R(13,14)                1.3942         estimate D2E/DX2                !
 ! R32   R(13,19)                1.3414         estimate D2E/DX2                !
 ! R33   R(14,17)                1.0859         estimate D2E/DX2                !
 ! R34   R(32,33)                1.0956         estimate D2E/DX2                !
 ! R35   R(32,34)                1.0938         estimate D2E/DX2                !
 ! R36   R(32,35)                1.0951         estimate D2E/DX2                !
 ! A1    A(2,1,20)             111.6967         estimate D2E/DX2                !
 ! A2    A(2,1,21)             109.7351         estimate D2E/DX2                !
 ! A3    A(2,1,22)             111.7246         estimate D2E/DX2                !
 ! A4    A(20,1,21)            107.4027         estimate D2E/DX2                !
 ! A5    A(20,1,22)            108.5939         estimate D2E/DX2                !
 ! A6    A(21,1,22)            107.5054         estimate D2E/DX2                !
 ! A7    A(1,2,3)              115.4592         estimate D2E/DX2                !
 ! A8    A(1,2,23)             108.6885         estimate D2E/DX2                !
 ! A9    A(1,2,24)             108.3522         estimate D2E/DX2                !
 ! A10   A(3,2,23)             109.4735         estimate D2E/DX2                !
 ! A11   A(3,2,24)             109.7444         estimate D2E/DX2                !
 ! A12   A(23,2,24)            104.5553         estimate D2E/DX2                !
 ! A13   A(2,3,4)              113.7377         estimate D2E/DX2                !
 ! A14   A(2,3,7)              112.4309         estimate D2E/DX2                !
 ! A15   A(2,3,31)             107.1082         estimate D2E/DX2                !
 ! A16   A(4,3,7)              108.6188         estimate D2E/DX2                !
 ! A17   A(4,3,31)             106.5631         estimate D2E/DX2                !
 ! A18   A(7,3,31)             108.0649         estimate D2E/DX2                !
 ! A19   A(3,4,5)              111.8042         estimate D2E/DX2                !
 ! A20   A(3,4,25)             108.5914         estimate D2E/DX2                !
 ! A21   A(3,4,32)             112.1688         estimate D2E/DX2                !
 ! A22   A(5,4,25)             107.5614         estimate D2E/DX2                !
 ! A23   A(5,4,32)             108.2718         estimate D2E/DX2                !
 ! A24   A(25,4,32)            108.284          estimate D2E/DX2                !
 ! A25   A(4,5,6)              111.5681         estimate D2E/DX2                !
 ! A26   A(4,5,26)             111.2138         estimate D2E/DX2                !
 ! A27   A(4,5,27)             110.7547         estimate D2E/DX2                !
 ! A28   A(6,5,26)             108.4542         estimate D2E/DX2                !
 ! A29   A(6,5,27)             106.8803         estimate D2E/DX2                !
 ! A30   A(26,5,27)            107.7882         estimate D2E/DX2                !
 ! A31   A(5,6,28)             105.3325         estimate D2E/DX2                !
 ! A32   A(3,7,8)              113.5776         estimate D2E/DX2                !
 ! A33   A(3,7,36)             109.6617         estimate D2E/DX2                !
 ! A34   A(8,7,36)             108.5223         estimate D2E/DX2                !
 ! A35   A(7,8,12)             110.5977         estimate D2E/DX2                !
 ! A36   A(7,8,29)             110.3363         estimate D2E/DX2                !
 ! A37   A(7,8,30)             111.2881         estimate D2E/DX2                !
 ! A38   A(12,8,29)            109.3722         estimate D2E/DX2                !
 ! A39   A(12,8,30)            108.5235         estimate D2E/DX2                !
 ! A40   A(29,8,30)            106.6162         estimate D2E/DX2                !
 ! A41   A(10,9,14)            119.5494         estimate D2E/DX2                !
 ! A42   A(10,9,15)            120.1973         estimate D2E/DX2                !
 ! A43   A(14,9,15)            120.253          estimate D2E/DX2                !
 ! A44   A(9,10,11)            119.8857         estimate D2E/DX2                !
 ! A45   A(9,10,16)            120.6808         estimate D2E/DX2                !
 ! A46   A(11,10,16)           119.4332         estimate D2E/DX2                !
 ! A47   A(10,11,12)           121.4649         estimate D2E/DX2                !
 ! A48   A(10,11,18)           118.5154         estimate D2E/DX2                !
 ! A49   A(12,11,18)           120.0181         estimate D2E/DX2                !
 ! A50   A(8,12,11)            121.3533         estimate D2E/DX2                !
 ! A51   A(8,12,13)            120.899          estimate D2E/DX2                !
 ! A52   A(11,12,13)           117.7386         estimate D2E/DX2                !
 ! A53   A(12,13,14)           121.5943         estimate D2E/DX2                !
 ! A54   A(12,13,19)           119.7203         estimate D2E/DX2                !
 ! A55   A(14,13,19)           118.6853         estimate D2E/DX2                !
 ! A56   A(9,14,13)            119.7666         estimate D2E/DX2                !
 ! A57   A(9,14,17)            120.6751         estimate D2E/DX2                !
 ! A58   A(13,14,17)           119.5577         estimate D2E/DX2                !
 ! A59   A(4,32,33)            110.8766         estimate D2E/DX2                !
 ! A60   A(4,32,34)            111.5912         estimate D2E/DX2                !
 ! A61   A(4,32,35)            111.187          estimate D2E/DX2                !
 ! A62   A(33,32,34)           106.6503         estimate D2E/DX2                !
 ! A63   A(33,32,35)           107.9406         estimate D2E/DX2                !
 ! A64   A(34,32,35)           108.4079         estimate D2E/DX2                !
 ! D1    D(20,1,2,3)            62.2134         estimate D2E/DX2                !
 ! D2    D(20,1,2,23)         -174.3632         estimate D2E/DX2                !
 ! D3    D(20,1,2,24)          -61.3011         estimate D2E/DX2                !
 ! D4    D(21,1,2,3)          -178.7929         estimate D2E/DX2                !
 ! D5    D(21,1,2,23)          -55.3694         estimate D2E/DX2                !
 ! D6    D(21,1,2,24)           57.6927         estimate D2E/DX2                !
 ! D7    D(22,1,2,3)           -59.6532         estimate D2E/DX2                !
 ! D8    D(22,1,2,23)           63.7702         estimate D2E/DX2                !
 ! D9    D(22,1,2,24)          176.8323         estimate D2E/DX2                !
 ! D10   D(1,2,3,4)             61.5588         estimate D2E/DX2                !
 ! D11   D(1,2,3,7)            -62.418          estimate D2E/DX2                !
 ! D12   D(1,2,3,31)           179.0228         estimate D2E/DX2                !
 ! D13   D(23,2,3,4)           -61.4499         estimate D2E/DX2                !
 ! D14   D(23,2,3,7)           174.5733         estimate D2E/DX2                !
 ! D15   D(23,2,3,31)           56.0141         estimate D2E/DX2                !
 ! D16   D(24,2,3,4)          -175.6629         estimate D2E/DX2                !
 ! D17   D(24,2,3,7)            60.3603         estimate D2E/DX2                !
 ! D18   D(24,2,3,31)          -58.1989         estimate D2E/DX2                !
 ! D19   D(2,3,4,5)            174.6599         estimate D2E/DX2                !
 ! D20   D(2,3,4,25)           -66.822          estimate D2E/DX2                !
 ! D21   D(2,3,4,32)            52.8134         estimate D2E/DX2                !
 ! D22   D(7,3,4,5)            -59.3243         estimate D2E/DX2                !
 ! D23   D(7,3,4,25)            59.1938         estimate D2E/DX2                !
 ! D24   D(7,3,4,32)           178.8293         estimate D2E/DX2                !
 ! D25   D(31,3,4,5)            56.8807         estimate D2E/DX2                !
 ! D26   D(31,3,4,25)          175.3988         estimate D2E/DX2                !
 ! D27   D(31,3,4,32)          -64.9658         estimate D2E/DX2                !
 ! D28   D(2,3,7,8)            -68.5054         estimate D2E/DX2                !
 ! D29   D(2,3,7,36)            53.0956         estimate D2E/DX2                !
 ! D30   D(4,3,7,8)            164.7231         estimate D2E/DX2                !
 ! D31   D(4,3,7,36)           -73.6759         estimate D2E/DX2                !
 ! D32   D(31,3,7,8)            49.4901         estimate D2E/DX2                !
 ! D33   D(31,3,7,36)          171.0911         estimate D2E/DX2                !
 ! D34   D(3,4,5,6)             68.0429         estimate D2E/DX2                !
 ! D35   D(3,4,5,26)           -53.1921         estimate D2E/DX2                !
 ! D36   D(3,4,5,27)          -173.0297         estimate D2E/DX2                !
 ! D37   D(25,4,5,6)           -51.0861         estimate D2E/DX2                !
 ! D38   D(25,4,5,26)         -172.3212         estimate D2E/DX2                !
 ! D39   D(25,4,5,27)           67.8413         estimate D2E/DX2                !
 ! D40   D(32,4,5,6)          -167.8959         estimate D2E/DX2                !
 ! D41   D(32,4,5,26)           70.8691         estimate D2E/DX2                !
 ! D42   D(32,4,5,27)          -48.9685         estimate D2E/DX2                !
 ! D43   D(3,4,32,33)          175.1698         estimate D2E/DX2                !
 ! D44   D(3,4,32,34)          -66.0965         estimate D2E/DX2                !
 ! D45   D(3,4,32,35)           55.0767         estimate D2E/DX2                !
 ! D46   D(5,4,32,33)           51.3272         estimate D2E/DX2                !
 ! D47   D(5,4,32,34)          170.0609         estimate D2E/DX2                !
 ! D48   D(5,4,32,35)          -68.7658         estimate D2E/DX2                !
 ! D49   D(25,4,32,33)         -65.0153         estimate D2E/DX2                !
 ! D50   D(25,4,32,34)          53.7184         estimate D2E/DX2                !
 ! D51   D(25,4,32,35)         174.8916         estimate D2E/DX2                !
 ! D52   D(4,5,6,28)           -47.2049         estimate D2E/DX2                !
 ! D53   D(26,5,6,28)           75.6214         estimate D2E/DX2                !
 ! D54   D(27,5,6,28)         -168.4134         estimate D2E/DX2                !
 ! D55   D(3,7,8,12)          -171.8665         estimate D2E/DX2                !
 ! D56   D(3,7,8,29)           -50.7215         estimate D2E/DX2                !
 ! D57   D(3,7,8,30)            67.4242         estimate D2E/DX2                !
 ! D58   D(36,7,8,12)           65.8994         estimate D2E/DX2                !
 ! D59   D(36,7,8,29)         -172.9556         estimate D2E/DX2                !
 ! D60   D(36,7,8,30)          -54.8099         estimate D2E/DX2                !
 ! D61   D(7,8,12,11)          100.2179         estimate D2E/DX2                !
 ! D62   D(7,8,12,13)          -78.6564         estimate D2E/DX2                !
 ! D63   D(29,8,12,11)         -21.4968         estimate D2E/DX2                !
 ! D64   D(29,8,12,13)         159.6289         estimate D2E/DX2                !
 ! D65   D(30,8,12,11)        -137.4407         estimate D2E/DX2                !
 ! D66   D(30,8,12,13)          43.6851         estimate D2E/DX2                !
 ! D67   D(14,9,10,11)          -0.0009         estimate D2E/DX2                !
 ! D68   D(14,9,10,16)        -179.7984         estimate D2E/DX2                !
 ! D69   D(15,9,10,11)         179.7806         estimate D2E/DX2                !
 ! D70   D(15,9,10,16)          -0.0169         estimate D2E/DX2                !
 ! D71   D(10,9,14,13)           0.0163         estimate D2E/DX2                !
 ! D72   D(10,9,14,17)         179.7461         estimate D2E/DX2                !
 ! D73   D(15,9,14,13)        -179.7651         estimate D2E/DX2                !
 ! D74   D(15,9,14,17)          -0.0353         estimate D2E/DX2                !
 ! D75   D(9,10,11,12)           0.1248         estimate D2E/DX2                !
 ! D76   D(9,10,11,18)         179.6585         estimate D2E/DX2                !
 ! D77   D(16,10,11,12)        179.9248         estimate D2E/DX2                !
 ! D78   D(16,10,11,18)         -0.5415         estimate D2E/DX2                !
 ! D79   D(10,11,12,8)        -179.1641         estimate D2E/DX2                !
 ! D80   D(10,11,12,13)         -0.2555         estimate D2E/DX2                !
 ! D81   D(18,11,12,8)           1.3091         estimate D2E/DX2                !
 ! D82   D(18,11,12,13)       -179.7823         estimate D2E/DX2                !
 ! D83   D(8,12,13,14)         179.1855         estimate D2E/DX2                !
 ! D84   D(8,12,13,19)          -0.6991         estimate D2E/DX2                !
 ! D85   D(11,12,13,14)          0.2717         estimate D2E/DX2                !
 ! D86   D(11,12,13,19)       -179.613          estimate D2E/DX2                !
 ! D87   D(12,13,14,9)          -0.1565         estimate D2E/DX2                !
 ! D88   D(12,13,14,17)       -179.8893         estimate D2E/DX2                !
 ! D89   D(19,13,14,9)         179.7294         estimate D2E/DX2                !
 ! D90   D(19,13,14,17)         -0.0034         estimate D2E/DX2                !
 --------------------------------------------------------------------------------
 Trust Radius=3.00D-01 FncErr=1.00D-07 GrdErr=1.00D-06
 Number of steps in this run=     50 maximum allowed number of steps=    216.
 GradGradGradGradGradGradGradGradGradGradGradGradGradGradGradGradGradGrad

                          Input orientation:                          
 ---------------------------------------------------------------------
 Center     Atomic      Atomic             Coordinates (Angstroms)
 Number     Number       Type             X           Y           Z
 ---------------------------------------------------------------------
      1          6           0       -2.018268    0.551596    0.548750
      2          6           0       -1.229634   -0.081686    1.688046
      3          6           0       -0.382155    0.898329    2.536349
      4          6           0       -1.228950    1.992301    3.268862
      5          6           0       -0.358993    2.860661    4.203262
      6          8           0        0.546077    3.674424    3.468088
      7          7           0        0.667970    1.568015    1.742432
      8          6           0        1.733422    0.664780    1.299374
      9          6           0        4.942830    2.927622   -0.498633
     10          6           0        5.059952    2.465078    0.811375
     11          6           0        4.022078    1.730498    1.384387
     12          6           0        2.856810    1.439844    0.673941
     13          6           0        2.758444    1.914713   -0.635395
     14          6           0        3.785798    2.650241   -1.224724
     15          1           0        5.747111    3.503637   -0.949018
     16          1           0        5.951896    2.673339    1.394934
     17          1           0        3.673539    3.005032   -2.244848
     18          9           0        4.166645    1.293218    2.643612
     19          9           0        1.652337    1.665027   -1.352026
     20          1           0       -1.359227    1.020330   -0.187592
     21          1           0       -2.597194   -0.217941    0.027245
     22          1           0       -2.723718    1.303101    0.913602
     23          1           0       -1.926298   -0.621103    2.340108
     24          1           0       -0.583972   -0.862443    1.268773
     25          1           0       -1.670108    2.657101    2.514244
     26          1           0        0.218045    2.240242    4.897572
     27          1           0       -0.982931    3.536055    4.797617
     28          1           0        0.959797    3.073545    2.809751
     29          1           0        2.118920    0.085373    2.147007
     30          1           0        1.361064   -0.060878    0.567149
     31          1           0        0.109334    0.305512    3.320381
     32          6           0       -2.366409    1.384371    4.098391
     33          1           0       -2.891100    2.159050    4.668394
     34          1           0       -3.114628    0.901938    3.462923
     35          1           0       -1.985710    0.642642    4.808500
     36          1           0        0.249599    2.005951    0.918208
 ---------------------------------------------------------------------
                    Distance matrix (angstroms):
                    1          2          3          4          5
     1  C    0.000000
     2  C    1.523478   0.000000
     3  C    2.597622   1.548634   0.000000
     4  C    3.177682   2.607758   1.565379   0.000000
     5  C    4.630381   3.967585   2.574856   1.544013   0.000000
     6  O    4.985023   4.519963   3.071881   2.453559   1.421915
     7  N    3.110283   2.515029   1.477006   2.471500   2.963321
     8  C    3.827718   3.080256   2.461771   3.796952   4.199126
     9  C    7.429630   7.206720   6.456362   7.291071   7.086722
    10  C    7.337001   6.842036   5.920031   6.768534   6.405181
    11  C    6.210787   5.563874   4.627828   5.585077   5.330770
    12  C    4.956919   4.476884   3.775274   4.871577   4.981588
    13  C    5.106590   5.028792   4.577812   5.581089   5.833167
    14  C    6.421581   6.411101   5.881046   6.765567   6.832759
    15  H    8.441503   8.275483   7.516869   8.290963   8.015230
    16  H    8.291039   7.697431   6.676353   7.452514   6.910073
    17  H    6.798544   7.002613   6.614129   7.447216   7.606595
    18  F    6.572032   5.650070   4.567168   5.476504   5.036942
    19  F    4.280890   4.538590   4.454935   5.455413   6.027953
    20  H    1.093730   2.179278   2.896448   3.592878   4.864862
    21  H    1.095130   2.155701   3.528181   4.155158   5.650350
    22  H    1.093406   2.179377   2.877510   2.873426   4.340482
    23  H    2.143046   1.096128   2.175215   2.859853   4.248584
    24  H    2.138959   1.096472   2.178944   3.544844   4.745877
    25  H    2.901299   2.894404   2.180044   1.098193   2.147846
    26  H    5.173478   4.217604   2.781429   2.192707   1.095426
    27  H    5.294506   4.776855   3.525885   2.186503   1.094858
    28  H    4.510125   4.000914   2.570437   2.484046   1.930388
    29  H    4.459609   3.383987   2.658545   4.012875   4.250936
    30  H    3.434436   2.822864   2.799400   4.268837   4.971449
    31  H    3.502740   2.146456   1.098954   2.153814   2.743646
    32  C    3.662604   3.041602   2.571668   1.533463   2.494023
    33  H    4.507462   4.082137   3.525598   2.179275   2.668365
    34  H    3.133233   2.769640   2.885301   2.186855   3.460957
    35  H    4.260847   3.291434   2.792747   2.182831   2.816404
    36  H    2.719351   2.671892   2.060175   2.777025   3.448549
                    6          7          8          9         10
     6  O    0.000000
     7  N    2.725749   0.000000
     8  C    3.895005   1.465374   0.000000
     9  C    5.968587   5.014512   4.318979   0.000000
    10  C    5.375473   4.578329   3.813793   1.394197   0.000000
    11  C    4.494802   3.377075   2.526050   2.413846   1.394680
    12  C    4.259119   2.439082   1.501297   2.817782   2.433891
    13  C    4.982943   3.185018   2.521177   2.411686   2.773623
    14  C    5.793723   4.438027   3.811217   1.393869   2.409036
    15  H    6.825742   6.065328   5.405930   1.086972   2.156334
    16  H    5.875629   5.409470   4.673218   2.160664   1.086038
    17  H    6.547270   5.195851   4.669298   2.160176   3.399146
    18  F    4.411169   3.623309   2.849997   3.625940   2.351243
    19  F    5.338070   3.248701   2.834959   3.626261   4.114879
    20  H    4.902897   2.852101   3.449922   6.591694   6.655155
    21  H    6.072072   4.097902   4.599102   8.186762   8.151401
    22  H    4.779135   3.501526   4.519112   7.963004   7.870588
    23  H    5.082965   3.446691   4.016239   8.236311   7.789045
    24  H    5.166929   2.774678   2.775547   6.930646   6.567761
    25  H    2.618442   2.692287   4.126653   7.271971   6.944807
    26  H    2.051318   3.257181   4.210164   7.205214   6.339686
    27  H    2.030926   3.991593   5.278304   7.970891   7.318029
    28  H    0.982663   1.868409   2.946504   5.179889   4.601631
    29  H    4.135260   2.113567   1.096724   4.801277   4.012054
    30  H    4.799180   2.124844   1.096076   4.784984   4.485741
    31  H    3.400313   2.096643   2.617481   6.694999   5.955456
    32  C    3.758218   3.846001   5.016066   8.771501   8.192877
    33  H    3.943511   4.645165   5.913488   9.415908   8.842481
    34  H    4.592109   4.208538   5.314205   9.204344   8.734865
    35  H    4.171133   4.159219   5.113355   9.021722   8.302989
    36  H    3.061632   1.022823   2.036113   4.988320   4.833395
                   11         12         13         14         15
    11  C    0.000000
    12  C    1.395372   0.000000
    13  C    2.389608   1.396258   0.000000
    14  C    2.776547   2.435777   1.394190   0.000000
    15  H    3.400668   3.904751   3.399290   2.156629   0.000000
    16  H    2.147850   3.408944   3.859519   3.399283   2.495084
    17  H    3.862287   3.411186   2.148612   1.085878   2.495493
    18  F    1.340806   2.369973   3.622316   4.117108   4.504533
    19  F    3.620485   2.367700   1.341408   2.353404   4.506670
    20  H    5.651009   4.323563   4.237412   5.495774   7.566150
    21  H    7.032283   5.736953   5.802600   7.108902   9.188616
    22  H    6.775697   5.587345   5.729534   6.982909   8.947997
    23  H    6.467349   5.468248   6.101704   7.485837   9.311983
    24  H    5.287004   4.182503   4.744491   6.136071   8.003990
    25  H    5.876747   5.036012   5.484837   6.614139   8.229577
    26  H    5.203170   5.044083   6.096993   7.097850   8.145511
    27  H    6.321415   6.011856   6.792956   7.732660   8.849764
    28  H    3.634969   3.290793   4.055497   4.943931   6.101778
    29  H    2.628695   2.132838   3.390758   4.552538   5.868021
    30  H    3.310272   2.121515   2.702174   4.054665   5.851661
    31  H    4.592192   3.979821   5.025483   6.298581   7.761463
    32  C    6.949704   6.245955   6.996721   8.233324   9.787586
    33  H    7.665533   7.036432   7.752885   8.919141  10.391435
    34  H    7.479264   6.612551   7.232904   8.523290  10.235452
    35  H    7.000107   6.417173   7.332200   8.587232  10.056382
    36  H    3.811141   2.679122   2.952340   4.184731   5.996018
                   16         17         18         19         20
    16  H    0.000000
    17  H    4.306848   0.000000
    18  F    2.578963   5.202932   0.000000
    19  F    5.200836   2.584183   4.735516   0.000000
    20  H    7.660897   5.787925   6.214937   3.292576   0.000000
    21  H    9.127815   7.407567   7.408002   4.848347   1.764095
    22  H    8.796335   7.334662   7.104234   4.941044   1.776070
    23  H    8.591428   8.094989   6.393801   5.627155   3.066780
    24  H    7.432042   6.740126   5.394944   4.272911   2.503368
    25  H    7.703769   7.164117   5.995381   5.193351   3.174206
    26  H    6.732985   7.971167   4.644204   6.437821   5.462130
    27  H    7.772667   8.459374   6.015662   6.947193   5.596676
    28  H    5.204126   5.737426   3.671654   4.447912   4.310177
    29  H    4.685604   5.498149   2.428721   3.867330   4.292086
    30  H    5.407117   4.759692   3.743870   2.597464   3.023016
    31  H    6.591622   7.138819   4.230290   5.104951   3.869562
    32  C    8.841059   8.907536   6.693690   6.777620   4.417759
    33  H    9.443443   9.570950   7.393319   7.558593   5.217654
    34  H    9.466588   9.114871   7.337664   6.818357   4.052371
    35  H    8.875909   9.346534   6.554499   7.227222   5.049363
    36  H    5.760978   4.767227   4.339154   2.690328   2.186907
                   21         22         23         24         25
    21  H    0.000000
    22  H    1.764995   0.000000
    23  H    2.441716   2.524551   0.000000
    24  H    2.451497   3.065002   1.734313   0.000000
    25  H    3.912866   2.346373   3.292807   3.888197   0.000000
    26  H    6.139081   5.040260   4.396149   4.841288   3.069063
    27  H    6.281304   4.806454   4.920493   5.653202   2.541371
    28  H    5.588238   4.505345   4.711744   4.499982   2.679020
    29  H    5.179490   5.143471   4.110983   2.995876   4.594059
    30  H    3.997996   4.320407   3.776769   2.217645   4.512936
    31  H    4.294653   3.848890   2.441997   2.460465   3.057162
    32  C    4.381198   3.205800   2.703180   4.028895   2.148069
    33  H    5.222713   3.854754   3.752467   5.099969   2.525715
    34  H    3.650445   2.610130   2.234389   3.785704   2.463174
    35  H    4.896419   4.018842   2.773723   4.093876   3.069407
    36  H    3.720718   3.055263   3.695638   3.007561   2.580039
                   26         27         28         29         30
    26  H    0.000000
    27  H    1.769595   0.000000
    28  H    2.367190   2.817751   0.000000
    29  H    3.977737   5.343634   3.272914   0.000000
    30  H    5.035296   6.027363   3.874905   1.758319   0.000000
    31  H    2.498505   3.716406   2.940414   2.337457   3.046532
    32  C    2.837359   2.651919   3.946840   5.060975   5.334086
    33  H    3.118637   2.356682   4.372672   5.979785   6.311037
    34  H    3.867297   3.641993   4.662987   5.457879   5.417042
    35  H    2.723379   3.062274   4.310487   4.923625   5.448385
    36  H    3.986380   4.348582   2.285186   2.948377   2.372842
                   31         32         33         34         35
    31  H    0.000000
    32  C    2.810434   0.000000
    33  H    3.775625   1.095596   0.000000
    34  H    3.281764   1.093797   1.755977   0.000000
    35  H    2.591788   1.095148   1.771681   1.775463   0.000000
    36  H    2.946456   4.164544   4.894009   4.360326   4.689306
                   36
    36  H    0.000000
 Stoichiometry    C13H19F2NO
 Framework group  C1[X(C13H19F2NO)]
 Deg. of freedom   102
 Full point group                 C1      NOp   1
 Largest Abelian subgroup         C1      NOp   1
 Largest concise Abelian subgroup C1      NOp   1
                         Standard orientation:                         
 ---------------------------------------------------------------------
 Center     Atomic      Atomic             Coordinates (Angstroms)
 Number     Number       Type             X           Y           Z
 ---------------------------------------------------------------------
      1          6           0        2.583308    2.558459   -0.098118
      2          6           0        2.502025    1.517808    1.011577
      3          6           0        2.035641    0.108671    0.569890
      4          6           0        2.985145   -0.571415   -0.472385
      5          6           0        2.552949   -2.021112   -0.781516
      6          8           0        1.317349   -2.059635   -1.484120
      7          7           0        0.663236    0.114636    0.023985
      8          6           0       -0.366037    0.394462    1.028782
      9          6           0       -4.293576   -0.195207   -0.668366
     10          6           0       -3.727966   -1.175129    0.146265
     11          6           0       -2.461452   -0.976311    0.695400
     12          6           0       -1.736878    0.190975    0.451478
     13          6           0       -2.320112    1.158371   -0.369205
     14          6           0       -3.585144    0.977119   -0.926527
     15          1           0       -5.278825   -0.346416   -1.101872
     16          1           0       -4.262285   -2.096877    0.356888
     17          1           0       -4.006492    1.750541   -1.561677
     18          9           0       -1.946681   -1.933638    1.480445
     19          9           0       -1.655261    2.292370   -0.636402
     20          1           0        1.604931    2.744870   -0.550087
     21          1           0        2.941233    3.508861    0.311683
     22          1           0        3.279369    2.256885   -0.885575
     23          1           0        3.482675    1.443130    1.495565
     24          1           0        1.836510    1.899641    1.794868
     25          1           0        2.937798   -0.004127   -1.411518
     26          1           0        2.447696   -2.607871    0.137503
     27          1           0        3.294077   -2.520399   -1.414095
     28          1           0        0.721338   -1.450214   -0.995240
     29          1           0       -0.236989   -0.260221    1.899150
     30          1           0       -0.292771    1.424078    1.397439
     31          1           0        2.043814   -0.529699    1.464383
     32          6           0        4.443095   -0.595233    0.002297
     33          1           0        5.073764   -1.149774   -0.701318
     34          1           0        4.860908    0.413358    0.069894
     35          1           0        4.532046   -1.072902    0.983760
     36          1           0        0.591245    0.814420   -0.718503
 ---------------------------------------------------------------------
 Rotational constants (GHZ):      0.7273381      0.2695287      0.2275289
 Standard basis: 6-31G(d,p) (6D, 7F)
 There are   350 symmetry adapted cartesian basis functions of A   symmetry.
 There are   350 symmetry adapted basis functions of A   symmetry.
   350 basis functions,   609 primitive gaussians,   350 cartesian basis functions
    65 alpha electrons       65 beta electrons
       nuclear repulsion energy      1279.3602757950 Hartrees.
 NAtoms=   36 NActive=   36 NUniq=   36 SFac= 1.00D+00 NAtFMM=   60 NAOKFM=F Big=F
 Integral buffers will be    131072 words long.
 Raffenetti 2 integral format.
 Two-electron integral symmetry is turned on.
 ------------------------------------------------------------------------------
 Polarizable Continuum Model (PCM)
 =================================
 Model                : PCM (using non-symmetric T matrix).
 Atomic radii         : UFF (Universal Force Field).
 Polarization charges : Total charges.
 Charge compensation  : None.
 Solution method      : On-the-fly selection.
 Cavity type          : Scaled VdW (van der Waals Surface) (Alpha=1.100).
 Cavity algorithm     : GePol (No added spheres)
                        Default sphere list used, NSphG=   36.
                        Lebedev-Laikov grids with approx.  5.0 points / Ang**2.
                        Smoothing algorithm: Karplus/York (Gamma=1.0000).
                        Polarization charges: spherical gaussians, with
                                              point-specific exponents (IZeta= 3).
                        Self-potential: point-specific (ISelfS= 7).
                        Self-field    : sphere-specific E.n sum rule (ISelfD= 2).
 1st derivatives      : Analytical E(r).r(x)/FMM algorithm (CHGder, D1EAlg=3).
                        Cavity 1st derivative terms included.
 Solvent              : Chloroform, Eps=   4.711300 Eps(inf)=   2.090627
 ------------------------------------------------------------------------------
 One-electron integrals computed using PRISM.
 NBasis=   350 RedAO= T EigKep=  4.08D-04  NBF=   350
 NBsUse=   350 1.00D-06 EigRej= -1.00D+00 NBFU=   350
 ExpMin= 1.61D-01 ExpMax= 7.00D+03 ExpMxC= 1.05D+03 IAcc=1 IRadAn=         1 AccDes= 0.00D+00
 Harris functional with IExCor=  402 and IRadAn=       1 diagonalized for initial guess.
 HarFok:  IExCor=  402 AccDes= 0.00D+00 IRadAn=         1 IDoV= 1 UseB2=F ITyADJ=14
 ICtDFT=  3500011 ScaDFX=  1.000000  1.000000  1.000000  1.000000
 FoFCou: FMM=F IPFlag=           0 FMFlag=      100000 FMFlg1=           0
         NFxFlg=           0 DoJE=T BraDBF=F KetDBF=T FulRan=T
         wScrn=  0.000000 ICntrl=     500 IOpCl=  0 I1Cent=   200000004 NGrid=           0
         NMat0=    1 NMatS0=      1 NMatT0=    0 NMatD0=    1 NMtDS0=    0 NMtDT0=    0
 Petite list used in FoFCou.
 Requested convergence on RMS density matrix=1.00D-08 within 128 cycles.
 Requested convergence on MAX density matrix=1.00D-06.
 Requested convergence on             energy=1.00D-06.
 No special actions if energy rises.
 Inv3:  Mode=1 IEnd=    18750000.
 Iteration    1 A*A^-1 deviation from unit magnitude is 7.99D-15 for   1550.
 Iteration    1 A*A^-1 deviation from orthogonality  is 6.22D-15 for   2391     77.
 Iteration    1 A^-1*A deviation from unit magnitude is 8.22D-15 for   1550.
 Iteration    1 A^-1*A deviation from orthogonality  is 3.92D-13 for   2215   2197.
 Error on total polarization charges =  0.00786
 SCF Done:  E(RB3LYP) =  -836.496918842     A.U. after   12 cycles
            NFock= 12  Conv=0.60D-08     -V/T= 2.0088

 **********************************************************************

            Population analysis using the SCF density.

 **********************************************************************

 Orbital symmetries:
       Occupied  (A) (A) (A) (A) (A) (A) (A) (A) (A) (A) (A) (A)
                 (A) (A) (A) (A) (A) (A) (A) (A) (A) (A) (A) (A)
                 (A) (A) (A) (A) (A) (A) (A) (A) (A) (A) (A) (A)
                 (A) (A) (A) (A) (A) (A) (A) (A) (A) (A) (A) (A)
                 (A) (A) (A) (A) (A) (A) (A) (A) (A) (A) (A) (A)
                 (A) (A) (A) (A) (A)
       Virtual   (A) (A) (A) (A) (A) (A) (A) (A) (A) (A) (A) (A)
                 (A) (A) (A) (A) (A) (A) (A) (A) (A) (A) (A) (A)
                 (A) (A) (A) (A) (A) (A) (A) (A) (A) (A) (A) (A)
                 (A) (A) (A) (A) (A) (A) (A) (A) (A) (A) (A) (A)
                 (A) (A) (A) (A) (A) (A) (A) (A) (A) (A) (A) (A)
                 (A) (A) (A) (A) (A) (A) (A) (A) (A) (A) (A) (A)
                 (A) (A) (A) (A) (A) (A) (A) (A) (A) (A) (A) (A)
                 (A) (A) (A) (A) (A) (A) (A) (A) (A) (A) (A) (A)
                 (A) (A) (A) (A) (A) (A) (A) (A) (A) (A) (A) (A)
                 (A) (A) (A) (A) (A) (A) (A) (A) (A) (A) (A) (A)
                 (A) (A) (A) (A) (A) (A) (A) (A) (A) (A) (A) (A)
                 (A) (A) (A) (A) (A) (A) (A) (A) (A) (A) (A) (A)
                 (A) (A) (A) (A) (A) (A) (A) (A) (A) (A) (A) (A)
                 (A) (A) (A) (A) (A) (A) (A) (A) (A) (A) (A) (A)
                 (A) (A) (A) (A) (A) (A) (A) (A) (A) (A) (A) (A)
                 (A) (A) (A) (A) (A) (A) (A) (A) (A) (A) (A) (A)
                 (A) (A) (A) (A) (A) (A) (A) (A) (A) (A) (A) (A)
                 (A) (A) (A) (A) (A) (A) (A) (A) (A) (A) (A) (A)
                 (A) (A) (A) (A) (A) (A) (A) (A) (A) (A) (A) (A)
                 (A) (A) (A) (A) (A) (A) (A) (A) (A) (A) (A) (A)
                 (A) (A) (A) (A) (A) (A) (A) (A) (A) (A) (A) (A)
                 (A) (A) (A) (A) (A) (A) (A) (A) (A) (A) (A) (A)
                 (A) (A) (A) (A) (A) (A) (A) (A) (A) (A) (A) (A)
                 (A) (A) (A) (A) (A) (A) (A) (A) (A)
 The electronic state is 1-A.
 Alpha  occ. eigenvalues --  -24.72354 -24.71914 -19.10538 -14.33562 -10.28363
 Alpha  occ. eigenvalues --  -10.28305 -10.22290 -10.21769 -10.21314 -10.21017
 Alpha  occ. eigenvalues --  -10.20797 -10.20008 -10.19949 -10.18482 -10.18057
 Alpha  occ. eigenvalues --  -10.17597 -10.17338  -1.23675  -1.23269  -0.98407
 Alpha  occ. eigenvalues --   -0.92060  -0.87106  -0.80368  -0.77268  -0.75511
 Alpha  occ. eigenvalues --   -0.75478  -0.69485  -0.66035  -0.65583  -0.63166
 Alpha  occ. eigenvalues --   -0.61755  -0.59700  -0.56467  -0.55826  -0.53135
 Alpha  occ. eigenvalues --   -0.49981  -0.49754  -0.49439  -0.48327  -0.47363
 Alpha  occ. eigenvalues --   -0.46778  -0.46546  -0.44634  -0.44313  -0.43179
 Alpha  occ. eigenvalues --   -0.42666  -0.41806  -0.40584  -0.40047  -0.39544
 Alpha  occ. eigenvalues --   -0.39021  -0.37598  -0.37209  -0.36512  -0.35676
 Alpha  occ. eigenvalues --   -0.35193  -0.34749  -0.34191  -0.33472  -0.31483
 Alpha  occ. eigenvalues --   -0.30798  -0.25711  -0.24854  -0.24174  -0.23012
 Alpha virt. eigenvalues --   -0.01557  -0.00382   0.06681   0.08356   0.09416
 Alpha virt. eigenvalues --    0.10523   0.11938   0.13193   0.14026   0.14510
 Alpha virt. eigenvalues --    0.14756   0.14954   0.15121   0.16128   0.16623
 Alpha virt. eigenvalues --    0.17611   0.17900   0.18253   0.18764   0.19596
 Alpha virt. eigenvalues --    0.19869   0.20628   0.21983   0.22641   0.22900
 Alpha virt. eigenvalues --    0.23779   0.24648   0.25081   0.26188   0.27544
 Alpha virt. eigenvalues --    0.27705   0.28693   0.29367   0.30790   0.33142
 Alpha virt. eigenvalues --    0.37159   0.38399   0.46388   0.48762   0.49254
 Alpha virt. eigenvalues --    0.49630   0.50901   0.51400   0.51778   0.52906
 Alpha virt. eigenvalues --    0.53413   0.54395   0.55969   0.57386   0.57821
 Alpha virt. eigenvalues --    0.59000   0.59340   0.59532   0.60053   0.60903
 Alpha virt. eigenvalues --    0.61287   0.62527   0.63275   0.64497   0.65572
 Alpha virt. eigenvalues --    0.66744   0.67104   0.67910   0.68797   0.70850
 Alpha virt. eigenvalues --    0.73296   0.74066   0.76571   0.77953   0.78074
 Alpha virt. eigenvalues --    0.79172   0.80334   0.81857   0.82995   0.84136
 Alpha virt. eigenvalues --    0.84259   0.84681   0.85502   0.86120   0.87043
 Alpha virt. eigenvalues --    0.87521   0.88714   0.89180   0.89278   0.89810
 Alpha virt. eigenvalues --    0.90654   0.91614   0.92228   0.93049   0.93835
 Alpha virt. eigenvalues --    0.95708   0.96494   0.96933   0.97779   0.98754
 Alpha virt. eigenvalues --    1.01873   1.02615   1.03613   1.04202   1.05117
 Alpha virt. eigenvalues --    1.08955   1.10909   1.10994   1.13789   1.18950
 Alpha virt. eigenvalues --    1.20750   1.20821   1.21494   1.22535   1.22828
 Alpha virt. eigenvalues --    1.24118   1.25179   1.26696   1.29057   1.31682
 Alpha virt. eigenvalues --    1.34970   1.35483   1.37340   1.38477   1.39220
 Alpha virt. eigenvalues --    1.40894   1.41599   1.43129   1.43196   1.45470
 Alpha virt. eigenvalues --    1.47007   1.48700   1.49421   1.51099   1.53221
 Alpha virt. eigenvalues --    1.55235   1.57336   1.59470   1.61208   1.66373
 Alpha virt. eigenvalues --    1.68471   1.70062   1.72025   1.72838   1.73708
 Alpha virt. eigenvalues --    1.75842   1.77229   1.77932   1.79194   1.80909
 Alpha virt. eigenvalues --    1.81556   1.82184   1.83060   1.84456   1.85378
 Alpha virt. eigenvalues --    1.85789   1.87799   1.88962   1.89239   1.89658
 Alpha virt. eigenvalues --    1.89983   1.90968   1.91491   1.93645   1.95083
 Alpha virt. eigenvalues --    1.95667   1.95988   1.97970   1.99451   1.99964
 Alpha virt. eigenvalues --    2.01359   2.02514   2.04219   2.05132   2.05442
 Alpha virt. eigenvalues --    2.06198   2.07428   2.08975   2.09659   2.10752
 Alpha virt. eigenvalues --    2.11894   2.13676   2.16054   2.16215   2.18104
 Alpha virt. eigenvalues --    2.19629   2.20600   2.22168   2.22992   2.25644
 Alpha virt. eigenvalues --    2.26681   2.27272   2.28283   2.29369   2.29951
 Alpha virt. eigenvalues --    2.30712   2.31515   2.32985   2.33464   2.36806
 Alpha virt. eigenvalues --    2.37568   2.37886   2.38627   2.40064   2.40697
 Alpha virt. eigenvalues --    2.40911   2.42901   2.44699   2.45210   2.48474
 Alpha virt. eigenvalues --    2.52092   2.52348   2.52608   2.54376   2.54956
 Alpha virt. eigenvalues --    2.56261   2.57696   2.57806   2.61409   2.62312
 Alpha virt. eigenvalues --    2.63379   2.65133   2.65913   2.66394   2.67832
 Alpha virt. eigenvalues --    2.69826   2.72176   2.73815   2.74564   2.75183
 Alpha virt. eigenvalues --    2.76267   2.77054   2.79908   2.81556   2.83284
 Alpha virt. eigenvalues --    2.83835   2.85047   2.88218   2.89018   2.89292
 Alpha virt. eigenvalues --    2.91514   2.91957   2.92870   2.94909   2.96126
 Alpha virt. eigenvalues --    2.97735   3.01520   3.04350   3.06284   3.07438
 Alpha virt. eigenvalues --    3.10365   3.14522   3.19795   3.20686   3.22141
 Alpha virt. eigenvalues --    3.25178   3.27643   3.30091   3.32504   3.34948
 Alpha virt. eigenvalues --    3.35488   3.37122   3.39728   3.40655   3.45685
 Alpha virt. eigenvalues --    3.46150   3.47950   3.49767   3.52756   3.55170
 Alpha virt. eigenvalues --    3.56448   3.62356   3.80264   3.98839   4.09111
 Alpha virt. eigenvalues --    4.09633   4.11694   4.16840   4.33674   4.38044
 Alpha virt. eigenvalues --    4.42419   4.44895   4.53133   4.58015   4.62406
 Alpha virt. eigenvalues --    4.65424   4.74903   4.79013   5.51563   5.62902
          Condensed to atoms (all electrons):
               1          2          3          4          5          6
     1  C    4.940347   0.365046  -0.041575  -0.006188   0.000086  -0.000008
     2  C    0.365046   4.992426   0.363028  -0.052222   0.003892  -0.000145
     3  C   -0.041575   0.363028   4.847846   0.374781  -0.029812  -0.004999
     4  C   -0.006188  -0.052222   0.374781   5.020404   0.361753  -0.042323
     5  C    0.000086   0.003892  -0.029812   0.361753   4.711593   0.262408
     6  O   -0.000008  -0.000145  -0.004999  -0.042323   0.262408   8.224322
     7  N   -0.006650  -0.059100   0.268822  -0.049378   0.001227  -0.034252
     8  C   -0.000939  -0.005841  -0.039804   0.005516  -0.000050   0.000781
     9  C    0.000000   0.000000   0.000000   0.000000   0.000000   0.000000
    10  C    0.000000   0.000000   0.000004   0.000000   0.000000   0.000001
    11  C    0.000000   0.000004   0.000007  -0.000015   0.000000  -0.000083
    12  C    0.000019   0.000200   0.004472  -0.000199  -0.000040   0.000003
    13  C   -0.000034  -0.000024   0.000154   0.000002   0.000000   0.000018
    14  C   -0.000001   0.000000   0.000005   0.000000   0.000000   0.000000
    15  H    0.000000   0.000000   0.000000   0.000000   0.000000   0.000000
    16  H    0.000000   0.000000   0.000000   0.000000   0.000000   0.000000
    17  H    0.000000   0.000000   0.000000   0.000000   0.000000   0.000000
    18  F    0.000000   0.000000  -0.000004   0.000000  -0.000001  -0.000004
    19  F   -0.000179  -0.000002   0.000019   0.000000   0.000000   0.000000
    20  H    0.380727  -0.037581  -0.004626  -0.000430  -0.000012   0.000004
    21  H    0.382912  -0.028048   0.004303   0.000117  -0.000002   0.000000
    22  H    0.388690  -0.037029  -0.005432   0.003082  -0.000043  -0.000001
    23  H   -0.039129   0.371026  -0.027052  -0.005991   0.000074   0.000004
    24  H   -0.043241   0.379961  -0.031377   0.004951  -0.000110   0.000001
    25  H    0.003042  -0.006732  -0.047105   0.372362  -0.042984   0.005035
    26  H   -0.000004   0.000036  -0.014458  -0.046580   0.360411  -0.043397
    27  H    0.000004  -0.000176   0.004829  -0.032921   0.380821  -0.038576
    28  H   -0.000004   0.000854  -0.001397  -0.008552  -0.037334   0.276787
    29  H    0.000054  -0.001691  -0.002994   0.000243  -0.000018   0.000117
    30  H    0.000978   0.004075  -0.004093  -0.000259  -0.000002  -0.000045
    31  H    0.005158  -0.047249   0.384669  -0.041014  -0.006850   0.000036
    32  C   -0.002489  -0.001572  -0.043799   0.327933  -0.041595   0.003391
    33  H   -0.000004   0.000104   0.004334  -0.030372  -0.005979   0.000058
    34  H    0.000802   0.000777  -0.005027  -0.022591   0.003907  -0.000081
    35  H    0.000151  -0.001465  -0.006755  -0.034911  -0.004848  -0.000008
    36  H    0.004692  -0.009156  -0.032592  -0.002843  -0.000419   0.001546
               7          8          9         10         11         12
     1  C   -0.006650  -0.000939   0.000000   0.000000   0.000000   0.000019
     2  C   -0.059100  -0.005841   0.000000   0.000000   0.000004   0.000200
     3  C    0.268822  -0.039804   0.000000   0.000004   0.000007   0.004472
     4  C   -0.049378   0.005516   0.000000   0.000000  -0.000015  -0.000199
     5  C    0.001227  -0.000050   0.000000   0.000000   0.000000  -0.000040
     6  O   -0.034252   0.000781   0.000000   0.000001  -0.000083   0.000003
     7  N    6.947341   0.269007   0.000024  -0.000085   0.003339  -0.050092
     8  C    0.269007   4.938141  -0.000611   0.008409  -0.047815   0.302102
     9  C    0.000024  -0.000611   4.852202   0.485076  -0.007958  -0.028133
    10  C   -0.000085   0.008409   0.485076   5.052682   0.472162  -0.071326
    11  C    0.003339  -0.047815  -0.007958   0.472162   4.586726   0.415466
    12  C   -0.050092   0.302102  -0.028133  -0.071326   0.415466   5.316651
    13  C   -0.006605  -0.049182  -0.008954  -0.048930   0.016245   0.393906
    14  C   -0.000149   0.008757   0.486915  -0.030823  -0.050246  -0.075241
    15  H    0.000000   0.000004   0.375719  -0.034273   0.003608   0.000214
    16  H    0.000002  -0.000147  -0.037209   0.359424  -0.032399   0.006381
    17  H    0.000001  -0.000156  -0.037028   0.004655   0.000501   0.006460
    18  F   -0.000285  -0.002282   0.003047  -0.046592   0.310441  -0.053414
    19  F   -0.002046   0.003828   0.002971  -0.000071   0.002359  -0.059331
    20  H    0.002858   0.000971   0.000000   0.000000  -0.000002  -0.000186
    21  H    0.000179  -0.000006   0.000000   0.000000   0.000000   0.000000
    22  H   -0.000163   0.000036   0.000000   0.000000   0.000000   0.000002
    23  H    0.004773   0.000138   0.000000   0.000000   0.000000  -0.000001
    24  H   -0.005015   0.002503   0.000000   0.000000  -0.000008   0.000002
    25  H   -0.003620   0.000017   0.000000   0.000000   0.000001   0.000009
    26  H    0.000976   0.000028   0.000000   0.000000   0.000001  -0.000006
    27  H   -0.000276   0.000009   0.000000   0.000000   0.000000   0.000000
    28  H    0.068144  -0.003497  -0.000009  -0.000007   0.001300   0.000578
    29  H   -0.040781   0.379279  -0.000030   0.000470  -0.007519  -0.030516
    30  H   -0.044756   0.358040  -0.000017  -0.000202   0.005264  -0.034006
    31  H   -0.045272  -0.006178   0.000000   0.000000   0.000022   0.000094
    32  C    0.004070  -0.000113   0.000000   0.000000   0.000000   0.000002
    33  H   -0.000090   0.000002   0.000000   0.000000   0.000000   0.000000
    34  H   -0.000054  -0.000003   0.000000   0.000000   0.000000   0.000000
    35  H    0.000045   0.000000   0.000000   0.000000   0.000000   0.000000
    36  H    0.326803  -0.030779  -0.000013   0.000008  -0.000319  -0.008099
              13         14         15         16         17         18
     1  C   -0.000034  -0.000001   0.000000   0.000000   0.000000   0.000000
     2  C   -0.000024   0.000000   0.000000   0.000000   0.000000   0.000000
     3  C    0.000154   0.000005   0.000000   0.000000   0.000000  -0.000004
     4  C    0.000002   0.000000   0.000000   0.000000   0.000000   0.000000
     5  C    0.000000   0.000000   0.000000   0.000000   0.000000  -0.000001
     6  O    0.000018   0.000000   0.000000   0.000000   0.000000  -0.000004
     7  N   -0.006605  -0.000149   0.000000   0.000002   0.000001  -0.000285
     8  C   -0.049182   0.008757   0.000004  -0.000147  -0.000156  -0.002282
     9  C   -0.008954   0.486915   0.375719  -0.037209  -0.037028   0.003047
    10  C   -0.048930  -0.030823  -0.034273   0.359424   0.004655  -0.046592
    11  C    0.016245  -0.050246   0.003608  -0.032399   0.000501   0.310441
    12  C    0.393906  -0.075241   0.000214   0.006381   0.006460  -0.053414
    13  C    4.613420   0.477269   0.003633   0.000484  -0.032663   0.002490
    14  C    0.477269   5.052600  -0.034742   0.004708   0.359101  -0.000052
    15  H    0.003633  -0.034742   0.578573  -0.005887  -0.005920  -0.000022
    16  H    0.000484   0.004708  -0.005887   0.591244  -0.000150  -0.000558
    17  H   -0.032663   0.359101  -0.005920  -0.000150   0.592069   0.000001
    18  F    0.002490  -0.000052  -0.000022  -0.000558   0.000001   9.065673
    19  F    0.309873  -0.047673  -0.000022   0.000001  -0.000442   0.000000
    20  H    0.000094   0.000005   0.000000   0.000000   0.000000   0.000000
    21  H    0.000000   0.000000   0.000000   0.000000   0.000000   0.000000
    22  H    0.000000   0.000000   0.000000   0.000000   0.000000   0.000000
    23  H    0.000000   0.000000   0.000000   0.000000   0.000000   0.000000
    24  H    0.000013   0.000000   0.000000   0.000000   0.000000   0.000000
    25  H   -0.000004   0.000000   0.000000   0.000000   0.000000   0.000000
    26  H    0.000000   0.000000   0.000000   0.000000   0.000000   0.000002
    27  H    0.000000   0.000000   0.000000   0.000000   0.000000   0.000000
    28  H   -0.000188  -0.000011   0.000000   0.000001   0.000000   0.000174
    29  H    0.005053  -0.000165   0.000000  -0.000007   0.000002   0.009336
    30  H   -0.011100   0.000023   0.000000   0.000003   0.000001   0.000211
    31  H   -0.000012   0.000000   0.000000   0.000000   0.000000  -0.000024
    32  C    0.000000   0.000000   0.000000   0.000000   0.000000   0.000000
    33  H    0.000000   0.000000   0.000000   0.000000   0.000000   0.000000
    34  H    0.000000   0.000000   0.000000   0.000000   0.000000   0.000000
    35  H    0.000000   0.000000   0.000000   0.000000   0.000000   0.000000
    36  H    0.004481  -0.000040   0.000000   0.000000   0.000001  -0.000012
              19         20         21         22         23         24
     1  C   -0.000179   0.380727   0.382912   0.388690  -0.039129  -0.043241
     2  C   -0.000002  -0.037581  -0.028048  -0.037029   0.371026   0.379961
     3  C    0.000019  -0.004626   0.004303  -0.005432  -0.027052  -0.031377
     4  C    0.000000  -0.000430   0.000117   0.003082  -0.005991   0.004951
     5  C    0.000000  -0.000012  -0.000002  -0.000043   0.000074  -0.000110
     6  O    0.000000   0.000004   0.000000  -0.000001   0.000004   0.000001
     7  N   -0.002046   0.002858   0.000179  -0.000163   0.004773  -0.005015
     8  C    0.003828   0.000971  -0.000006   0.000036   0.000138   0.002503
     9  C    0.002971   0.000000   0.000000   0.000000   0.000000   0.000000
    10  C   -0.000071   0.000000   0.000000   0.000000   0.000000   0.000000
    11  C    0.002359  -0.000002   0.000000   0.000000   0.000000  -0.000008
    12  C   -0.059331  -0.000186   0.000000   0.000002  -0.000001   0.000002
    13  C    0.309873   0.000094   0.000000   0.000000   0.000000   0.000013
    14  C   -0.047673   0.000005   0.000000   0.000000   0.000000   0.000000
    15  H   -0.000022   0.000000   0.000000   0.000000   0.000000   0.000000
    16  H    0.000001   0.000000   0.000000   0.000000   0.000000   0.000000
    17  H   -0.000442   0.000000   0.000000   0.000000   0.000000   0.000000
    18  F    0.000000   0.000000   0.000000   0.000000   0.000000   0.000000
    19  F    9.070475   0.001056   0.000000   0.000001   0.000000  -0.000013
    20  H    0.001056   0.610139  -0.029878  -0.032508   0.005902  -0.005308
    21  H    0.000000  -0.029878   0.597950  -0.030040  -0.003925  -0.003381
    22  H    0.000001  -0.032508  -0.030040   0.594451  -0.004957   0.005623
    23  H    0.000000   0.005902  -0.003925  -0.004957   0.630130  -0.035928
    24  H   -0.000013  -0.005308  -0.003381   0.005623  -0.035928   0.635061
    25  H    0.000000  -0.000088  -0.000078   0.001731   0.000087  -0.000054
    26  H    0.000000  -0.000001   0.000000  -0.000002  -0.000015  -0.000003
    27  H    0.000000   0.000000   0.000000   0.000009   0.000002   0.000002
    28  H   -0.000006  -0.000035   0.000000  -0.000008  -0.000029  -0.000003
    29  H    0.000179   0.000007   0.000001   0.000000   0.000001   0.000586
    30  H    0.004282  -0.000418  -0.000062  -0.000021  -0.000342   0.001283
    31  H   -0.000001   0.000012  -0.000149   0.000021  -0.001941  -0.004348
    32  C    0.000000   0.000086   0.000005   0.000113   0.002431   0.000118
    33  H    0.000000   0.000002   0.000001  -0.000043  -0.000017  -0.000002
    34  H    0.000000  -0.000036  -0.000055   0.001588   0.000957   0.000005
    35  H    0.000000  -0.000004   0.000001  -0.000025   0.000935  -0.000044
    36  H    0.005348   0.005684  -0.000235   0.000083   0.000098  -0.000022
              25         26         27         28         29         30
     1  C    0.003042  -0.000004   0.000004  -0.000004   0.000054   0.000978
     2  C   -0.006732   0.000036  -0.000176   0.000854  -0.001691   0.004075
     3  C   -0.047105  -0.014458   0.004829  -0.001397  -0.002994  -0.004093
     4  C    0.372362  -0.046580  -0.032921  -0.008552   0.000243  -0.000259
     5  C   -0.042984   0.360411   0.380821  -0.037334  -0.000018  -0.000002
     6  O    0.005035  -0.043397  -0.038576   0.276787   0.000117  -0.000045
     7  N   -0.003620   0.000976  -0.000276   0.068144  -0.040781  -0.044756
     8  C    0.000017   0.000028   0.000009  -0.003497   0.379279   0.358040
     9  C    0.000000   0.000000   0.000000  -0.000009  -0.000030  -0.000017
    10  C    0.000000   0.000000   0.000000  -0.000007   0.000470  -0.000202
    11  C    0.000001   0.000001   0.000000   0.001300  -0.007519   0.005264
    12  C    0.000009  -0.000006   0.000000   0.000578  -0.030516  -0.034006
    13  C   -0.000004   0.000000   0.000000  -0.000188   0.005053  -0.011100
    14  C    0.000000   0.000000   0.000000  -0.000011  -0.000165   0.000023
    15  H    0.000000   0.000000   0.000000   0.000000   0.000000   0.000000
    16  H    0.000000   0.000000   0.000000   0.000001  -0.000007   0.000003
    17  H    0.000000   0.000000   0.000000   0.000000   0.000002   0.000001
    18  F    0.000000   0.000002   0.000000   0.000174   0.009336   0.000211
    19  F    0.000000   0.000000   0.000000  -0.000006   0.000179   0.004282
    20  H   -0.000088  -0.000001   0.000000  -0.000035   0.000007  -0.000418
    21  H   -0.000078   0.000000   0.000000   0.000000   0.000001  -0.000062
    22  H    0.001731  -0.000002   0.000009  -0.000008   0.000000  -0.000021
    23  H    0.000087  -0.000015   0.000002  -0.000029   0.000001  -0.000342
    24  H   -0.000054  -0.000003   0.000002  -0.000003   0.000586   0.001283
    25  H    0.653127   0.007405  -0.005837  -0.000811   0.000001   0.000000
    26  H    0.007405   0.709952  -0.053214  -0.002934  -0.000045   0.000003
    27  H   -0.005837  -0.053214   0.650662   0.005599   0.000001   0.000000
    28  H   -0.000811  -0.002934   0.005599   0.385093  -0.000529   0.000591
    29  H    0.000001  -0.000045   0.000001  -0.000529   0.592531  -0.043022
    30  H    0.000000   0.000003   0.000000   0.000591  -0.043022   0.660732
    31  H    0.006173   0.005764  -0.000017  -0.000525   0.006320  -0.000709
    32  C   -0.035715   0.001748  -0.005980   0.000075  -0.000008   0.000007
    33  H   -0.002969  -0.000339   0.006040  -0.000014   0.000000   0.000000
    34  H   -0.005868  -0.000260  -0.000040   0.000007   0.000000   0.000000
    35  H    0.005868   0.003845  -0.000387   0.000005  -0.000003   0.000000
    36  H    0.003883   0.000076   0.000002  -0.003538   0.005941  -0.007524
              31         32         33         34         35         36
     1  C    0.005158  -0.002489  -0.000004   0.000802   0.000151   0.004692
     2  C   -0.047249  -0.001572   0.000104   0.000777  -0.001465  -0.009156
     3  C    0.384669  -0.043799   0.004334  -0.005027  -0.006755  -0.032592
     4  C   -0.041014   0.327933  -0.030372  -0.022591  -0.034911  -0.002843
     5  C   -0.006850  -0.041595  -0.005979   0.003907  -0.004848  -0.000419
     6  O    0.000036   0.003391   0.000058  -0.000081  -0.000008   0.001546
     7  N   -0.045272   0.004070  -0.000090  -0.000054   0.000045   0.326803
     8  C   -0.006178  -0.000113   0.000002  -0.000003   0.000000  -0.030779
     9  C    0.000000   0.000000   0.000000   0.000000   0.000000  -0.000013
    10  C    0.000000   0.000000   0.000000   0.000000   0.000000   0.000008
    11  C    0.000022   0.000000   0.000000   0.000000   0.000000  -0.000319
    12  C    0.000094   0.000002   0.000000   0.000000   0.000000  -0.008099
    13  C   -0.000012   0.000000   0.000000   0.000000   0.000000   0.004481
    14  C    0.000000   0.000000   0.000000   0.000000   0.000000  -0.000040
    15  H    0.000000   0.000000   0.000000   0.000000   0.000000   0.000000
    16  H    0.000000   0.000000   0.000000   0.000000   0.000000   0.000000
    17  H    0.000000   0.000000   0.000000   0.000000   0.000000   0.000001
    18  F   -0.000024   0.000000   0.000000   0.000000   0.000000  -0.000012
    19  F   -0.000001   0.000000   0.000000   0.000000   0.000000   0.005348
    20  H    0.000012   0.000086   0.000002  -0.000036  -0.000004   0.005684
    21  H   -0.000149   0.000005   0.000001  -0.000055   0.000001  -0.000235
    22  H    0.000021   0.000113  -0.000043   0.001588  -0.000025   0.000083
    23  H   -0.001941   0.002431  -0.000017   0.000957   0.000935   0.000098
    24  H   -0.004348   0.000118  -0.000002   0.000005  -0.000044  -0.000022
    25  H    0.006173  -0.035715  -0.002969  -0.005868   0.005868   0.003883
    26  H    0.005764   0.001748  -0.000339  -0.000260   0.003845   0.000076
    27  H   -0.000017  -0.005980   0.006040  -0.000040  -0.000387   0.000002
    28  H   -0.000525   0.000075  -0.000014   0.000007   0.000005  -0.003538
    29  H    0.006320  -0.000008   0.000000   0.000000  -0.000003   0.005941
    30  H   -0.000709   0.000007   0.000000   0.000000   0.000000  -0.007524
    31  H    0.640254  -0.004829  -0.000101  -0.000143   0.005190   0.006296
    32  C   -0.004829   4.988208   0.380358   0.374472   0.383513  -0.000086
    33  H   -0.000101   0.380358   0.606283  -0.030679  -0.031865   0.000003
    34  H   -0.000143   0.374472  -0.030679   0.605790  -0.032190  -0.000004
    35  H    0.005190   0.383513  -0.031865  -0.032190   0.606805   0.000011
    36  H    0.006296  -0.000086   0.000003  -0.000004   0.000011   0.466917
 Mulliken charges:
               1
     1  C   -0.332260
     2  C   -0.193395
     3  C    0.085629
     4  C   -0.094353
     5  C    0.083925
     6  O   -0.610588
     7  N   -0.548941
     8  C   -0.090162
     9  C   -0.085992
    10  C   -0.150585
    11  C    0.328918
    12  C   -0.035972
    13  C    0.330560
    14  C   -0.150239
    15  H    0.119114
    16  H    0.114111
    17  H    0.113568
    18  F   -0.288124
    19  F   -0.290602
    20  H    0.103567
    21  H    0.110390
    22  H    0.114845
    23  H    0.102771
    24  H    0.098749
    25  H    0.093126
    26  H    0.071011
    27  H    0.089445
    28  H    0.320221
    29  H    0.127208
    30  H    0.111087
    31  H    0.099353
    32  C   -0.330345
    33  H    0.105290
    34  H    0.108725
    35  H    0.106134
    36  H    0.263811
 Sum of Mulliken charges =   0.00000
 Mulliken charges with hydrogens summed into heavy atoms:
               1
     1  C   -0.003458
     2  C    0.008125
     3  C    0.184982
     4  C   -0.001226
     5  C    0.244381
     6  O   -0.290367
     7  N   -0.285130
     8  C    0.148133
     9  C    0.033123
    10  C   -0.036474
    11  C    0.328918
    12  C   -0.035972
    13  C    0.330560
    14  C   -0.036671
    18  F   -0.288124
    19  F   -0.290602
    32  C   -0.010196
 Electronic spatial extent (au):  <R**2>=           4974.9152
 Charge=              0.0000 electrons
 Dipole moment (field-independent basis, Debye):
    X=             -0.8356    Y=              2.9104    Z=              1.8358  Tot=              3.5410
 Quadrupole moment (field-independent basis, Debye-Ang):
   XX=            -84.4561   YY=           -107.2080   ZZ=           -103.9172
   XY=              3.6036   XZ=              6.1877   YZ=             -4.8785
 Traceless Quadrupole moment (field-independent basis, Debye-Ang):
   XX=             14.0710   YY=             -8.6809   ZZ=             -5.3901
   XY=              3.6036   XZ=              6.1877   YZ=             -4.8785
 Octapole moment (field-independent basis, Debye-Ang**2):
  XXX=            -61.3225  YYY=              8.4231  ZZZ=             10.0277  XYY=             -8.7294
  XXY=            -10.9961  XXZ=            -20.6219  XZZ=             -7.6233  YZZ=             12.6048
  YYZ=             11.3371  XYZ=             -1.5189
 Hexadecapole moment (field-independent basis, Debye-Ang**3):
 XXXX=          -4296.7778 YYYY=          -1364.5197 ZZZZ=           -533.8317 XXXY=             28.4474
 XXXZ=             68.6844 YYYX=             18.3390 YYYZ=            -41.7485 ZZZX=             -4.1801
 ZZZY=            -44.3185 XXYY=           -951.0968 XXZZ=           -852.5222 YYZZ=           -329.2081
 XXYZ=            -21.4315 YYXZ=             13.6509 ZZXY=             -7.7945
 N-N= 1.279360275795D+03 E-N=-4.512438286921D+03  KE= 8.291821792329D+02
 D1PCM: PCM CHGder 1st derivatives, ID1Alg=3 FixD1E=F DoIter=F DoCFld=F I1PDM=0.
 Calling FoFJK, ICntrl=      2127 FMM=F ISym2X=0 I1Cent= 0 IOpClX= 0 NMat=1 NMatS=1 NMatT=0.
 ***** Axes restored to original set *****
 -------------------------------------------------------------------
 Center     Atomic                   Forces (Hartrees/Bohr)
 Number     Number              X              Y              Z
 -------------------------------------------------------------------
      1        6          -0.002728269   -0.000395932   -0.001930088
      2        6          -0.001500769   -0.004987884    0.003843929
      3        6          -0.012944765    0.005454964    0.000221182
      4        6          -0.000437475   -0.005270228    0.007768524
      5        6           0.010047784    0.004410480   -0.016599686
      6        8           0.002184591    0.008695456    0.000902575
      7        7           0.003117568   -0.000736590    0.005674839
      8        6           0.000240667   -0.005632837   -0.005091472
      9        6          -0.004160784   -0.003024645    0.003255923
     10        6           0.005951170    0.000562456    0.005615913
     11        6           0.006347947    0.010776079   -0.018427082
     12        6          -0.006046355   -0.005920930    0.003798903
     13        6           0.023246438    0.008938430    0.005178947
     14        6          -0.003407309    0.001638930   -0.007902018
     15        1          -0.001462511   -0.001087968    0.000746601
     16        1          -0.001088582   -0.000921565    0.000460591
     17        1          -0.001127703   -0.000905479    0.000539091
     18        9          -0.002435708   -0.003233388    0.005490324
     19        9          -0.008865632   -0.003413516   -0.001118823
     20        1          -0.000656619    0.001288808   -0.001549596
     21        1           0.000271912    0.001134036   -0.000938787
     22        1          -0.000393769    0.001193003   -0.001137812
     23        1           0.001069074    0.000844940    0.001571136
     24        1           0.002218945    0.000746304    0.001352097
     25        1           0.001795931    0.001504102    0.000649076
     26        1          -0.003282635   -0.007132242    0.005246390
     27        1          -0.001863795   -0.000772522   -0.000051438
     28        1          -0.003115661   -0.001591589    0.002037736
     29        1          -0.003050070    0.004297354    0.000400787
     30        1           0.000993434   -0.002844010   -0.001222758
     31        1           0.003265320    0.001565641   -0.001337381
     32        6          -0.004165141   -0.001683302   -0.003168770
     33        1           0.001312198    0.000049684    0.000148053
     34        1           0.000029645   -0.001663081    0.001371926
     35        1          -0.000581617   -0.000720246    0.000641007
     36        1           0.001222545   -0.001162714    0.003560159
 -------------------------------------------------------------------
 Cartesian Forces:  Max     0.023246438 RMS     0.005015351

 GradGradGradGradGradGradGradGradGradGradGradGradGradGradGradGradGradGrad
 Berny optimization.
 FormGI is forming the generalized inverse of G from B-inverse, IUseBI=4.
 Internal  Forces:  Max     0.009193995 RMS     0.002722620
 Search for a local minimum.
 Step number   1 out of a maximum of   50
 All quantities printed in internal units (Hartrees-Bohrs-Radians)
 Mixed Optimization -- RFO/linear search
 Second derivative matrix not updated -- first step.
 ITU=  0
     Eigenvalues ---    0.00230   0.00230   0.00230   0.00323   0.00455
     Eigenvalues ---    0.00673   0.00749   0.00827   0.01402   0.01568
     Eigenvalues ---    0.02146   0.02152   0.02155   0.02160   0.02162
     Eigenvalues ---    0.02167   0.02167   0.02168   0.02675   0.03195
     Eigenvalues ---    0.03514   0.03585   0.04483   0.04653   0.04707
     Eigenvalues ---    0.04816   0.04986   0.05205   0.05395   0.05428
     Eigenvalues ---    0.05513   0.05544   0.05713   0.05991   0.06565
     Eigenvalues ---    0.08867   0.09756   0.11172   0.11708   0.12582
     Eigenvalues ---    0.13128   0.13912   0.16000   0.16000   0.16000
     Eigenvalues ---    0.16000   0.16000   0.16000   0.16000   0.16000
     Eigenvalues ---    0.16000   0.16000   0.16287   0.17015   0.17258
     Eigenvalues ---    0.18274   0.21892   0.21928   0.22015   0.22085
     Eigenvalues ---    0.23401   0.23490   0.24906   0.24995   0.24999
     Eigenvalues ---    0.25000   0.26384   0.27768   0.28166   0.29106
     Eigenvalues ---    0.30034   0.32242   0.33798   0.33883   0.34047
     Eigenvalues ---    0.34075   0.34114   0.34120   0.34174   0.34193
     Eigenvalues ---    0.34224   0.34226   0.34257   0.34377   0.34385
     Eigenvalues ---    0.34422   0.34915   0.35165   0.35275   0.35293
     Eigenvalues ---    0.36300   0.42173   0.42354   0.42490   0.43891
     Eigenvalues ---    0.46346   0.46490   0.46553   0.46619   0.50871
     Eigenvalues ---    0.56891   0.57025
 RFO step:  Lambda=-7.33652877D-03 EMin= 2.30000000D-03
 Linear search not attempted -- first point.
 Iteration  1 RMS(Cart)=  0.03270058 RMS(Int)=  0.00057164
 Iteration  2 RMS(Cart)=  0.00093774 RMS(Int)=  0.00030034
 Iteration  3 RMS(Cart)=  0.00000118 RMS(Int)=  0.00030034
 Iteration  4 RMS(Cart)=  0.00000000 RMS(Int)=  0.00030034
 Variable       Old X    -DE/DX   Delta X   Delta X   Delta X     New X
                                 (Linear)    (Quad)   (Total)
    R1        2.87896   0.00732   0.00000   0.02378   0.02378   2.90273
    R2        2.06685   0.00120   0.00000   0.00343   0.00343   2.07028
    R3        2.06950  -0.00049   0.00000  -0.00141  -0.00141   2.06809
    R4        2.06624   0.00069   0.00000   0.00197   0.00197   2.06821
    R5        2.92649   0.00040   0.00000   0.00140   0.00140   2.92790
    R6        2.07138  -0.00016   0.00000  -0.00047  -0.00047   2.07092
    R7        2.07203   0.00026   0.00000   0.00075   0.00075   2.07278
    R8        2.95814  -0.00446   0.00000  -0.01644  -0.01644   2.94170
    R9        2.79114   0.00501   0.00000   0.01406   0.01406   2.80520
   R10        2.07672  -0.00034   0.00000  -0.00098  -0.00098   2.07574
   R11        2.91776  -0.00087   0.00000  -0.00300  -0.00300   2.91476
   R12        2.07528  -0.00026   0.00000  -0.00074  -0.00074   2.07454
   R13        2.89783   0.00358   0.00000   0.01199   0.01199   2.90981
   R14        2.68703   0.00195   0.00000   0.00454   0.00454   2.69157
   R15        2.07006   0.00563   0.00000   0.01613   0.01613   2.08619
   R16        2.06898   0.00056   0.00000   0.00160   0.00160   2.07058
   R17        1.85696  -0.00170   0.00000  -0.00330  -0.00330   1.85366
   R18        2.76916   0.00670   0.00000   0.01808   0.01808   2.78724
   R19        1.93286  -0.00387   0.00000  -0.00867  -0.00867   1.92419
   R20        2.83704   0.00795   0.00000   0.02412   0.02412   2.86115
   R21        2.07251  -0.00303   0.00000  -0.00872  -0.00872   2.06379
   R22        2.07128   0.00236   0.00000   0.00677   0.00677   2.07806
   R23        2.63465   0.00083   0.00000   0.00196   0.00193   2.63658
   R24        2.63403   0.00151   0.00000   0.00333   0.00331   2.63734
   R25        2.05408  -0.00197   0.00000  -0.00548  -0.00548   2.04860
   R26        2.63556  -0.00313   0.00000  -0.00657  -0.00658   2.62899
   R27        2.05231  -0.00082   0.00000  -0.00228  -0.00228   2.05004
   R28        2.63687   0.00042   0.00000   0.00074   0.00076   2.63763
   R29        2.53376   0.00595   0.00000   0.01030   0.01030   2.54406
   R30        2.63855  -0.00099   0.00000  -0.00231  -0.00228   2.63627
   R31        2.63464  -0.00383   0.00000  -0.00815  -0.00813   2.62650
   R32        2.53489   0.00854   0.00000   0.01482   0.01482   2.54971
   R33        2.05201  -0.00069   0.00000  -0.00191  -0.00191   2.05010
   R34        2.07038  -0.00052   0.00000  -0.00149  -0.00149   2.06889
   R35        2.06698  -0.00008   0.00000  -0.00022  -0.00022   2.06675
   R36        2.06953   0.00070   0.00000   0.00200   0.00200   2.07153
    A1        1.94948   0.00167   0.00000   0.00855   0.00853   1.95801
    A2        1.91524   0.00129   0.00000   0.00887   0.00882   1.92406
    A3        1.94996   0.00132   0.00000   0.00807   0.00804   1.95800
    A4        1.87453  -0.00159   0.00000  -0.00998  -0.01001   1.86452
    A5        1.89532  -0.00192   0.00000  -0.01361  -0.01362   1.88170
    A6        1.87632  -0.00099   0.00000  -0.00319  -0.00326   1.87307
    A7        2.01514   0.00147   0.00000   0.00585   0.00590   2.02104
    A8        1.89697   0.00074   0.00000   0.01315   0.01315   1.91012
    A9        1.89110   0.00101   0.00000   0.01075   0.01075   1.90185
   A10        1.91067  -0.00156   0.00000  -0.01241  -0.01250   1.89818
   A11        1.91540  -0.00234   0.00000  -0.02272  -0.02276   1.89264
   A12        1.82483   0.00066   0.00000   0.00589   0.00559   1.83042
   A13        1.98510  -0.00204   0.00000   0.00346   0.00288   1.98798
   A14        1.96229   0.00215   0.00000   0.02212   0.02178   1.98407
   A15        1.86939   0.00055   0.00000  -0.00257  -0.00239   1.86700
   A16        1.89576   0.00166   0.00000   0.01944   0.01904   1.91480
   A17        1.85988   0.00052   0.00000  -0.00325  -0.00310   1.85678
   A18        1.88609  -0.00309   0.00000  -0.04428  -0.04408   1.84201
   A19        1.95135  -0.00106   0.00000  -0.00527  -0.00532   1.94603
   A20        1.89528   0.00120   0.00000  -0.00013  -0.00025   1.89503
   A21        1.95771  -0.00225   0.00000  -0.00758  -0.00758   1.95013
   A22        1.87730  -0.00181   0.00000  -0.02024  -0.02036   1.85694
   A23        1.88970   0.00377   0.00000   0.02577   0.02580   1.91550
   A24        1.88991   0.00016   0.00000   0.00707   0.00719   1.89710
   A25        1.94723   0.00902   0.00000   0.04842   0.04843   1.99566
   A26        1.94105  -0.00736   0.00000  -0.04285  -0.04470   1.89634
   A27        1.93304  -0.00340   0.00000  -0.03398  -0.03466   1.89838
   A28        1.89288   0.00311   0.00000   0.05593   0.05621   1.94910
[...]
    29  H    0.000056  -0.001414  -0.002216   0.000100  -0.000014   0.000188
    30  H    0.000876   0.004411  -0.004746  -0.000172  -0.000004  -0.000042
    31  H    0.005215  -0.048288   0.382812  -0.041901  -0.007742   0.000126
    32  C   -0.002202  -0.002218  -0.043880   0.332727  -0.038562   0.002969
    33  H   -0.000008   0.000154   0.004427  -0.030461  -0.005508   0.000040
    34  H    0.000778   0.000694  -0.005157  -0.021640   0.003598  -0.000066
    35  H    0.000146  -0.001598  -0.006414  -0.034932  -0.005115  -0.000005
    36  H    0.004367  -0.008336  -0.033576  -0.003544  -0.000484   0.001570
               7          8          9         10         11         12
     1  C   -0.005739  -0.000868   0.000000   0.000000   0.000000   0.000052
     2  C   -0.057891  -0.006137   0.000000   0.000000   0.000001   0.000132
     3  C    0.264694  -0.036742   0.000000   0.000003  -0.000046   0.004118
     4  C   -0.046317   0.005102   0.000000   0.000000  -0.000005  -0.000201
     5  C    0.001055  -0.000013   0.000000   0.000000  -0.000002  -0.000033
     6  O   -0.034880   0.000676   0.000000   0.000000  -0.000059  -0.000027
     7  N    6.951602   0.271176   0.000022  -0.000069   0.003020  -0.041405
     8  C    0.271176   4.921872  -0.000694   0.007730  -0.047006   0.309119
     9  C    0.000022  -0.000694   4.861762   0.482277  -0.003838  -0.027248
    10  C   -0.000069   0.007730   0.482277   5.044205   0.473619  -0.074878
    11  C    0.003020  -0.047006  -0.003838   0.473619   4.589948   0.420305
    12  C   -0.041405   0.309119  -0.027248  -0.074878   0.420305   5.300864
    13  C   -0.006272  -0.051487  -0.005285  -0.046992   0.020671   0.387906
    14  C   -0.000124   0.008314   0.484214  -0.036016  -0.048354  -0.081876
    15  H    0.000000   0.000005   0.374132  -0.033652   0.003507   0.000443
    16  H    0.000001  -0.000121  -0.036275   0.362375  -0.032043   0.006124
    17  H    0.000001  -0.000136  -0.035806   0.004322   0.000359   0.006136
    18  F   -0.000197  -0.003911   0.003013  -0.044762   0.299354  -0.051064
    19  F   -0.002873   0.004344   0.002835  -0.000015   0.002486  -0.058876
    20  H    0.002718   0.001290   0.000000   0.000000  -0.000004  -0.000406
    21  H    0.000184  -0.000011   0.000000   0.000000   0.000000   0.000000
    22  H   -0.000197   0.000032   0.000000   0.000000   0.000000   0.000002
    23  H    0.004625   0.000179   0.000000   0.000000   0.000000  -0.000001
    24  H   -0.004449   0.001900   0.000000   0.000000  -0.000006  -0.000053
    25  H   -0.004400   0.000015   0.000000   0.000000   0.000000   0.000014
    26  H    0.000777   0.000010   0.000000   0.000000   0.000000   0.000000
    27  H   -0.000299   0.000008   0.000000   0.000000   0.000000   0.000000
    28  H    0.070585  -0.003059  -0.000005  -0.000004   0.000873   0.000626
    29  H   -0.044610   0.377813  -0.000029   0.000426  -0.007239  -0.029207
    30  H   -0.043599   0.356071   0.000002  -0.000192   0.004693  -0.030405
    31  H   -0.048994  -0.004876   0.000000   0.000000   0.000006   0.000149
    32  C    0.003998  -0.000110   0.000000   0.000000   0.000000   0.000002
    33  H   -0.000089   0.000002   0.000000   0.000000   0.000000   0.000000
    34  H   -0.000050  -0.000002   0.000000   0.000000   0.000000   0.000000
    35  H    0.000034   0.000001   0.000000   0.000000   0.000000   0.000000
    36  H    0.327365  -0.034617  -0.000012   0.000005  -0.000169  -0.009121
              13         14         15         16         17         18
     1  C   -0.000047  -0.000002   0.000000   0.000000   0.000000   0.000000
     2  C   -0.000023   0.000000   0.000000   0.000000   0.000000   0.000000
     3  C    0.000212   0.000005   0.000000   0.000000   0.000000   0.000001
     4  C   -0.000004   0.000000   0.000000   0.000000   0.000000   0.000000
     5  C    0.000000   0.000000   0.000000   0.000000   0.000000   0.000000
     6  O    0.000014   0.000000   0.000000   0.000000   0.000000  -0.000002
     7  N   -0.006272  -0.000124   0.000000   0.000001   0.000001  -0.000197
     8  C   -0.051487   0.008314   0.000005  -0.000121  -0.000136  -0.003911
     9  C   -0.005285   0.484214   0.374132  -0.036275  -0.035806   0.003013
    10  C   -0.046992  -0.036016  -0.033652   0.362375   0.004322  -0.044762
    11  C    0.020671  -0.048354   0.003507  -0.032043   0.000359   0.299354
    12  C    0.387906  -0.081876   0.000443   0.006124   0.006136  -0.051064
    13  C    4.627072   0.481501   0.003517   0.000331  -0.032081   0.002719
    14  C    0.481501   5.044217  -0.034477   0.004427   0.361744   0.000009
    15  H    0.003517  -0.034477   0.578114  -0.005633  -0.005592  -0.000024
    16  H    0.000331   0.004427  -0.005633   0.582305  -0.000130  -0.000636
    17  H   -0.032081   0.361744  -0.005592  -0.000130   0.582292   0.000001
    18  F    0.002719   0.000009  -0.000024  -0.000636   0.000001   9.081918
    19  F    0.295715  -0.046179  -0.000024   0.000001  -0.000460  -0.000001
    20  H    0.000235   0.000022   0.000000   0.000000   0.000000   0.000000
    21  H    0.000001   0.000000   0.000000   0.000000   0.000000   0.000000
    22  H   -0.000001   0.000000   0.000000   0.000000   0.000000   0.000000
    23  H    0.000001   0.000000   0.000000   0.000000   0.000000   0.000000
    24  H    0.000014   0.000000   0.000000   0.000000   0.000000   0.000000
    25  H   -0.000006   0.000000   0.000000   0.000000   0.000000   0.000000
    26  H    0.000000   0.000000   0.000000   0.000000   0.000000   0.000000
    27  H    0.000000   0.000000   0.000000   0.000000   0.000000   0.000000
    28  H   -0.000143  -0.000009   0.000000   0.000000   0.000000   0.000113
    29  H    0.005468  -0.000144   0.000000  -0.000007   0.000001   0.010162
    30  H   -0.010780  -0.000124   0.000000   0.000002   0.000000   0.000204
    31  H   -0.000008   0.000000   0.000000   0.000000   0.000000  -0.000012
    32  C    0.000000   0.000000   0.000000   0.000000   0.000000   0.000000
    33  H    0.000000   0.000000   0.000000   0.000000   0.000000   0.000000
    34  H    0.000000   0.000000   0.000000   0.000000   0.000000   0.000000
    35  H    0.000000   0.000000   0.000000   0.000000   0.000000   0.000000
    36  H    0.004383  -0.000121   0.000000   0.000000   0.000004  -0.000013
              19         20         21         22         23         24
     1  C   -0.000933   0.377336   0.382348   0.387351  -0.037441  -0.041763
     2  C    0.000018  -0.035822  -0.027144  -0.035850   0.371347   0.378571
     3  C   -0.000009  -0.004604   0.004126  -0.005044  -0.027978  -0.031561
     4  C    0.000000  -0.000440   0.000087   0.003131  -0.006813   0.005197
     5  C    0.000000  -0.000009  -0.000001  -0.000044   0.000088  -0.000121
     6  O    0.000000   0.000003   0.000000   0.000000   0.000004   0.000001
     7  N   -0.002873   0.002718   0.000184  -0.000197   0.004625  -0.004449
     8  C    0.004344   0.001290  -0.000011   0.000032   0.000179   0.001900
     9  C    0.002835   0.000000   0.000000   0.000000   0.000000   0.000000
    10  C   -0.000015   0.000000   0.000000   0.000000   0.000000   0.000000
    11  C    0.002486  -0.000004   0.000000   0.000000   0.000000  -0.000006
    12  C   -0.058876  -0.000406   0.000000   0.000002  -0.000001  -0.000053
    13  C    0.295715   0.000235   0.000001  -0.000001   0.000001   0.000014
    14  C   -0.046179   0.000022   0.000000   0.000000   0.000000   0.000000
    15  H   -0.000024   0.000000   0.000000   0.000000   0.000000   0.000000
    16  H    0.000001   0.000000   0.000000   0.000000   0.000000   0.000000
    17  H   -0.000460   0.000000   0.000000   0.000000   0.000000   0.000000
    18  F   -0.000001   0.000000   0.000000   0.000000   0.000000   0.000000
    19  F    9.089551   0.004688   0.000001   0.000005   0.000000  -0.000019
    20  H    0.004688   0.608064  -0.030042  -0.032738   0.005463  -0.005028
    21  H    0.000001  -0.030042   0.597942  -0.030424  -0.003417  -0.003208
    22  H    0.000005  -0.032738  -0.030424   0.596562  -0.004618   0.005352
    23  H    0.000000   0.005463  -0.003417  -0.004618   0.627291  -0.035100
    24  H   -0.000019  -0.005028  -0.003208   0.005352  -0.035100   0.635076
    25  H   -0.000002  -0.000095  -0.000069   0.001549   0.000101  -0.000063
    26  H    0.000000  -0.000001   0.000000  -0.000001  -0.000016  -0.000004
    27  H    0.000000   0.000000   0.000000   0.000007   0.000002   0.000002
    28  H   -0.000005  -0.000029   0.000000  -0.000007  -0.000030  -0.000003
    29  H    0.000187   0.000020   0.000001  -0.000001   0.000008   0.000373
    30  H    0.003399  -0.000598  -0.000058  -0.000019  -0.000379   0.001757
    31  H   -0.000001   0.000024  -0.000145   0.000010  -0.001467  -0.005075
    32  C    0.000000   0.000075   0.000008   0.000104   0.002661   0.000122
    33  H    0.000000   0.000002   0.000000  -0.000039  -0.000018  -0.000003
    34  H    0.000000  -0.000039  -0.000045   0.001421   0.000769   0.000014
    35  H    0.000000  -0.000003   0.000000  -0.000016   0.001068  -0.000047
    36  H    0.007346   0.004702  -0.000197   0.000143   0.000055  -0.000038
              25         26         27         28         29         30
     1  C    0.002894  -0.000003   0.000004  -0.000010   0.000056   0.000876
     2  C   -0.006284  -0.000002  -0.000192   0.000837  -0.001414   0.004411
     3  C   -0.048757  -0.016088   0.005397  -0.001503  -0.002216  -0.004746
     4  C    0.370415  -0.051518  -0.034279  -0.009162   0.000100  -0.000172
     5  C   -0.044332   0.356537   0.379514  -0.040025  -0.000014  -0.000004
     6  O    0.004667  -0.041550  -0.039658   0.276529   0.000188  -0.000042
     7  N   -0.004400   0.000777  -0.000299   0.070585  -0.044610  -0.043599
     8  C    0.000015   0.000010   0.000008  -0.003059   0.377813   0.356071
     9  C    0.000000   0.000000   0.000000  -0.000005  -0.000029   0.000002
    10  C    0.000000   0.000000   0.000000  -0.000004   0.000426  -0.000192
    11  C    0.000000   0.000000   0.000000   0.000873  -0.007239   0.004693
    12  C    0.000014   0.000000   0.000000   0.000626  -0.029207  -0.030405
    13  C   -0.000006   0.000000   0.000000  -0.000143   0.005468  -0.010780
    14  C    0.000000   0.000000   0.000000  -0.000009  -0.000144  -0.000124
    15  H    0.000000   0.000000   0.000000   0.000000   0.000000   0.000000
    16  H    0.000000   0.000000   0.000000   0.000000  -0.000007   0.000002
    17  H    0.000000   0.000000   0.000000   0.000000   0.000001   0.000000
    18  F    0.000000   0.000000   0.000000   0.000113   0.010162   0.000204
    19  F   -0.000002   0.000000   0.000000  -0.000005   0.000187   0.003399
    20  H   -0.000095  -0.000001   0.000000  -0.000029   0.000020  -0.000598
    21  H   -0.000069   0.000000   0.000000   0.000000   0.000001  -0.000058
    22  H    0.001549  -0.000001   0.000007  -0.000007  -0.000001  -0.000019
    23  H    0.000101  -0.000016   0.000002  -0.000030   0.000008  -0.000379
    24  H   -0.000063  -0.000004   0.000002  -0.000003   0.000373   0.001757
    25  H    0.657794   0.008013  -0.006524  -0.000778   0.000003  -0.000004
    26  H    0.008013   0.723932  -0.054567  -0.002375  -0.000039   0.000002
    27  H   -0.006524  -0.054567   0.658613   0.005955   0.000001   0.000000
    28  H   -0.000778  -0.002375   0.005955   0.384857  -0.000848   0.000577
    29  H    0.000003  -0.000039   0.000001  -0.000848   0.595513  -0.044178
    30  H   -0.000004   0.000002   0.000000   0.000577  -0.044178   0.656081
    31  H    0.006530   0.006691   0.000012  -0.000815   0.006214  -0.001062
    32  C   -0.034724   0.001518  -0.006184   0.000103  -0.000004   0.000006
    33  H   -0.003117  -0.000434   0.006263  -0.000009   0.000000   0.000000
    34  H   -0.005355  -0.000271  -0.000051   0.000005   0.000000   0.000000
    35  H    0.005799   0.004671  -0.000391   0.000004  -0.000001   0.000000
    36  H    0.004676   0.000092   0.000000  -0.003745   0.006106  -0.005456
              31         32         33         34         35         36
     1  C    0.005215  -0.002202  -0.000008   0.000778   0.000146   0.004367
     2  C   -0.048288  -0.002218   0.000154   0.000694  -0.001598  -0.008336
     3  C    0.382812  -0.043880   0.004427  -0.005157  -0.006414  -0.033576
     4  C   -0.041901   0.332727  -0.030461  -0.021640  -0.034932  -0.003544
     5  C   -0.007742  -0.038562  -0.005508   0.003598  -0.005115  -0.000484
     6  O    0.000126   0.002969   0.000040  -0.000066  -0.000005   0.001570
     7  N   -0.048994   0.003998  -0.000089  -0.000050   0.000034   0.327365
     8  C   -0.004876  -0.000110   0.000002  -0.000002   0.000001  -0.034617
     9  C    0.000000   0.000000   0.000000   0.000000   0.000000  -0.000012
    10  C    0.000000   0.000000   0.000000   0.000000   0.000000   0.000005
    11  C    0.000006   0.000000   0.000000   0.000000   0.000000  -0.000169
    12  C    0.000149   0.000002   0.000000   0.000000   0.000000  -0.009121
    13  C   -0.000008   0.000000   0.000000   0.000000   0.000000   0.004383
    14  C    0.000000   0.000000   0.000000   0.000000   0.000000  -0.000121
    15  H    0.000000   0.000000   0.000000   0.000000   0.000000   0.000000
    16  H    0.000000   0.000000   0.000000   0.000000   0.000000   0.000000
    17  H    0.000000   0.000000   0.000000   0.000000   0.000000   0.000004
    18  F   -0.000012   0.000000   0.000000   0.000000   0.000000  -0.000013
    19  F   -0.000001   0.000000   0.000000   0.000000   0.000000   0.007346
    20  H    0.000024   0.000075   0.000002  -0.000039  -0.000003   0.004702
    21  H   -0.000145   0.000008   0.000000  -0.000045   0.000000  -0.000197
    22  H    0.000010   0.000104  -0.000039   0.001421  -0.000016   0.000143
    23  H   -0.001467   0.002661  -0.000018   0.000769   0.001068   0.000055
    24  H   -0.005075   0.000122  -0.000003   0.000014  -0.000047  -0.000038
    25  H    0.006530  -0.034724  -0.003117  -0.005355   0.005799   0.004676
    26  H    0.006691   0.001518  -0.000434  -0.000271   0.004671   0.000092
    27  H    0.000012  -0.006184   0.006263  -0.000051  -0.000391   0.000000
    28  H   -0.000815   0.000103  -0.000009   0.000005   0.000004  -0.003745
    29  H    0.006214  -0.000004   0.000000   0.000000  -0.000001   0.006106
    30  H   -0.001062   0.000006   0.000000   0.000000   0.000000  -0.005456
    31  H    0.649555  -0.004681  -0.000098  -0.000133   0.004856   0.006817
    32  C   -0.004681   4.980245   0.379617   0.376552   0.383026  -0.000086
    33  H   -0.000098   0.379617   0.604211  -0.029539  -0.031817   0.000003
    34  H   -0.000133   0.376552  -0.029539   0.599814  -0.033270  -0.000003
    35  H    0.004856   0.383026  -0.031817  -0.033270   0.607035   0.000013
    36  H    0.006817  -0.000086   0.000003  -0.000003   0.000013   0.468684
 Mulliken charges:
               1
     1  C   -0.336198
     2  C   -0.190631
     3  C    0.088963
     4  C   -0.097035
     5  C    0.084934
     6  O   -0.602344
     7  N   -0.559402
     8  C   -0.075871
     9  C   -0.099066
    10  C   -0.138383
    11  C    0.319927
    12  C   -0.031190
    13  C    0.323371
    14  C   -0.137027
    15  H    0.119684
    16  H    0.119277
    17  H    0.119345
    18  F   -0.296872
    19  F   -0.301178
    20  H    0.105216
    21  H    0.110065
    22  H    0.113328
    23  H    0.103615
    24  H    0.098163
    25  H    0.092038
    26  H    0.064623
    27  H    0.086364
    28  H    0.321500
    29  H    0.127311
    30  H    0.113737
    31  H    0.096280
    32  C   -0.331082
    33  H    0.106421
    34  H    0.111975
    35  H    0.106956
    36  H    0.263187
 Sum of Mulliken charges =   0.00000
 Mulliken charges with hydrogens summed into heavy atoms:
               1
     1  C   -0.007590
     2  C    0.011147
     3  C    0.185244
     4  C   -0.004997
     5  C    0.235921
     6  O   -0.280843
     7  N   -0.296216
     8  C    0.165177
     9  C    0.020618
    10  C   -0.019106
    11  C    0.319927
    12  C   -0.031190
    13  C    0.323371
    14  C   -0.017682
    18  F   -0.296872
    19  F   -0.301178
    32  C   -0.005731
 Electronic spatial extent (au):  <R**2>=           5005.5521
 Charge=              0.0000 electrons
 Dipole moment (field-independent basis, Debye):
    X=             -1.1937    Y=              3.1751    Z=              1.5636  Tot=              3.7351
 Quadrupole moment (field-independent basis, Debye-Ang):
   XX=            -83.4173   YY=           -109.0250   ZZ=           -103.1088
   XY=              3.4400   XZ=              6.7374   YZ=             -4.9467
 Traceless Quadrupole moment (field-independent basis, Debye-Ang):
   XX=             15.0997   YY=            -10.5079   ZZ=             -4.5918
   XY=              3.4400   XZ=              6.7374   YZ=             -4.9467
 Octapole moment (field-independent basis, Debye-Ang**2):
  XXX=            -64.2599  YYY=             13.1568  ZZZ=              8.4384  XYY=            -12.4067
  XXY=             -7.9146  XXZ=            -21.2600  XZZ=             -7.6446  YZZ=             11.8719
  YYZ=             11.2816  XYZ=             -1.7090
 Hexadecapole moment (field-independent basis, Debye-Ang**3):
 XXXX=          -4304.9186 YYYY=          -1380.8676 ZZZZ=           -529.3625 XXXY=             29.7421
 XXXZ=             71.8485 YYYX=             28.6599 YYYZ=            -46.4336 ZZZX=             -7.6905
 ZZZY=            -41.4809 XXYY=           -964.5887 XXZZ=           -856.8524 YYZZ=           -327.7339
 XXYZ=            -26.9333 YYXZ=             19.7142 ZZXY=             -8.0103
 N-N= 1.277390607303D+03 E-N=-4.508399708488D+03  KE= 8.290902922980D+02
 1\1\GINC-SWANNODE-0-11\FOpt\RB3LYP\6-31G(d,p)\C13H19F2N1O1\KE291\06-Ma
 r-2019\0\\# b3lyp/6-31g(d,p) Opt=(maxcycles=50) scrf=(solvent=chlorofo
 rm)\\AT3_1ginp001\\0,1\C,-1.8736557818,0.572302361,0.4594011386\C,-1.2
 078195831,-0.0651066109,1.6850954319\C,-0.4047833224,0.9058432833,2.58
 41388364\C,-1.2570086701,2.0000705562,3.2830873677\C,-0.4131930893,2.8
 11167041,4.290463781\O,0.6015571767,3.6015064688,3.6970795146\N,0.7247
 724679,1.565396034,1.8798299953\C,1.7986775988,0.6636864782,1.42820670
 5\C,4.8716585236,2.907393283,-0.6489462802\C,5.1144764435,2.4510317718
 ,0.6467550608\C,4.1158955481,1.734464932,1.2968639777\C,2.8814360259,1
 .438203352,0.7166302028\C,2.6964961252,1.9252170406,-0.5786602205\C,3.
 6521785504,2.6482627217,-1.278146728\H,5.6366794425,3.4710385016,-1.17
 23312336\H,6.0521929843,2.6420947798,1.155404943\H,3.4370743983,2.9948
 525546,-2.2821483312\F,4.3534247799,1.2919435797,2.5523886585\F,1.5010
 350384,1.6754263937,-1.1739886581\H,-1.1365969292,1.0156933443,-0.2192
 454488\H,-2.4218209806,-0.1824615421,-0.1128286168\H,-2.5866061304,1.3
 556037368,0.7375567316\H,-1.9642088052,-0.565484627,2.2986167514\H,-0.
 5361614449,-0.8643065124,1.3498343739\H,-1.607493848,2.7095171322,2.51
 9295789\H,0.0047938226,2.1106819925,5.0379222553\H,-1.0748082141,3.494
 5632787,4.837072594\H,1.0075894391,3.0001749202,3.0335376098\H,2.22295
 09419,0.1747230014,2.3081979295\H,1.4361325983,-0.1263779866,0.7557092
 504\H,0.0531212672,0.302387477,3.3821892678\C,-2.4816603423,1.41498850
 12,4.003320287\H,-3.0123264478,2.2003203143,4.5512525882\H,-3.19445019
 29,0.9632965957,3.3091010699\H,-2.1881550862,0.6462624171,4.7283895424
 \H,0.3609786959,2.0651384345,1.0699948636\\Version=EM64L-G09RevD.01\St
 ate=1-A\HF=-836.5009765\RMSD=6.964e-09\RMSF=3.747e-06\Dipole=0.0571391
 ,-0.9516502,-1.1182677\Quadrupole=7.3819287,-4.8586077,-2.523321,4.577
 4281,-5.491032,-7.1539667\PG=C01 [X(C13H19F2N1O1)]\\@


 THERE IS NO CURE FOR BIRTH AND DEATH SAVE TO ENJOY THE INTERVAL.

                               -- GEORGE SANTAYANA
 Job cpu time:       0 days  3 hours 13 minutes  7.9 seconds.
 File lengths (MBytes):  RWF=    281 Int=      0 D2E=      0 Chk=     13 Scr=      1
 Normal termination of Gaussian 09 at Wed Mar  6 11:44:35 2019.
