 Entering Gaussian System, Link 0=/usr/local/shared/gaussian/em64t/09-D01/g09/g09
 Initial command:
 /usr/local/shared/gaussian/em64t/09-D01/g09/l1.exe "/scratch/ke291/AT3_2ginp011/Gau-13731.inp" -scrdir="/scratch/ke291/AT3_2ginp011/"
 Entering Link 1 = /usr/local/shared/gaussian/em64t/09-D01/g09/l1.exe PID=     13738.
  
 Copyright (c) 1988,1990,1992,1993,1995,1998,2003,2009,2013,
            Gaussian, Inc.  All Rights Reserved.
  
 This is part of the Gaussian(R) 09 program.  It is based on
 the Gaussian(R) 03 system (copyright 2003, Gaussian, Inc.),
 the Gaussian(R) 98 system (copyright 1998, Gaussian, Inc.),
 the Gaussian(R) 94 system (copyright 1995, Gaussian, Inc.),
 the Gaussian 92(TM) system (copyright 1992, Gaussian, Inc.),
 the Gaussian 90(TM) system (copyright 1990, Gaussian, Inc.),
 the Gaussian 88(TM) system (copyright 1988, Gaussian, Inc.),
 the Gaussian 86(TM) system (copyright 1986, Carnegie Mellon
 University), and the Gaussian 82(TM) system (copyright 1983,
 Carnegie Mellon University). Gaussian is a federally registered
 trademark of Gaussian, Inc.
  
 This software contains proprietary and confidential information,
 including trade secrets, belonging to Gaussian, Inc.
  
 This software is provided under written license and may be
 used, copied, transmitted, or stored only in accord with that
 written license.
  
 The following legend is applicable only to US Government
 contracts under FAR:
  
                    RESTRICTED RIGHTS LEGEND
  
 Use, reproduction and disclosure by the US Government is
 subject to restrictions as set forth in subparagraphs (a)
 and (c) of the Commercial Computer Software - Restricted
 Rights clause in FAR 52.227-19.
  
 Gaussian, Inc.
 340 Quinnipiac St., Bldg. 40, Wallingford CT 06492
  
  
 ---------------------------------------------------------------
 Warning -- This program may not be used in any manner that
 competes with the business of Gaussian, Inc. or will provide
 assistance to any competitor of Gaussian, Inc.  The licensee
 of this program is prohibited from giving any competitor of
 Gaussian, Inc. access to this program.  By using this program,
 the user acknowledges that Gaussian, Inc. is engaged in the
 business of creating and licensing software in the field of
 computational chemistry and represents and warrants to the
 licensee that it is not a competitor of Gaussian, Inc. and that
 it will not use this program in any manner prohibited above.
 ---------------------------------------------------------------
  

 Cite this work as:
 Gaussian 09, Revision D.01,
 M. J. Frisch, G. W. Trucks, H. B. Schlegel, G. E. Scuseria, 
 M. A. Robb, J. R. Cheeseman, G. Scalmani, V. Barone, B. Mennucci, 
 G. A. Petersson, H. Nakatsuji, M. Caricato, X. Li, H. P. Hratchian, 
 A. F. Izmaylov, J. Bloino, G. Zheng, J. L. Sonnenberg, M. Hada, 
 M. Ehara, K. Toyota, R. Fukuda, J. Hasegawa, M. Ishida, T. Nakajima, 
 Y. Honda, O. Kitao, H. Nakai, T. Vreven, J. A. Montgomery, Jr., 
 J. E. Peralta, F. Ogliaro, M. Bearpark, J. J. Heyd, E. Brothers, 
 K. N. Kudin, V. N. Staroverov, T. Keith, R. Kobayashi, J. Normand, 
 K. Raghavachari, A. Rendell, J. C. Burant, S. S. Iyengar, J. Tomasi, 
 M. Cossi, N. Rega, J. M. Millam, M. Klene, J. E. Knox, J. B. Cross, 
 V. Bakken, C. Adamo, J. Jaramillo, R. Gomperts, R. E. Stratmann, 
 O. Yazyev, A. J. Austin, R. Cammi, C. Pomelli, J. W. Ochterski, 
 R. L. Martin, K. Morokuma, V. G. Zakrzewski, G. A. Voth, 
 P. Salvador, J. J. Dannenberg, S. Dapprich, A. D. Daniels, 
 O. Farkas, J. B. Foresman, J. V. Ortiz, J. Cioslowski, 
 and D. J. Fox, Gaussian, Inc., Wallingford CT, 2013.
 
 ******************************************
 Gaussian 09:  EM64L-G09RevD.01 24-Apr-2013
                 6-Mar-2019 
 ******************************************
 %nprocshared=2
 Will use up to    2 processors via shared memory.
 %mem=6000MB
 %chk=AT3_2ginp011.chk
 ---------------------------------------------------------------
 # b3lyp/6-31g(d,p) Opt=(maxcycles=50) scrf=(solvent=chloroform)
 ---------------------------------------------------------------
 1/6=50,14=-1,18=20,19=15,26=3,38=1/1,3;
 2/9=110,12=2,17=6,18=5,40=1/2;
 3/5=1,6=6,7=101,11=2,16=1,25=1,30=1,70=2201,71=1,72=7,74=-5/1,2,3;
 4//1;
 5/5=2,38=5,53=7/2;
 6/7=2,8=2,9=2,10=2,28=1/1;
 7//1,2,3,16;
 1/6=50,14=-1,18=20,19=15,26=3/3(2);
 2/9=110/2;
 99//99;
 2/9=110/2;
 3/5=1,6=6,7=101,11=2,16=1,25=1,30=1,70=2205,71=1,72=7,74=-5/1,2,3;
 4/5=5,16=3,69=1/1;
 5/5=2,38=5,53=7/2;
 7//1,2,3,16;
 1/6=50,14=-1,18=20,19=15,26=3/3(-5);
 2/9=110/2;
 6/7=2,8=2,9=2,10=2,19=2,28=1/1;
 99/9=1/99;
 ------------
 AT3_2ginp011
 ------------
 Symbolic Z-matrix:
 Charge =  0 Multiplicity = 1
 C                    -0.99271  -1.65237   0.364 
 C                    -2.48253  -1.3364    0.3565 
 C                    -3.11929  -1.2942    1.76538 
 C                    -2.44275  -0.27781   2.733 
 C                    -3.03318  -0.40539   4.14973 
 O                    -2.25658   0.33513   5.08842 
 N                    -4.55848  -0.99269   1.67121 
 C                    -5.36808  -2.15381   1.29661 
 C                    -9.5704   -1.15516   1.3781 
 C                    -8.77879  -0.77735   0.29496 
 C                    -7.42429  -1.1081    0.27841 
 C                    -6.83128  -1.8172    1.32488 
 C                    -7.64037  -2.18296   2.40139 
 C                    -8.99717  -1.86072   2.43507 
 H                    -10.62676  -0.90007   1.39992 
 H                    -9.20518  -0.22489  -0.53696 
 H                    -9.59608  -2.16308   3.28907 
 F                    -6.68269  -0.7285   -0.77291 
 F                    -7.12099  -2.86836   3.43014 
 H                    -0.63782  -1.80497  -0.66055 
 H                    -0.40886  -0.83294   0.79266 
 H                    -0.78652  -2.56453   0.93255 
 H                    -2.64588  -0.39194  -0.17571 
 H                    -2.97548  -2.11149  -0.24244 
 H                    -1.37812  -0.53097   2.81619 
 H                    -3.01651  -1.45052   4.47579 
 H                    -4.06844  -0.05189   4.2035 
 H                    -2.50741   1.26944   4.99309 
 H                    -5.11111  -2.51237   0.2931 
 H                    -5.1751   -2.98704   1.98334 
 H                    -2.99044  -2.28678   2.21913 
 C                    -2.50951   1.17646   2.24448 
 H                    -2.07057   1.28513   1.24861 
 H                    -3.54007   1.54376   2.20663 
 H                    -1.94591   1.83877   2.90987 
 H                    -4.71173  -0.25242   0.9849 
 

 GradGradGradGradGradGradGradGradGradGradGradGradGradGradGradGradGradGrad
 Berny optimization.
 Initialization pass.
                           ----------------------------
                           !    Initial Parameters    !
                           ! (Angstroms and Degrees)  !
 --------------------------                            --------------------------
 ! Name  Definition              Value          Derivative Info.                !
 --------------------------------------------------------------------------------
 ! R1    R(1,2)                  1.523          estimate D2E/DX2                !
 ! R2    R(1,20)                 1.095          estimate D2E/DX2                !
 ! R3    R(1,21)                 1.0937         estimate D2E/DX2                !
 ! R4    R(1,22)                 1.0944         estimate D2E/DX2                !
 ! R5    R(2,3)                  1.5467         estimate D2E/DX2                !
 ! R6    R(2,23)                 1.0963         estimate D2E/DX2                !
 ! R7    R(2,24)                 1.0966         estimate D2E/DX2                !
 ! R8    R(3,4)                  1.5579         estimate D2E/DX2                !
 ! R9    R(3,7)                  1.4734         estimate D2E/DX2                !
 ! R10   R(3,31)                 1.099          estimate D2E/DX2                !
 ! R11   R(4,5)                  1.5401         estimate D2E/DX2                !
 ! R12   R(4,25)                 1.0975         estimate D2E/DX2                !
 ! R13   R(4,32)                 1.5356         estimate D2E/DX2                !
 ! R14   R(5,6)                  1.4257         estimate D2E/DX2                !
 ! R15   R(5,26)                 1.0949         estimate D2E/DX2                !
 ! R16   R(5,27)                 1.0953         estimate D2E/DX2                !
 ! R17   R(6,28)                 0.9721         estimate D2E/DX2                !
 ! R18   R(7,8)                  1.4642         estimate D2E/DX2                !
 ! R19   R(7,36)                 1.021          estimate D2E/DX2                !
 ! R20   R(8,12)                 1.5017         estimate D2E/DX2                !
 ! R21   R(8,29)                 1.0962         estimate D2E/DX2                !
 ! R22   R(8,30)                 1.0969         estimate D2E/DX2                !
 ! R23   R(9,10)                 1.3938         estimate D2E/DX2                !
 ! R24   R(9,14)                 1.3941         estimate D2E/DX2                !
 ! R25   R(9,15)                 1.0869         estimate D2E/DX2                !
 ! R26   R(10,11)                1.3944         estimate D2E/DX2                !
 ! R27   R(10,16)                1.0859         estimate D2E/DX2                !
 ! R28   R(11,12)                1.3963         estimate D2E/DX2                !
 ! R29   R(11,18)                1.3414         estimate D2E/DX2                !
 ! R30   R(12,13)                1.3955         estimate D2E/DX2                !
 ! R31   R(13,14)                1.3949         estimate D2E/DX2                !
 ! R32   R(13,19)                1.3408         estimate D2E/DX2                !
 ! R33   R(14,17)                1.086          estimate D2E/DX2                !
 ! R34   R(32,33)                1.0937         estimate D2E/DX2                !
 ! R35   R(32,34)                1.0947         estimate D2E/DX2                !
 ! R36   R(32,35)                1.095          estimate D2E/DX2                !
 ! A1    A(2,1,20)             109.9601         estimate D2E/DX2                !
 ! A2    A(2,1,21)             111.6357         estimate D2E/DX2                !
 ! A3    A(2,1,22)             111.0859         estimate D2E/DX2                !
 ! A4    A(20,1,21)            107.3457         estimate D2E/DX2                !
 ! A5    A(20,1,22)            107.9915         estimate D2E/DX2                !
 ! A6    A(21,1,22)            108.6795         estimate D2E/DX2                !
 ! A7    A(1,2,3)              113.8227         estimate D2E/DX2                !
 ! A8    A(1,2,23)             109.0792         estimate D2E/DX2                !
 ! A9    A(1,2,24)             107.2049         estimate D2E/DX2                !
 ! A10   A(3,2,23)             110.9379         estimate D2E/DX2                !
 ! A11   A(3,2,24)             109.3744         estimate D2E/DX2                !
 ! A12   A(23,2,24)            106.0686         estimate D2E/DX2                !
 ! A13   A(2,3,4)              113.8781         estimate D2E/DX2                !
 ! A14   A(2,3,7)              110.4563         estimate D2E/DX2                !
 ! A15   A(2,3,31)             107.6502         estimate D2E/DX2                !
 ! A16   A(4,3,7)              109.2903         estimate D2E/DX2                !
 ! A17   A(4,3,31)             106.3728         estimate D2E/DX2                !
 ! A18   A(7,3,31)             109.0099         estimate D2E/DX2                !
 ! A19   A(3,4,5)              110.5374         estimate D2E/DX2                !
 ! A20   A(3,4,25)             108.5333         estimate D2E/DX2                !
 ! A21   A(3,4,32)             113.6652         estimate D2E/DX2                !
 ! A22   A(5,4,25)             106.4429         estimate D2E/DX2                !
 ! A23   A(5,4,32)             110.7583         estimate D2E/DX2                !
 ! A24   A(25,4,32)            106.5433         estimate D2E/DX2                !
 ! A25   A(4,5,6)              110.72           estimate D2E/DX2                !
 ! A26   A(4,5,26)             110.3138         estimate D2E/DX2                !
 ! A27   A(4,5,27)             112.3827         estimate D2E/DX2                !
 ! A28   A(6,5,26)             106.9426         estimate D2E/DX2                !
 ! A29   A(6,5,27)             108.3549         estimate D2E/DX2                !
 ! A30   A(26,5,27)            107.9294         estimate D2E/DX2                !
 ! A31   A(5,6,28)             107.1038         estimate D2E/DX2                !
 ! A32   A(3,7,8)              113.2125         estimate D2E/DX2                !
 ! A33   A(3,7,36)             109.7506         estimate D2E/DX2                !
 ! A34   A(8,7,36)             108.661          estimate D2E/DX2                !
 ! A35   A(7,8,12)             110.8658         estimate D2E/DX2                !
 ! A36   A(7,8,29)             111.3449         estimate D2E/DX2                !
 ! A37   A(7,8,30)             110.178          estimate D2E/DX2                !
 ! A38   A(12,8,29)            108.6006         estimate D2E/DX2                !
 ! A39   A(12,8,30)            109.2635         estimate D2E/DX2                !
 ! A40   A(29,8,30)            106.4648         estimate D2E/DX2                !
 ! A41   A(10,9,14)            119.5275         estimate D2E/DX2                !
 ! A42   A(10,9,15)            120.2628         estimate D2E/DX2                !
 ! A43   A(14,9,15)            120.2096         estimate D2E/DX2                !
 ! A44   A(9,10,11)            119.7782         estimate D2E/DX2                !
 ! A45   A(9,10,16)            120.6818         estimate D2E/DX2                !
 ! A46   A(11,10,16)           119.5398         estimate D2E/DX2                !
 ! A47   A(10,11,12)           121.6091         estimate D2E/DX2                !
 ! A48   A(10,11,18)           118.6345         estimate D2E/DX2                !
 ! A49   A(12,11,18)           119.7563         estimate D2E/DX2                !
 ! A50   A(8,12,11)            120.9005         estimate D2E/DX2                !
 ! A51   A(8,12,13)            121.3805         estimate D2E/DX2                !
 ! A52   A(11,12,13)           117.7128         estimate D2E/DX2                !
 ! A53   A(12,13,14)           121.4679         estimate D2E/DX2                !
 ! A54   A(12,13,19)           120.0844         estimate D2E/DX2                !
 ! A55   A(14,13,19)           118.4458         estimate D2E/DX2                !
 ! A56   A(9,14,13)            119.9038         estimate D2E/DX2                !
 ! A57   A(9,14,17)            120.6861         estimate D2E/DX2                !
 ! A58   A(13,14,17)           119.4101         estimate D2E/DX2                !
 ! A59   A(4,32,33)            111.489          estimate D2E/DX2                !
 ! A60   A(4,32,34)            111.6958         estimate D2E/DX2                !
 ! A61   A(4,32,35)            110.9239         estimate D2E/DX2                !
 ! A62   A(33,32,34)           108.2397         estimate D2E/DX2                !
 ! A63   A(33,32,35)           106.6565         estimate D2E/DX2                !
 ! A64   A(34,32,35)           107.6138         estimate D2E/DX2                !
 ! D1    D(20,1,2,3)           172.1044         estimate D2E/DX2                !
 ! D2    D(20,1,2,23)          -63.4199         estimate D2E/DX2                !
 ! D3    D(20,1,2,24)           51.0173         estimate D2E/DX2                !
 ! D4    D(21,1,2,3)           -68.8644         estimate D2E/DX2                !
 ! D5    D(21,1,2,23)           55.6114         estimate D2E/DX2                !
 ! D6    D(21,1,2,24)          170.0485         estimate D2E/DX2                !
 ! D7    D(22,1,2,3)            52.6167         estimate D2E/DX2                !
 ! D8    D(22,1,2,23)          177.0925         estimate D2E/DX2                !
 ! D9    D(22,1,2,24)          -68.4704         estimate D2E/DX2                !
 ! D10   D(1,2,3,4)             56.9659         estimate D2E/DX2                !
 ! D11   D(1,2,3,7)           -179.6177         estimate D2E/DX2                !
 ! D12   D(1,2,3,31)           -60.7024         estimate D2E/DX2                !
 ! D13   D(23,2,3,4)           -66.5053         estimate D2E/DX2                !
 ! D14   D(23,2,3,7)            56.9111         estimate D2E/DX2                !
 ! D15   D(23,2,3,31)          175.8264         estimate D2E/DX2                !
 ! D16   D(24,2,3,4)           176.8345         estimate D2E/DX2                !
 ! D17   D(24,2,3,7)           -59.7491         estimate D2E/DX2                !
 ! D18   D(24,2,3,31)           59.1662         estimate D2E/DX2                !
 ! D19   D(2,3,4,5)           -173.9274         estimate D2E/DX2                !
 ! D20   D(2,3,4,25)           -57.5427         estimate D2E/DX2                !
 ! D21   D(2,3,4,32)            60.804          estimate D2E/DX2                !
 ! D22   D(7,3,4,5)             62.025          estimate D2E/DX2                !
 ! D23   D(7,3,4,25)           178.4097         estimate D2E/DX2                !
 ! D24   D(7,3,4,32)           -63.2436         estimate D2E/DX2                !
 ! D25   D(31,3,4,5)           -55.5251         estimate D2E/DX2                !
 ! D26   D(31,3,4,25)           60.8596         estimate D2E/DX2                !
 ! D27   D(31,3,4,32)          179.2063         estimate D2E/DX2                !
 ! D28   D(2,3,7,8)             78.9666         estimate D2E/DX2                !
 ! D29   D(2,3,7,36)           -42.6272         estimate D2E/DX2                !
 ! D30   D(4,3,7,8)           -154.9975         estimate D2E/DX2                !
 ! D31   D(4,3,7,36)            83.4087         estimate D2E/DX2                !
 ! D32   D(31,3,7,8)           -39.119          estimate D2E/DX2                !
 ! D33   D(31,3,7,36)         -160.7128         estimate D2E/DX2                !
 ! D34   D(3,4,5,6)            169.1575         estimate D2E/DX2                !
 ! D35   D(3,4,5,26)            50.9767         estimate D2E/DX2                !
 ! D36   D(3,4,5,27)           -69.5178         estimate D2E/DX2                !
 ! D37   D(25,4,5,6)            51.4818         estimate D2E/DX2                !
 ! D38   D(25,4,5,26)          -66.6991         estimate D2E/DX2                !
 ! D39   D(25,4,5,27)          172.8065         estimate D2E/DX2                !
 ! D40   D(32,4,5,6)           -63.9448         estimate D2E/DX2                !
 ! D41   D(32,4,5,26)          177.8743         estimate D2E/DX2                !
 ! D42   D(32,4,5,27)           57.3798         estimate D2E/DX2                !
 ! D43   D(3,4,32,33)          -56.2506         estimate D2E/DX2                !
 ! D44   D(3,4,32,34)           64.9915         estimate D2E/DX2                !
 ! D45   D(3,4,32,35)         -174.9567         estimate D2E/DX2                !
 ! D46   D(5,4,32,33)          178.5988         estimate D2E/DX2                !
 ! D47   D(5,4,32,34)          -60.1591         estimate D2E/DX2                !
 ! D48   D(5,4,32,35)           59.8926         estimate D2E/DX2                !
 ! D49   D(25,4,32,33)          63.2347         estimate D2E/DX2                !
 ! D50   D(25,4,32,34)        -175.5231         estimate D2E/DX2                !
 ! D51   D(25,4,32,35)         -55.4714         estimate D2E/DX2                !
 ! D52   D(4,5,6,28)            78.7141         estimate D2E/DX2                !
 ! D53   D(26,5,6,28)         -161.0712         estimate D2E/DX2                !
 ! D54   D(27,5,6,28)          -44.9587         estimate D2E/DX2                !
 ! D55   D(3,7,8,12)           175.3909         estimate D2E/DX2                !
 ! D56   D(3,7,8,29)           -63.5813         estimate D2E/DX2                !
 ! D57   D(3,7,8,30)            54.3108         estimate D2E/DX2                !
 ! D58   D(36,7,8,12)          -62.4055         estimate D2E/DX2                !
 ! D59   D(36,7,8,29)           58.6224         estimate D2E/DX2                !
 ! D60   D(36,7,8,30)          176.5144         estimate D2E/DX2                !
 ! D61   D(7,8,12,11)           78.5579         estimate D2E/DX2                !
 ! D62   D(7,8,12,13)         -100.5165         estimate D2E/DX2                !
 ! D63   D(29,8,12,11)         -44.0769         estimate D2E/DX2                !
 ! D64   D(29,8,12,13)         136.8488         estimate D2E/DX2                !
 ! D65   D(30,8,12,11)        -159.824          estimate D2E/DX2                !
 ! D66   D(30,8,12,13)          21.1017         estimate D2E/DX2                !
 ! D67   D(14,9,10,11)           0.0198         estimate D2E/DX2                !
 ! D68   D(14,9,10,16)        -179.8234         estimate D2E/DX2                !
 ! D69   D(15,9,10,11)         179.9005         estimate D2E/DX2                !
 ! D70   D(15,9,10,16)           0.0573         estimate D2E/DX2                !
 ! D71   D(10,9,14,13)          -0.0205         estimate D2E/DX2                !
 ! D72   D(10,9,14,17)         179.9025         estimate D2E/DX2                !
 ! D73   D(15,9,14,13)        -179.9013         estimate D2E/DX2                !
 ! D74   D(15,9,14,17)           0.0217         estimate D2E/DX2                !
 ! D75   D(9,10,11,12)           0.1527         estimate D2E/DX2                !
 ! D76   D(9,10,11,18)        -179.7404         estimate D2E/DX2                !
 ! D77   D(16,10,11,12)        179.9977         estimate D2E/DX2                !
 ! D78   D(16,10,11,18)          0.1047         estimate D2E/DX2                !
 ! D79   D(10,11,12,8)        -179.4212         estimate D2E/DX2                !
 ! D80   D(10,11,12,13)         -0.3139         estimate D2E/DX2                !
 ! D81   D(18,11,12,8)           0.4706         estimate D2E/DX2                !
 ! D82   D(18,11,12,13)        179.578          estimate D2E/DX2                !
 ! D83   D(8,12,13,14)         179.4155         estimate D2E/DX2                !
 ! D84   D(8,12,13,19)          -1.0934         estimate D2E/DX2                !
 ! D85   D(11,12,13,14)          0.3127         estimate D2E/DX2                !
 ! D86   D(11,12,13,19)        179.8037         estimate D2E/DX2                !
 ! D87   D(12,13,14,9)          -0.151          estimate D2E/DX2                !
 ! D88   D(12,13,14,17)        179.9249         estimate D2E/DX2                !
 ! D89   D(19,13,14,9)        -179.6502         estimate D2E/DX2                !
 ! D90   D(19,13,14,17)          0.4257         estimate D2E/DX2                !
 --------------------------------------------------------------------------------
 Trust Radius=3.00D-01 FncErr=1.00D-07 GrdErr=1.00D-06
 Number of steps in this run=     50 maximum allowed number of steps=    216.
 GradGradGradGradGradGradGradGradGradGradGradGradGradGradGradGradGradGrad

                          Input orientation:                          
 ---------------------------------------------------------------------
 Center     Atomic      Atomic             Coordinates (Angstroms)
 Number     Number       Type             X           Y           Z
 ---------------------------------------------------------------------
      1          6           0       -0.992706   -1.652372    0.363999
      2          6           0       -2.482533   -1.336399    0.356501
      3          6           0       -3.119285   -1.294203    1.765375
      4          6           0       -2.442750   -0.277814    2.732997
      5          6           0       -3.033183   -0.405391    4.149725
      6          8           0       -2.256579    0.335125    5.088415
      7          7           0       -4.558475   -0.992689    1.671213
      8          6           0       -5.368076   -2.153806    1.296607
      9          6           0       -9.570399   -1.155165    1.378103
     10          6           0       -8.778785   -0.777352    0.294960
     11          6           0       -7.424294   -1.108102    0.278405
     12          6           0       -6.831281   -1.817196    1.324882
     13          6           0       -7.640374   -2.182959    2.401395
     14          6           0       -8.997168   -1.860716    2.435065
     15          1           0      -10.626755   -0.900065    1.399924
     16          1           0       -9.205183   -0.224889   -0.536959
     17          1           0       -9.596084   -2.163079    3.289075
     18          9           0       -6.682687   -0.728495   -0.772913
     19          9           0       -7.120992   -2.868362    3.430145
     20          1           0       -0.637815   -1.804965   -0.660546
     21          1           0       -0.408861   -0.832941    0.792661
     22          1           0       -0.786517   -2.564530    0.932553
     23          1           0       -2.645884   -0.391944   -0.175707
     24          1           0       -2.975482   -2.111491   -0.242435
     25          1           0       -1.378118   -0.530966    2.816185
     26          1           0       -3.016509   -1.450521    4.475790
     27          1           0       -4.068440   -0.051887    4.203504
     28          1           0       -2.507413    1.269441    4.993092
     29          1           0       -5.111110   -2.512372    0.293103
     30          1           0       -5.175101   -2.987038    1.983340
     31          1           0       -2.990435   -2.286777    2.219133
     32          6           0       -2.509505    1.176460    2.244476
     33          1           0       -2.070565    1.285133    1.248609
     34          1           0       -3.540074    1.543764    2.206632
     35          1           0       -1.945911    1.838770    2.909866
     36          1           0       -4.711731   -0.252424    0.984899
 ---------------------------------------------------------------------
                    Distance matrix (angstroms):
                    1          2          3          4          5
     1  C    0.000000
     2  C    1.522984   0.000000
     3  C    2.571863   1.546661   0.000000
     4  C    3.099063   2.601907   1.557896   0.000000
     5  C    4.477748   3.944431   2.546080   1.540132   0.000000
     6  O    5.278980   5.023550   3.800206   2.440973   1.425699
     7  N    3.854698   2.481157   1.473447   2.472797   2.968915
     8  C    4.501673   3.142978   2.452697   3.760332   4.080314
     9  C    8.651730   7.163404   6.464223   7.308137   7.139975
    10  C    7.835397   6.321322   5.870196   6.807268   6.928890
    11  C    6.455144   4.947648   4.558379   5.615174   5.895997
    12  C    5.919411   4.481131   3.774450   4.859186   4.939482
    13  C    6.973091   5.612627   4.651307   5.545704   5.238570
    14  C    8.270679   6.858266   5.942973   6.749425   6.373943
    15  H    9.718745   8.222376   7.526686   8.315180   8.091257
    16  H    8.384164   6.872245   6.594113   7.511718   7.751850
    17  H    9.101374   7.738604   6.710107   7.418466   6.848493
    18  F    5.875543   4.391630   4.411436   5.520107   6.136419
    19  F    6.959581   5.771438   4.611192   5.392857   4.826407
    20  H    1.094954   2.157991   3.507658   4.135954   5.552954
    21  H    1.093660   2.178031   2.916390   2.865270   4.282493
    22  H    1.094440   2.171776   2.783726   3.348698   4.478793
    23  H    2.147780   1.096323   2.192254   2.918021   4.342758
    24  H    2.123665   1.096581   2.172542   3.535445   4.712237
    25  H    2.723841   2.813983   2.172187   1.097473   2.129164
    26  H    4.587303   4.155321   2.716864   2.177560   1.094940
    27  H    5.173344   4.354825   2.896328   2.203702   1.095269
    28  H    5.679774   5.318740   4.167111   2.739746   1.947502
    29  H    4.207835   2.880338   2.760233   4.250468   4.861140
    30  H    4.679319   3.552624   2.671999   3.920156   3.993237
    31  H    2.799091   2.151878   1.098955   2.144749   2.696039
    32  C    3.720103   3.143189   2.589507   1.535585   2.531100
    33  H    3.251654   2.799644   2.831931   2.187403   3.492990
    34  H    4.483265   3.582836   2.902728   2.190737   2.798527
    35  H    4.424716   4.109664   3.535843   2.181298   2.784900
    36  H    4.022004   2.557188   2.056777   2.864396   3.585672
                    6          7          8          9         10
     6  O    0.000000
     7  N    4.328866   0.000000
     8  C    5.500364   1.464232   0.000000
     9  C    8.335427   5.023116   4.320121   0.000000
    10  C    8.170311   4.444261   3.811936   1.393770   0.000000
    11  C    7.205857   3.188441   2.521560   2.411912   1.394387
    12  C    6.302743   2.442418   1.501691   2.818490   2.436142
    13  C    6.522735   3.383491   2.526805   2.414225   2.776469
    14  C    7.569513   4.586822   3.814747   1.394118   2.408613
    15  H    9.229870   6.075047   5.407055   1.086941   2.156617
    16  H    8.957765   5.201676   4.669698   2.160152   1.085873
    17  H    7.959082   5.418929   4.673978   2.160640   3.398962
    18  F    7.421380   3.248973   2.835952   3.625989   2.352948
    19  F    6.055964   3.630218   2.852243   3.625674   4.117036
    20  H    6.344362   4.633408   5.131034   9.185281   8.261015
    21  H    4.819953   4.244605   5.156788   9.185878   8.384893
    22  H    5.276388   4.152586   4.614316   8.907379   8.214431
    23  H    5.328336   2.725805   3.561207   7.137628   6.162998
    24  H    5.909375   2.723900   2.845162   6.858107   5.978883
    25  H    2.585505   3.411571   4.567548   8.340934   7.822222
    26  H    2.035027   3.233098   4.016426   7.255093   7.150966
    27  H    2.053214   2.745495   3.815386   6.282648   6.163633
    28  H    0.972086   4.512091   5.793618   8.296543   8.098883
    29  H    6.265110   2.124624   1.096185   4.785864   4.057356
    30  H    5.403335   2.110706   1.096867   4.800074   4.551909
    31  H    3.955464   2.105619   2.553803   6.729324   6.283773
    32  C    2.976542   3.038440   4.490051   7.486207   6.849954
    33  H    3.959953   3.399524   4.764681   7.887923   7.082620
    34  H    3.378290   2.785212   4.223951   6.658491   6.040378
    35  H    2.665246   4.046840   5.500407   8.333232   7.769813
    36  H    4.817866   1.021032   2.035486   4.957439   4.158424
                   11         12         13         14         15
    11  C    0.000000
    12  C    1.396278   0.000000
    13  C    2.389371   1.395455   0.000000
    14  C    2.773363   2.434228   1.394942   0.000000
    15  H    3.399535   3.905430   3.401063   2.156368   0.000000
    16  H    2.148592   3.411349   3.862200   3.398842   2.495645
    17  H    3.859246   3.409080   2.147830   1.086028   2.495271
    18  F    1.341399   2.368141   3.620616   4.114592   4.506254
    19  F    3.622702   2.370868   1.340844   2.350653   4.504039
    20  H    6.886475   6.503929   7.652071   8.914297  10.239302
    21  H    7.039636   6.519164   7.530296   8.804137  10.236143
    22  H    6.827091   6.103409   7.019861   8.376615   9.990954
    23  H    4.853071   4.669118   5.898654   7.022267   8.150773
    24  H    4.590206   4.172563   5.362477   6.594892   7.918767
    25  H    6.582527   5.797875   6.489760   7.743604   9.363723
    26  H    6.096217   4.961366   5.120518   6.332543   8.226773
    27  H    5.271029   4.363035   4.532966   5.540000   7.182685
    28  H    7.215033   6.455922   6.706955   7.645803   9.140094
    29  H    2.706106   2.122929   3.309167   4.484875   5.852087
    30  H    3.390586   2.131907   2.626573   4.010094   5.866546
    31  H    4.981446   3.971434   4.654668   6.025695   7.804323
    32  C    5.765398   5.337169   6.134830   7.165929   8.421103
    33  H    5.944012   5.682841   6.661783   7.699472   8.832122
    34  H    5.083072   4.785977   5.544263   6.436035   7.539504
    35  H    6.754356   6.304372   6.989975   7.976958   9.227036
    36  H    2.930754   2.656425   3.782906   4.801516   5.964830
                   16         17         18         19         20
    16  H    0.000000
    17  H    4.306730   0.000000
    18  F    2.583076   5.200544   0.000000
    19  F    5.202857   2.577480   4.736754   0.000000
    20  H    8.712733   9.796853   6.141001   7.739260   0.000000
    21  H    8.917000   9.612826   6.467057   7.493461   1.763253
    22  H    8.860436   9.128134   6.406595   6.815853   1.771162
    23  H    6.571363   7.965357   4.094594   6.257908   2.502806
    24  H    6.515764   7.503772   3.992174   5.589808   2.394465
    25  H    8.520575   8.391805   6.407737   6.230648   3.776080
    26  H    8.057885   6.723603   6.442908   4.466590   5.671487
    27  H    6.991999   5.987333   5.661874   4.224771   6.204954
    28  H    8.813320   8.058233   7.394016   6.391348   6.701566
    29  H    4.762669   5.404891   2.605468   3.742644   4.628200
    30  H    5.497539   4.682835   3.869207   2.427719   5.382787
    31  H    7.104261   6.692882   5.001331   4.343535   3.749602
    32  C    7.384596   7.903373   5.490805   6.247576   4.564129
    33  H    7.508075   8.525673   5.423368   6.893289   3.904658
    34  H    6.538263   7.182453   4.890487   5.812643   5.278049
    35  H    8.296766   8.641976   6.526159   7.014930   5.266475
    36  H    4.744251   5.728589   2.683508   4.315889   4.659900
                   21         22         23         24         25
    21  H    0.000000
    22  H    1.777806   0.000000
    23  H    2.477193   3.066858   0.000000
    24  H    3.048550   2.525353   1.752121   0.000000
    25  H    2.263912   2.834333   3.252380   3.795364   0.000000
    26  H    4.554852   4.332252   4.784806   4.764474   2.506830
    27  H    5.063241   5.271007   4.617011   5.020249   3.064638
    28  H    5.144662   5.843697   5.431009   6.249843   3.042318
    29  H    5.018087   4.371924   3.285321   2.237948   4.922107
    30  H    5.364224   4.532365   4.218167   3.249459   4.598152
    31  H    3.288310   2.567039   3.073169   2.467846   2.457419
    32  C    3.249333   4.322596   2.887174   4.148793   2.126544
    33  H    2.730455   4.070452   2.274259   3.818264   2.496997
    34  H    4.177623   5.107194   3.197199   4.435942   3.057795
    35  H    3.739401   4.964173   3.871280   5.157672   2.438609
    36  H    4.346107   4.555862   2.373646   2.824365   3.813682
                   26         27         28         29         30
    26  H    0.000000
    27  H    1.771123   0.000000
    28  H    2.815133   2.192296   0.000000
    29  H    4.796848   4.736284   6.570483   0.000000
    30  H    3.637679   3.843038   5.856004   1.756788   0.000000
    31  H    2.406762   3.177193   4.535950   2.873630   2.306237
    32  C    3.483797   2.788710   2.750189   4.917691   4.950587
    33  H    4.335125   3.809269   3.769912   4.957716   5.331924
    34  H    3.793276   2.610128   2.984292   4.752051   4.821964
    35  H    3.797069   3.123013   2.231423   5.983174   5.880012
    36  H    4.061469   3.288382   4.820861   2.396967   2.947831
                   31         32         33         34         35
    31  H    0.000000
    32  C    3.496562   0.000000
    33  H    3.814003   1.093723   0.000000
    34  H    3.869794   1.094722   1.773176   0.000000
    35  H    4.311413   1.095005   1.755513   1.767179   0.000000
    36  H    2.936799   2.911708   3.067472   2.468138   3.965898
                   36
    36  H    0.000000
 Stoichiometry    C13H19F2NO
 Framework group  C1[X(C13H19F2NO)]
 Deg. of freedom   102
 Full point group                 C1      NOp   1
 Largest Abelian subgroup         C1      NOp   1
 Largest concise Abelian subgroup C1      NOp   1
                         Standard orientation:                         
 ---------------------------------------------------------------------
 Center     Atomic      Atomic             Coordinates (Angstroms)
 Number     Number       Type             X           Y           Z
 ---------------------------------------------------------------------
      1          6           0       -3.615274   -2.234119   -1.101245
      2          6           0       -2.228396   -1.939203   -0.545301
      3          6           0       -1.869164   -0.434937   -0.528074
      4          6           0       -2.876771    0.444939    0.270414
      5          6           0       -2.533455    1.937998    0.112567
      6          8           0       -3.583546    2.754086    0.626304
      7          7           0       -0.513366   -0.235441    0.013273
      8          6           0        0.543837   -0.517485   -0.959738
      9          6           0        4.418426    0.421345    0.704475
     10          6           0        3.776643   -0.768232    1.044496
     11          6           0        2.527650   -1.061845    0.498489
     12          6           0        1.894929   -0.191354   -0.391175
     13          6           0        2.552653    0.995769   -0.715881
     14          6           0        3.802362    1.306086   -0.179416
     15          1           0        5.391435    0.658893    1.126688
     16          1           0        4.238062   -1.469485    1.733305
     17          1           0        4.284753    2.238946   -0.456051
     18          9           0        1.928310   -2.210614    0.845581
     19          9           0        1.990107    1.864308   -1.568550
     20          1           0       -3.750063   -3.314698   -1.215722
     21          1           0       -4.402554   -1.876454   -0.431650
     22          1           0       -3.752706   -1.770422   -2.083028
     23          1           0       -2.144627   -2.373515    0.457834
     24          1           0       -1.506847   -2.478386   -1.170714
     25          1           0       -3.876737    0.308834   -0.160853
     26          1           0       -2.420778    2.192231   -0.946472
     27          1           0       -1.604093    2.208696    0.625034
     28          1           0       -3.490673    2.763934    1.593893
     29          1           0        0.536867   -1.571054   -1.262335
     30          1           0        0.384174    0.069224   -1.872644
     31          1           0       -1.897056   -0.073796   -1.565620
     32          6           0       -2.985240    0.065357    1.754386
     33          1           0       -3.253095   -0.987585    1.880069
     34          1           0       -2.046651    0.246199    2.288019
     35          1           0       -3.766800    0.649514    2.251338
     36          1           0       -0.375624   -0.834822    0.828304
 ---------------------------------------------------------------------
 Rotational constants (GHZ):      0.6656265      0.2442190      0.2089313
 Standard basis: 6-31G(d,p) (6D, 7F)
 There are   350 symmetry adapted cartesian basis functions of A   symmetry.
 There are   350 symmetry adapted basis functions of A   symmetry.
   350 basis functions,   609 primitive gaussians,   350 cartesian basis functions
    65 alpha electrons       65 beta electrons
       nuclear repulsion energy      1253.9032604056 Hartrees.
 NAtoms=   36 NActive=   36 NUniq=   36 SFac= 1.00D+00 NAtFMM=   60 NAOKFM=F Big=F
 Integral buffers will be    131072 words long.
 Raffenetti 2 integral format.
 Two-electron integral symmetry is turned on.
 ------------------------------------------------------------------------------
 Polarizable Continuum Model (PCM)
 =================================
 Model                : PCM (using non-symmetric T matrix).
 Atomic radii         : UFF (Universal Force Field).
 Polarization charges : Total charges.
 Charge compensation  : None.
 Solution method      : On-the-fly selection.
 Cavity type          : Scaled VdW (van der Waals Surface) (Alpha=1.100).
 Cavity algorithm     : GePol (No added spheres)
                        Default sphere list used, NSphG=   36.
                        Lebedev-Laikov grids with approx.  5.0 points / Ang**2.
                        Smoothing algorithm: Karplus/York (Gamma=1.0000).
                        Polarization charges: spherical gaussians, with
                                              point-specific exponents (IZeta= 3).
                        Self-potential: point-specific (ISelfS= 7).
                        Self-field    : sphere-specific E.n sum rule (ISelfD= 2).
 1st derivatives      : Analytical E(r).r(x)/FMM algorithm (CHGder, D1EAlg=3).
                        Cavity 1st derivative terms included.
 Solvent              : Chloroform, Eps=   4.711300 Eps(inf)=   2.090627
 ------------------------------------------------------------------------------
 One-electron integrals computed using PRISM.
 NBasis=   350 RedAO= T EigKep=  4.10D-04  NBF=   350
 NBsUse=   350 1.00D-06 EigRej= -1.00D+00 NBFU=   350
 ExpMin= 1.61D-01 ExpMax= 7.00D+03 ExpMxC= 1.05D+03 IAcc=1 IRadAn=         1 AccDes= 0.00D+00
 Harris functional with IExCor=  402 and IRadAn=       1 diagonalized for initial guess.
 HarFok:  IExCor=  402 AccDes= 0.00D+00 IRadAn=         1 IDoV= 1 UseB2=F ITyADJ=14
 ICtDFT=  3500011 ScaDFX=  1.000000  1.000000  1.000000  1.000000
 FoFCou: FMM=F IPFlag=           0 FMFlag=      100000 FMFlg1=           0
         NFxFlg=           0 DoJE=T BraDBF=F KetDBF=T FulRan=T
         wScrn=  0.000000 ICntrl=     500 IOpCl=  0 I1Cent=   200000004 NGrid=           0
         NMat0=    1 NMatS0=      1 NMatT0=    0 NMatD0=    1 NMtDS0=    0 NMtDT0=    0
 Petite list used in FoFCou.
 Requested convergence on RMS density matrix=1.00D-08 within 128 cycles.
 Requested convergence on MAX density matrix=1.00D-06.
 Requested convergence on             energy=1.00D-06.
 No special actions if energy rises.
 Inv3:  Mode=1 IEnd=    19111728.
 Iteration    1 A*A^-1 deviation from unit magnitude is 7.44D-15 for   2274.
 Iteration    1 A*A^-1 deviation from orthogonality  is 5.11D-15 for   1972   1411.
 Iteration    1 A^-1*A deviation from unit magnitude is 7.44D-15 for   2274.
 Iteration    1 A^-1*A deviation from orthogonality  is 4.44D-13 for   2473   2439.
 Error on total polarization charges =  0.00755
 SCF Done:  E(RB3LYP) =  -836.488225372     A.U. after   12 cycles
            NFock= 12  Conv=0.63D-08     -V/T= 2.0088

 **********************************************************************

            Population analysis using the SCF density.

 **********************************************************************

 Orbital symmetries:
       Occupied  (A) (A) (A) (A) (A) (A) (A) (A) (A) (A) (A) (A)
                 (A) (A) (A) (A) (A) (A) (A) (A) (A) (A) (A) (A)
                 (A) (A) (A) (A) (A) (A) (A) (A) (A) (A) (A) (A)
                 (A) (A) (A) (A) (A) (A) (A) (A) (A) (A) (A) (A)
                 (A) (A) (A) (A) (A) (A) (A) (A) (A) (A) (A) (A)
                 (A) (A) (A) (A) (A)
       Virtual   (A) (A) (A) (A) (A) (A) (A) (A) (A) (A) (A) (A)
                 (A) (A) (A) (A) (A) (A) (A) (A) (A) (A) (A) (A)
                 (A) (A) (A) (A) (A) (A) (A) (A) (A) (A) (A) (A)
                 (A) (A) (A) (A) (A) (A) (A) (A) (A) (A) (A) (A)
                 (A) (A) (A) (A) (A) (A) (A) (A) (A) (A) (A) (A)
                 (A) (A) (A) (A) (A) (A) (A) (A) (A) (A) (A) (A)
                 (A) (A) (A) (A) (A) (A) (A) (A) (A) (A) (A) (A)
                 (A) (A) (A) (A) (A) (A) (A) (A) (A) (A) (A) (A)
                 (A) (A) (A) (A) (A) (A) (A) (A) (A) (A) (A) (A)
                 (A) (A) (A) (A) (A) (A) (A) (A) (A) (A) (A) (A)
                 (A) (A) (A) (A) (A) (A) (A) (A) (A) (A) (A) (A)
                 (A) (A) (A) (A) (A) (A) (A) (A) (A) (A) (A) (A)
                 (A) (A) (A) (A) (A) (A) (A) (A) (A) (A) (A) (A)
                 (A) (A) (A) (A) (A) (A) (A) (A) (A) (A) (A) (A)
                 (A) (A) (A) (A) (A) (A) (A) (A) (A) (A) (A) (A)
                 (A) (A) (A) (A) (A) (A) (A) (A) (A) (A) (A) (A)
                 (A) (A) (A) (A) (A) (A) (A) (A) (A) (A) (A) (A)
                 (A) (A) (A) (A) (A) (A) (A) (A) (A) (A) (A) (A)
                 (A) (A) (A) (A) (A) (A) (A) (A) (A) (A) (A) (A)
                 (A) (A) (A) (A) (A) (A) (A) (A) (A) (A) (A) (A)
                 (A) (A) (A) (A) (A) (A) (A) (A) (A) (A) (A) (A)
                 (A) (A) (A) (A) (A) (A) (A) (A) (A) (A) (A) (A)
                 (A) (A) (A) (A) (A) (A) (A) (A) (A) (A) (A) (A)
                 (A) (A) (A) (A) (A) (A) (A) (A) (A)
 The electronic state is 1-A.
 Alpha  occ. eigenvalues --  -24.72074 -24.71695 -19.13579 -14.31562 -10.28106
 Alpha  occ. eigenvalues --  -10.28060 -10.21687 -10.21505 -10.20942 -10.20690
 Alpha  occ. eigenvalues --  -10.20627 -10.19839 -10.19787 -10.17934 -10.17658
 Alpha  occ. eigenvalues --  -10.17152 -10.17100  -1.23412  -1.23050  -1.00659
 Alpha  occ. eigenvalues --   -0.90884  -0.86826  -0.79939  -0.76673  -0.75283
 Alpha  occ. eigenvalues --   -0.75271  -0.68765  -0.67362  -0.64447  -0.62917
 Alpha  occ. eigenvalues --   -0.60868  -0.59924  -0.56106  -0.55222  -0.52770
 Alpha  occ. eigenvalues --   -0.50168  -0.49695  -0.49239  -0.48451  -0.47162
 Alpha  occ. eigenvalues --   -0.46459  -0.45715  -0.45062  -0.44158  -0.43404
 Alpha  occ. eigenvalues --   -0.42988  -0.41100  -0.40271  -0.40067  -0.38806
 Alpha  occ. eigenvalues --   -0.38511  -0.37304  -0.36540  -0.36142  -0.35636
 Alpha  occ. eigenvalues --   -0.35236  -0.34550  -0.33859  -0.33254  -0.31309
 Alpha  occ. eigenvalues --   -0.30816  -0.26049  -0.25418  -0.24675  -0.21571
 Alpha virt. eigenvalues --   -0.01290  -0.00186   0.07197   0.07807   0.09489
 Alpha virt. eigenvalues --    0.10219   0.11057   0.11900   0.14391   0.14614
 Alpha virt. eigenvalues --    0.14886   0.15147   0.15659   0.15935   0.16743
 Alpha virt. eigenvalues --    0.17128   0.17957   0.18070   0.18577   0.19973
 Alpha virt. eigenvalues --    0.20431   0.21075   0.21688   0.22159   0.22672
 Alpha virt. eigenvalues --    0.23815   0.25294   0.25884   0.26870   0.27520
 Alpha virt. eigenvalues --    0.28344   0.29114   0.29489   0.31168   0.33849
 Alpha virt. eigenvalues --    0.37400   0.38612   0.46425   0.49545   0.49702
 Alpha virt. eigenvalues --    0.50008   0.50991   0.51555   0.52468   0.52966
 Alpha virt. eigenvalues --    0.53549   0.55057   0.55496   0.57299   0.57921
 Alpha virt. eigenvalues --    0.58160   0.58917   0.59533   0.59561   0.60618
 Alpha virt. eigenvalues --    0.62063   0.62814   0.63637   0.64522   0.65821
 Alpha virt. eigenvalues --    0.66242   0.66912   0.68183   0.69935   0.71532
 Alpha virt. eigenvalues --    0.73514   0.75645   0.76392   0.78780   0.79430
 Alpha virt. eigenvalues --    0.79632   0.80265   0.82002   0.82621   0.83650
 Alpha virt. eigenvalues --    0.84424   0.85189   0.85565   0.86563   0.86688
 Alpha virt. eigenvalues --    0.87347   0.87889   0.88186   0.89168   0.89858
 Alpha virt. eigenvalues --    0.91410   0.91741   0.92683   0.93259   0.94274
 Alpha virt. eigenvalues --    0.95629   0.96143   0.96743   0.97768   0.98794
 Alpha virt. eigenvalues --    0.99903   1.02194   1.03364   1.03858   1.04409
 Alpha virt. eigenvalues --    1.06960   1.09024   1.09871   1.10867   1.15929
 Alpha virt. eigenvalues --    1.17254   1.19942   1.21381   1.21447   1.22038
 Alpha virt. eigenvalues --    1.23726   1.24894   1.26982   1.29707   1.32632
 Alpha virt. eigenvalues --    1.35364   1.36713   1.37480   1.38637   1.39286
 Alpha virt. eigenvalues --    1.39904   1.41230   1.42651   1.43304   1.43980
 Alpha virt. eigenvalues --    1.45410   1.49409   1.50855   1.51234   1.53627
 Alpha virt. eigenvalues --    1.55986   1.58629   1.62136   1.63373   1.65656
 Alpha virt. eigenvalues --    1.67657   1.69449   1.71920   1.73327   1.73673
 Alpha virt. eigenvalues --    1.75628   1.76658   1.77070   1.78663   1.80089
 Alpha virt. eigenvalues --    1.81932   1.82057   1.83051   1.84309   1.86047
 Alpha virt. eigenvalues --    1.86446   1.86995   1.88582   1.89250   1.89599
 Alpha virt. eigenvalues --    1.90359   1.90520   1.91521   1.93597   1.94113
 Alpha virt. eigenvalues --    1.95071   1.97926   1.98363   1.99489   2.00271
 Alpha virt. eigenvalues --    2.02330   2.03318   2.04745   2.05337   2.05608
 Alpha virt. eigenvalues --    2.06190   2.06786   2.07419   2.09609   2.12190
 Alpha virt. eigenvalues --    2.12650   2.14059   2.14980   2.16265   2.18370
 Alpha virt. eigenvalues --    2.19267   2.21571   2.22055   2.23480   2.26216
 Alpha virt. eigenvalues --    2.26806   2.27956   2.28357   2.29898   2.30922
 Alpha virt. eigenvalues --    2.31611   2.32264   2.33088   2.34164   2.35348
 Alpha virt. eigenvalues --    2.37046   2.37610   2.38076   2.38394   2.40950
 Alpha virt. eigenvalues --    2.41526   2.44771   2.45613   2.47071   2.48020
 Alpha virt. eigenvalues --    2.49593   2.51565   2.52545   2.52757   2.55035
 Alpha virt. eigenvalues --    2.55522   2.56898   2.57839   2.58808   2.62576
 Alpha virt. eigenvalues --    2.64597   2.65298   2.66197   2.66825   2.69765
 Alpha virt. eigenvalues --    2.71097   2.73038   2.73389   2.73790   2.74403
 Alpha virt. eigenvalues --    2.75765   2.77178   2.78208   2.78720   2.82043
 Alpha virt. eigenvalues --    2.83245   2.84056   2.85889   2.87281   2.91136
 Alpha virt. eigenvalues --    2.91679   2.92124   2.92924   2.94884   2.95994
 Alpha virt. eigenvalues --    2.99511   3.00382   3.04334   3.05182   3.06504
 Alpha virt. eigenvalues --    3.10426   3.14811   3.19886   3.20225   3.21741
 Alpha virt. eigenvalues --    3.25596   3.28236   3.30998   3.31513   3.34784
 Alpha virt. eigenvalues --    3.35785   3.36807   3.39927   3.41174   3.45754
 Alpha virt. eigenvalues --    3.46181   3.47780   3.49240   3.52063   3.52791
 Alpha virt. eigenvalues --    3.56366   3.57284   3.80413   3.93684   4.07422
 Alpha virt. eigenvalues --    4.09559   4.11945   4.17522   4.33182   4.37907
 Alpha virt. eigenvalues --    4.41015   4.42983   4.52790   4.56389   4.60063
 Alpha virt. eigenvalues --    4.67144   4.75533   4.78798   5.49793   5.61946
          Condensed to atoms (all electrons):
               1          2          3          4          5          6
     1  C    4.947622   0.342112  -0.040974   0.000102  -0.000030  -0.000001
     2  C    0.342112   4.973473   0.371392  -0.047694   0.004158  -0.000050
     3  C   -0.040974   0.371392   4.860396   0.324652  -0.029937   0.002932
     4  C    0.000102  -0.047694   0.324652   5.055915   0.347540  -0.052959
     5  C   -0.000030   0.004158  -0.029937   0.347540   4.767612   0.232607
     6  O   -0.000001  -0.000050   0.002932  -0.052959   0.232607   8.164242
     7  N    0.005112  -0.054935   0.283942  -0.056424  -0.006638   0.000086
     8  C    0.000154  -0.003992  -0.040875   0.005013   0.000206   0.000000
     9  C    0.000000   0.000000   0.000000   0.000000   0.000000   0.000000
    10  C    0.000000   0.000000   0.000005   0.000000   0.000000   0.000000
    11  C    0.000001   0.000003   0.000130   0.000010   0.000000   0.000000
    12  C    0.000000   0.000032   0.004690  -0.000238  -0.000038   0.000000
    13  C    0.000000  -0.000005  -0.000009  -0.000018  -0.000004   0.000000
    14  C    0.000000   0.000000   0.000004   0.000000   0.000000   0.000000
    15  H    0.000000   0.000000   0.000000   0.000000   0.000000   0.000000
    16  H    0.000000   0.000000   0.000000   0.000000   0.000000   0.000000
    17  H    0.000000   0.000000   0.000000   0.000000   0.000000   0.000000
    18  F    0.000000  -0.000021   0.000004   0.000000   0.000000   0.000000
    19  F    0.000000   0.000000   0.000000   0.000000   0.000000   0.000000
    20  H    0.375083  -0.025652   0.004073   0.000111  -0.000001   0.000000
    21  H    0.389166  -0.034307  -0.005747   0.001863  -0.000022   0.000000
    22  H    0.388196  -0.037305  -0.004963  -0.001505  -0.000055   0.000000
    23  H   -0.038297   0.380948  -0.032803  -0.008833  -0.000016   0.000000
    24  H   -0.038610   0.381448  -0.031836   0.004503  -0.000087   0.000000
    25  H    0.002305  -0.005433  -0.031742   0.372395  -0.042219   0.003720
    26  H   -0.000013  -0.000068  -0.001370  -0.047221   0.382134  -0.035442
    27  H   -0.000011  -0.000003  -0.002296  -0.043313   0.373755  -0.033709
    28  H    0.000000   0.000003  -0.000047  -0.005064  -0.030492   0.288853
    29  H   -0.000584   0.002538  -0.001356  -0.000338   0.000021   0.000000
    30  H    0.000033  -0.000767  -0.005351   0.000359  -0.000031  -0.000001
    31  H   -0.003437  -0.047115   0.386850  -0.046487  -0.006980   0.000043
    32  C   -0.001557  -0.006623  -0.034363   0.354906  -0.042507  -0.003870
    33  H    0.000013   0.002401  -0.005701  -0.030135   0.004667   0.000164
    34  H    0.000021  -0.000076  -0.005908  -0.036201  -0.005483  -0.000233
    35  H    0.000002   0.000000   0.005534  -0.031802  -0.005671   0.008248
    36  H    0.000102  -0.007032  -0.036614  -0.002764   0.000051  -0.000003
               7          8          9         10         11         12
     1  C    0.005112   0.000154   0.000000   0.000000   0.000001   0.000000
     2  C   -0.054935  -0.003992   0.000000   0.000000   0.000003   0.000032
     3  C    0.283942  -0.040875   0.000000   0.000005   0.000130   0.004690
     4  C   -0.056424   0.005013   0.000000   0.000000   0.000010  -0.000238
     5  C   -0.006638   0.000206   0.000000   0.000000   0.000000  -0.000038
     6  O    0.000086   0.000000   0.000000   0.000000   0.000000   0.000000
     7  N    6.912988   0.289078   0.000026  -0.000183  -0.007479  -0.047178
     8  C    0.289078   4.925641  -0.000597   0.008809  -0.048617   0.302388
     9  C    0.000026  -0.000597   4.854298   0.488549  -0.009967  -0.028343
    10  C   -0.000183   0.008809   0.488549   5.054052   0.477413  -0.075615
    11  C   -0.007479  -0.048617  -0.009967   0.477413   4.625512   0.389117
    12  C   -0.047178   0.302388  -0.028343  -0.075615   0.389117   5.314376
    13  C    0.004900  -0.047384  -0.008305  -0.050271   0.014718   0.415134
    14  C   -0.000077   0.008324   0.485455  -0.031563  -0.049065  -0.071010
    15  H    0.000000   0.000004   0.375387  -0.034912   0.003662   0.000215
    16  H    0.000001  -0.000157  -0.037238   0.358353  -0.032591   0.006478
    17  H    0.000002  -0.000146  -0.037483   0.004736   0.000482   0.006390
    18  F   -0.002293   0.003847   0.002954  -0.047553   0.308248  -0.059029
    19  F   -0.000247  -0.002829   0.003060  -0.000052   0.002533  -0.052242
    20  H   -0.000141  -0.000005   0.000000   0.000000   0.000000   0.000000
    21  H   -0.000004   0.000000   0.000000   0.000000   0.000000   0.000000
    22  H    0.000048  -0.000008   0.000000   0.000000   0.000000   0.000000
    23  H   -0.004551  -0.000152   0.000000   0.000000  -0.000015   0.000005
    24  H   -0.003163   0.001087   0.000000   0.000000   0.000037  -0.000148
    25  H    0.004390  -0.000148   0.000000   0.000000   0.000000   0.000004
    26  H   -0.000006   0.000028   0.000000   0.000000   0.000000  -0.000011
    27  H    0.011955  -0.000270   0.000000   0.000000  -0.000008   0.000001
    28  H    0.000004   0.000000   0.000000   0.000000   0.000000   0.000000
    29  H   -0.052169   0.350199  -0.000019  -0.000065  -0.013438  -0.033037
    30  H   -0.042398   0.376439  -0.000030  -0.000165   0.005696  -0.028185
    31  H   -0.042816  -0.006950   0.000000   0.000000  -0.000017   0.000311
    32  C   -0.009112   0.000186   0.000000   0.000000  -0.000002   0.000004
    33  H   -0.000062  -0.000028   0.000000   0.000000   0.000000   0.000000
    34  H    0.006581  -0.000201   0.000000   0.000000  -0.000014   0.000042
    35  H    0.000019   0.000001   0.000000   0.000000   0.000000   0.000000
    36  H    0.331299  -0.034814  -0.000018  -0.000009   0.004950  -0.009013
              13         14         15         16         17         18
     1  C    0.000000   0.000000   0.000000   0.000000   0.000000   0.000000
     2  C   -0.000005   0.000000   0.000000   0.000000   0.000000  -0.000021
     3  C   -0.000009   0.000004   0.000000   0.000000   0.000000   0.000004
     4  C   -0.000018   0.000000   0.000000   0.000000   0.000000   0.000000
     5  C   -0.000004   0.000000   0.000000   0.000000   0.000000   0.000000
     6  O    0.000000   0.000000   0.000000   0.000000   0.000000   0.000000
     7  N    0.004900  -0.000077   0.000000   0.000001   0.000002  -0.002293
     8  C   -0.047384   0.008324   0.000004  -0.000157  -0.000146   0.003847
     9  C   -0.008305   0.485455   0.375387  -0.037238  -0.037483   0.002954
    10  C   -0.050271  -0.031563  -0.034912   0.358353   0.004736  -0.047553
    11  C    0.014718  -0.049065   0.003662  -0.032591   0.000482   0.308248
    12  C    0.415134  -0.071010   0.000215   0.006478   0.006390  -0.059029
    13  C    4.592942   0.471585   0.003620   0.000499  -0.032541   0.002376
    14  C    0.471585   5.056285  -0.034446   0.004683   0.358928  -0.000069
    15  H    0.003620  -0.034446   0.581519  -0.005959  -0.005925  -0.000022
    16  H    0.000499   0.004683  -0.005959   0.595152  -0.000151  -0.000351
    17  H   -0.032541   0.358928  -0.005925  -0.000151   0.594615   0.000001
    18  F    0.002376  -0.000069  -0.000022  -0.000351   0.000001   9.072914
    19  F    0.309820  -0.046799  -0.000023   0.000001  -0.000528   0.000000
    20  H    0.000000   0.000000   0.000000   0.000000   0.000000   0.000000
    21  H    0.000000   0.000000   0.000000   0.000000   0.000000   0.000000
    22  H    0.000000   0.000000   0.000000   0.000000   0.000000   0.000000
    23  H    0.000001   0.000000   0.000000   0.000000   0.000000  -0.000011
    24  H   -0.000008   0.000000   0.000000   0.000000   0.000000  -0.000019
    25  H    0.000000   0.000000   0.000000   0.000000   0.000000   0.000000
    26  H    0.000005   0.000000   0.000000   0.000000   0.000000   0.000000
    27  H    0.000094   0.000001   0.000000   0.000000   0.000000   0.000000
    28  H    0.000000   0.000000   0.000000   0.000000   0.000000   0.000000
    29  H    0.005911  -0.000190   0.000000   0.000001   0.000003   0.004294
    30  H   -0.009153   0.000438   0.000000   0.000002  -0.000008   0.000178
    31  H    0.000018   0.000000   0.000000   0.000000   0.000000  -0.000001
    32  C    0.000000   0.000000   0.000000   0.000000   0.000000   0.000000
    33  H    0.000000   0.000000   0.000000   0.000000   0.000000   0.000000
    34  H    0.000003   0.000000   0.000000   0.000000   0.000000  -0.000002
    35  H    0.000000   0.000000   0.000000   0.000000   0.000000   0.000000
    36  H   -0.000378   0.000008   0.000000   0.000002   0.000000   0.006262
              19         20         21         22         23         24
     1  C    0.000000   0.375083   0.389166   0.388196  -0.038297  -0.038610
     2  C    0.000000  -0.025652  -0.034307  -0.037305   0.380948   0.381448
     3  C    0.000000   0.004073  -0.005747  -0.004963  -0.032803  -0.031836
     4  C    0.000000   0.000111   0.001863  -0.001505  -0.008833   0.004503
     5  C    0.000000  -0.000001  -0.000022  -0.000055  -0.000016  -0.000087
     6  O    0.000000   0.000000   0.000000   0.000000   0.000000   0.000000
     7  N   -0.000247  -0.000141  -0.000004   0.000048  -0.004551  -0.003163
     8  C   -0.002829  -0.000005   0.000000  -0.000008  -0.000152   0.001087
     9  C    0.003060   0.000000   0.000000   0.000000   0.000000   0.000000
    10  C   -0.000052   0.000000   0.000000   0.000000   0.000000   0.000000
    11  C    0.002533   0.000000   0.000000   0.000000  -0.000015   0.000037
    12  C   -0.052242   0.000000   0.000000   0.000000   0.000005  -0.000148
    13  C    0.309820   0.000000   0.000000   0.000000   0.000001  -0.000008
    14  C   -0.046799   0.000000   0.000000   0.000000   0.000000   0.000000
    15  H   -0.000023   0.000000   0.000000   0.000000   0.000000   0.000000
    16  H    0.000001   0.000000   0.000000   0.000000   0.000000   0.000000
    17  H   -0.000528   0.000000   0.000000   0.000000   0.000000   0.000000
    18  F    0.000000   0.000000   0.000000   0.000000  -0.000011  -0.000019
    19  F    9.066168   0.000000   0.000000   0.000000   0.000000   0.000000
    20  H    0.000000   0.616380  -0.031463  -0.031207  -0.002143  -0.005429
    21  H    0.000000  -0.031463   0.600403  -0.032557  -0.006562   0.005504
    22  H    0.000000  -0.031207  -0.032557   0.605335   0.005603  -0.003947
    23  H    0.000000  -0.002143  -0.006562   0.005603   0.633796  -0.039438
    24  H    0.000000  -0.005429   0.005504  -0.003947  -0.039438   0.633927
    25  H    0.000000  -0.000004   0.001310   0.000782   0.000115   0.000029
    26  H    0.000003   0.000000   0.000005   0.000007   0.000004   0.000001
    27  H    0.000006   0.000000  -0.000002   0.000000   0.000001   0.000001
    28  H    0.000000   0.000000   0.000000   0.000000   0.000000   0.000000
    29  H    0.000201   0.000030   0.000001   0.000013   0.000242   0.002766
    30  H    0.009521  -0.000001   0.000001  -0.000006   0.000013   0.000419
    31  H   -0.000021  -0.000098  -0.000276   0.005375   0.005838  -0.005649
    32  C    0.000000  -0.000015   0.000680   0.000127   0.002664   0.000094
    33  H    0.000000  -0.000030   0.001067  -0.000020   0.002287  -0.000075
    34  H    0.000000   0.000003  -0.000034  -0.000003   0.000123  -0.000020
    35  H    0.000000   0.000000  -0.000032   0.000001  -0.000125   0.000002
    36  H   -0.000011  -0.000007   0.000003   0.000023   0.006247  -0.000083
              25         26         27         28         29         30
     1  C    0.002305  -0.000013  -0.000011   0.000000  -0.000584   0.000033
     2  C   -0.005433  -0.000068  -0.000003   0.000003   0.002538  -0.000767
     3  C   -0.031742  -0.001370  -0.002296  -0.000047  -0.001356  -0.005351
     4  C    0.372395  -0.047221  -0.043313  -0.005064  -0.000338   0.000359
     5  C   -0.042219   0.382134   0.373755  -0.030492   0.000021  -0.000031
     6  O    0.003720  -0.035442  -0.033709   0.288853   0.000000  -0.000001
     7  N    0.004390  -0.000006   0.011955   0.000004  -0.052169  -0.042398
     8  C   -0.000148   0.000028  -0.000270   0.000000   0.350199   0.376439
     9  C    0.000000   0.000000   0.000000   0.000000  -0.000019  -0.000030
    10  C    0.000000   0.000000   0.000000   0.000000  -0.000065  -0.000165
    11  C    0.000000   0.000000  -0.000008   0.000000  -0.013438   0.005696
    12  C    0.000004  -0.000011   0.000001   0.000000  -0.033037  -0.028185
    13  C    0.000000   0.000005   0.000094   0.000000   0.005911  -0.009153
    14  C    0.000000   0.000000   0.000001   0.000000  -0.000190   0.000438
    15  H    0.000000   0.000000   0.000000   0.000000   0.000000   0.000000
    16  H    0.000000   0.000000   0.000000   0.000000   0.000001   0.000002
    17  H    0.000000   0.000000   0.000000   0.000000   0.000003  -0.000008
    18  F    0.000000   0.000000   0.000000   0.000000   0.004294   0.000178
    19  F    0.000000   0.000003   0.000006   0.000000   0.000201   0.009521
    20  H   -0.000004   0.000000   0.000000   0.000000   0.000030  -0.000001
    21  H    0.001310   0.000005  -0.000002   0.000000   0.000001   0.000001
    22  H    0.000782   0.000007   0.000000   0.000000   0.000013  -0.000006
    23  H    0.000115   0.000004   0.000001   0.000000   0.000242   0.000013
    24  H    0.000029   0.000001   0.000001   0.000000   0.002766   0.000419
    25  H    0.654586  -0.004955   0.006770  -0.000562   0.000017  -0.000026
    26  H   -0.004955   0.633265  -0.040064   0.006859   0.000006   0.000036
    27  H    0.006770  -0.040064   0.643319  -0.009774   0.000035  -0.000096
    28  H   -0.000562   0.006859  -0.009774   0.423708   0.000000   0.000000
    29  H    0.000017   0.000006   0.000035   0.000000   0.692997  -0.048224
    30  H   -0.000026   0.000036  -0.000096   0.000000  -0.048224   0.610384
    31  H   -0.003083   0.006433  -0.000324   0.000005  -0.000434   0.005987
    32  C   -0.050240   0.005762  -0.010466   0.005274  -0.000023   0.000008
    33  H   -0.003420  -0.000169   0.000017  -0.000144   0.000004  -0.000001
    34  H    0.006195   0.000005   0.005681   0.000210   0.000029  -0.000013
    35  H   -0.004138   0.000108   0.000592   0.002503   0.000000   0.000000
    36  H   -0.000119   0.000003  -0.000136  -0.000003  -0.006798   0.006219
              31         32         33         34         35         36
     1  C   -0.003437  -0.001557   0.000013   0.000021   0.000002   0.000102
     2  C   -0.047115  -0.006623   0.002401  -0.000076   0.000000  -0.007032
     3  C    0.386850  -0.034363  -0.005701  -0.005908   0.005534  -0.036614
     4  C   -0.046487   0.354906  -0.030135  -0.036201  -0.031802  -0.002764
     5  C   -0.006980  -0.042507   0.004667  -0.005483  -0.005671   0.000051
     6  O    0.000043  -0.003870   0.000164  -0.000233   0.008248  -0.000003
     7  N   -0.042816  -0.009112  -0.000062   0.006581   0.000019   0.331299
     8  C   -0.006950   0.000186  -0.000028  -0.000201   0.000001  -0.034814
     9  C    0.000000   0.000000   0.000000   0.000000   0.000000  -0.000018
    10  C    0.000000   0.000000   0.000000   0.000000   0.000000  -0.000009
    11  C   -0.000017  -0.000002   0.000000  -0.000014   0.000000   0.004950
    12  C    0.000311   0.000004   0.000000   0.000042   0.000000  -0.009013
    13  C    0.000018   0.000000   0.000000   0.000003   0.000000  -0.000378
    14  C    0.000000   0.000000   0.000000   0.000000   0.000000   0.000008
    15  H    0.000000   0.000000   0.000000   0.000000   0.000000   0.000000
    16  H    0.000000   0.000000   0.000000   0.000000   0.000000   0.000002
    17  H    0.000000   0.000000   0.000000   0.000000   0.000000   0.000000
    18  F   -0.000001   0.000000   0.000000  -0.000002   0.000000   0.006262
    19  F   -0.000021   0.000000   0.000000   0.000000   0.000000  -0.000011
    20  H   -0.000098  -0.000015  -0.000030   0.000003   0.000000  -0.000007
    21  H   -0.000276   0.000680   0.001067  -0.000034  -0.000032   0.000003
    22  H    0.005375   0.000127  -0.000020  -0.000003   0.000001   0.000023
    23  H    0.005838   0.002664   0.002287   0.000123  -0.000125   0.006247
    24  H   -0.005649   0.000094  -0.000075  -0.000020   0.000002  -0.000083
    25  H   -0.003083  -0.050240  -0.003420   0.006195  -0.004138  -0.000119
    26  H    0.006433   0.005762  -0.000169   0.000005   0.000108   0.000003
    27  H   -0.000324  -0.010466   0.000017   0.005681   0.000592  -0.000136
    28  H    0.000005   0.005274  -0.000144   0.000210   0.002503  -0.000003
    29  H   -0.000434  -0.000023   0.000004   0.000029   0.000000  -0.006798
    30  H    0.005987   0.000008  -0.000001  -0.000013   0.000000   0.006219
    31  H    0.649354   0.005582   0.000006  -0.000003  -0.000146   0.006387
    32  C    0.005582   4.999564   0.380272   0.378643   0.371325   0.003026
    33  H    0.000006   0.380272   0.600467  -0.030694  -0.029291   0.000068
    34  H   -0.000003   0.378643  -0.030694   0.606579  -0.033288   0.000081
    35  H   -0.000146   0.371325  -0.029291  -0.033288   0.616229  -0.000070
    36  H    0.006387   0.003026   0.000068   0.000081  -0.000070   0.487069
 Mulliken charges:
               1
     1  C   -0.326510
     2  C   -0.187430
     3  C    0.067291
     4  C   -0.056373
     5  C    0.057462
     6  O   -0.574629
     7  N   -0.520553
     8  C   -0.084228
     9  C   -0.087728
    10  C   -0.151529
    11  C    0.328704
    12  C   -0.035100
    13  C    0.326450
    14  C   -0.152492
    15  H    0.116880
    16  H    0.111275
    17  H    0.111625
    18  F   -0.291706
    19  F   -0.288562
    20  H    0.100516
    21  H    0.111003
    22  H    0.106065
    23  H    0.095060
    24  H    0.098691
    25  H    0.093473
    26  H    0.094653
    27  H    0.098240
    28  H    0.318668
    29  H    0.097364
    30  H    0.118723
    31  H    0.091650
    32  C   -0.349340
    33  H    0.108338
    34  H    0.107978
    35  H    0.100000
    36  H    0.246069
 Sum of Mulliken charges =   0.00000
 Mulliken charges with hydrogens summed into heavy atoms:
               1
     1  C   -0.008926
     2  C    0.006321
     3  C    0.158941
     4  C    0.037100
     5  C    0.250356
     6  O   -0.255961
     7  N   -0.274484
     8  C    0.131860
     9  C    0.029152
    10  C   -0.040254
    11  C    0.328704
    12  C   -0.035100
    13  C    0.326450
    14  C   -0.040867
    18  F   -0.291706
    19  F   -0.288562
    32  C   -0.033024
 Electronic spatial extent (au):  <R**2>=           5385.4118
 Charge=              0.0000 electrons
 Dipole moment (field-independent basis, Debye):
    X=              2.1718    Y=             -1.8938    Z=              1.2737  Tot=              3.1505
 Quadrupole moment (field-independent basis, Debye-Ang):
   XX=            -97.2659   YY=           -106.5488   ZZ=            -96.1380
   XY=              9.0736   XZ=              0.6096   YZ=              3.1634
 Traceless Quadrupole moment (field-independent basis, Debye-Ang):
   XX=              2.7183   YY=             -6.5646   ZZ=              3.8462
   XY=              9.0736   XZ=              0.6096   YZ=              3.1634
 Octapole moment (field-independent basis, Debye-Ang**2):
  XXX=            108.4214  YYY=             -6.3395  ZZZ=              4.0237  XYY=             25.9020
  XXY=            -14.8374  XXZ=             31.7142  XZZ=            -10.7841  YZZ=              8.8670
  YYZ=              8.6812  XYZ=            -10.4665
 Hexadecapole moment (field-independent basis, Debye-Ang**3):
 XXXX=          -4799.5267 YYYY=          -1447.5545 ZZZZ=           -614.8139 XXXY=            148.8797
 XXXZ=             46.2061 YYYX=             53.7317 YYYZ=             -1.5506 ZZZX=            -32.2608
 ZZZY=            -11.5127 XXYY=          -1121.7451 XXZZ=           -871.1589 YYZZ=           -308.5125
 XXYZ=              3.1047 YYXZ=            -33.9575 ZZXY=            -65.8498
 N-N= 1.253903260406D+03 E-N=-4.461827482558D+03  KE= 8.291807774619D+02
 D1PCM: PCM CHGder 1st derivatives, ID1Alg=3 FixD1E=F DoIter=F DoCFld=F I1PDM=0.
 Calling FoFJK, ICntrl=      2127 FMM=F ISym2X=0 I1Cent= 0 IOpClX= 0 NMat=1 NMatS=1 NMatT=0.
 ***** Axes restored to original set *****
 -------------------------------------------------------------------
 Center     Atomic                   Forces (Hartrees/Bohr)
 Number     Number              X              Y              Z
 -------------------------------------------------------------------
      1        6           0.004153949    0.001176762   -0.004311177
      2        6           0.004957466   -0.005130298    0.002269810
      3        6           0.003468937    0.014538413   -0.007192192
      4        6          -0.004975877   -0.001087800   -0.002140712
      5        6           0.002663424    0.005465008   -0.001014939
      6        8           0.002856562    0.006626625    0.006538340
      7        7          -0.001782062   -0.004715066    0.010815630
      8        6           0.002377289   -0.000982614   -0.005111601
      9        6           0.005627691   -0.001510413    0.000622174
     10        6          -0.000718576    0.004377102   -0.007541272
     11        6          -0.020651309   -0.002917897    0.014724364
     12        6           0.009096785   -0.003834288   -0.000436570
     13        6          -0.016218332    0.010873942   -0.011655931
     14        6          -0.002941640   -0.003181361    0.007136008
     15        1           0.001841748   -0.000433416   -0.000097285
     16        1           0.001418616   -0.000357620   -0.000173441
     17        1           0.001349377   -0.000419083   -0.000145238
     18        9           0.007779504    0.000829867   -0.004685631
     19        9           0.005260950   -0.003064409    0.003262962
     20        1           0.001787664   -0.000763566    0.000436988
     21        1           0.001455316   -0.001107528    0.001011101
     22        1           0.001490839   -0.000358735    0.000543470
     23        1          -0.002128668    0.001284680    0.001768846
     24        1          -0.003479686    0.000708753    0.001515715
     25        1          -0.001075435   -0.003244450    0.001029352
     26        1           0.000784155   -0.000391152    0.000614962
     27        1          -0.002351298   -0.003760203   -0.006153506
     28        1           0.002126838   -0.006721713    0.001209574
     29        1          -0.001131078   -0.004048706   -0.003417952
     30        1           0.000961508    0.004662558    0.000833281
     31        1          -0.004014408    0.000126402   -0.000273873
     32        6           0.000069383    0.000409167   -0.001192301
     33        1          -0.000163837    0.000881913   -0.000287058
     34        1          -0.001102463   -0.000185831   -0.000735817
     35        1          -0.000042047   -0.000802972    0.000356472
     36        1           0.001248714   -0.002942073    0.001877447
 -------------------------------------------------------------------
 Cartesian Forces:  Max     0.020651309 RMS     0.004847856

 GradGradGradGradGradGradGradGradGradGradGradGradGradGradGradGradGradGrad
 Berny optimization.
 FormGI is forming the generalized inverse of G from B-inverse, IUseBI=4.
 Internal  Forces:  Max     0.008901122 RMS     0.002830644
 Search for a local minimum.
 Step number   1 out of a maximum of   50
 All quantities printed in internal units (Hartrees-Bohrs-Radians)
 Mixed Optimization -- RFO/linear search
 Second derivative matrix not updated -- first step.
 ITU=  0
     Eigenvalues ---    0.00230   0.00230   0.00235   0.00295   0.00462
     Eigenvalues ---    0.00720   0.00744   0.00842   0.01352   0.01565
     Eigenvalues ---    0.02145   0.02151   0.02152   0.02158   0.02161
     Eigenvalues ---    0.02167   0.02167   0.02169   0.02721   0.03232
     Eigenvalues ---    0.03380   0.03706   0.04583   0.04654   0.04777
     Eigenvalues ---    0.04872   0.05009   0.05172   0.05332   0.05481
     Eigenvalues ---    0.05499   0.05522   0.05711   0.05960   0.06558
     Eigenvalues ---    0.08549   0.09803   0.11135   0.11641   0.12359
     Eigenvalues ---    0.13158   0.13850   0.16000   0.16000   0.16000
     Eigenvalues ---    0.16000   0.16000   0.16000   0.16000   0.16000
     Eigenvalues ---    0.16000   0.16000   0.16808   0.17236   0.17397
     Eigenvalues ---    0.17954   0.21915   0.21928   0.22001   0.22085
     Eigenvalues ---    0.23396   0.23490   0.24907   0.24996   0.24999
     Eigenvalues ---    0.25000   0.26991   0.27937   0.28507   0.28914
     Eigenvalues ---    0.30081   0.32201   0.33798   0.33963   0.34031
     Eigenvalues ---    0.34063   0.34092   0.34108   0.34211   0.34241
     Eigenvalues ---    0.34246   0.34248   0.34273   0.34304   0.34386
     Eigenvalues ---    0.34393   0.35169   0.35276   0.35294   0.35331
     Eigenvalues ---    0.36440   0.41614   0.42333   0.42493   0.44174
     Eigenvalues ---    0.46336   0.46487   0.46519   0.46624   0.52953
     Eigenvalues ---    0.56893   0.57016
 RFO step:  Lambda=-8.13555221D-03 EMin= 2.30000000D-03
 Linear search not attempted -- first point.
 Iteration  1 RMS(Cart)=  0.05082624 RMS(Int)=  0.00092748
 Iteration  2 RMS(Cart)=  0.00202923 RMS(Int)=  0.00028820
 Iteration  3 RMS(Cart)=  0.00000188 RMS(Int)=  0.00028820
 Iteration  4 RMS(Cart)=  0.00000000 RMS(Int)=  0.00028820
 Variable       Old X    -DE/DX   Delta X   Delta X   Delta X     New X
                                 (Linear)    (Quad)   (Total)
    R1        2.87802   0.00890   0.00000   0.02881   0.02881   2.90683
    R2        2.06916   0.00028   0.00000   0.00079   0.00079   2.06995
    R3        2.06672   0.00034   0.00000   0.00097   0.00097   2.06769
    R4        2.06819   0.00086   0.00000   0.00245   0.00245   2.07065
    R5        2.92277   0.00056   0.00000   0.00195   0.00195   2.92472
    R6        2.07175   0.00057   0.00000   0.00162   0.00162   2.07337
    R7        2.07224   0.00024   0.00000   0.00068   0.00068   2.07291
    R8        2.94400  -0.00346   0.00000  -0.01246  -0.01246   2.93154
    R9        2.78441   0.00438   0.00000   0.01211   0.01211   2.79653
   R10        2.07672  -0.00070   0.00000  -0.00202  -0.00202   2.07471
   R11        2.91043  -0.00134   0.00000  -0.00456  -0.00456   2.90587
   R12        2.07392  -0.00022   0.00000  -0.00062  -0.00062   2.07330
   R13        2.90184   0.00093   0.00000   0.00314   0.00314   2.90497
   R14        2.69418   0.00777   0.00000   0.01831   0.01831   2.71249
   R15        2.06914   0.00057   0.00000   0.00162   0.00162   2.07076
   R16        2.06976   0.00071   0.00000   0.00202   0.00202   2.07178
   R17        1.83698  -0.00713   0.00000  -0.01326  -0.01326   1.82372
   R18        2.76700   0.00500   0.00000   0.01343   0.01343   2.78043
   R19        1.92947  -0.00358   0.00000  -0.00796  -0.00796   1.92151
   R20        2.83778   0.00805   0.00000   0.02438   0.02438   2.86216
   R21        2.07149   0.00419   0.00000   0.01199   0.01199   2.08348
   R22        2.07278  -0.00285   0.00000  -0.00818  -0.00818   2.06460
   R23        2.63384   0.00145   0.00000   0.00321   0.00318   2.63702
   R24        2.63450   0.00082   0.00000   0.00192   0.00189   2.63639
   R25        2.05402  -0.00189   0.00000  -0.00526  -0.00526   2.04876
   R26        2.63501  -0.00364   0.00000  -0.00773  -0.00773   2.62728
   R27        2.05200  -0.00061   0.00000  -0.00168  -0.00168   2.05032
   R28        2.63858  -0.00088   0.00000  -0.00208  -0.00204   2.63654
   R29        2.53488   0.00821   0.00000   0.01422   0.01422   2.54910
   R30        2.63703   0.00031   0.00000   0.00050   0.00053   2.63756
   R31        2.63606  -0.00304   0.00000  -0.00640  -0.00640   2.62966
   R32        2.53383   0.00611   0.00000   0.01056   0.01056   2.54439
   R33        2.05230  -0.00074   0.00000  -0.00205  -0.00205   2.05024
   R34        2.06684   0.00028   0.00000   0.00081   0.00081   2.06764
   R35        2.06873   0.00100   0.00000   0.00285   0.00285   2.07158
   R36        2.06926  -0.00029   0.00000  -0.00083  -0.00083   2.06843
    A1        1.91917   0.00240   0.00000   0.01704   0.01694   1.93610
    A2        1.94841   0.00162   0.00000   0.00952   0.00944   1.95785
    A3        1.93882   0.00079   0.00000   0.00201   0.00200   1.94082
    A4        1.87354  -0.00140   0.00000  -0.00317  -0.00334   1.87019
    A5        1.88481  -0.00165   0.00000  -0.00970  -0.00973   1.87508
    A6        1.89681  -0.00198   0.00000  -0.01680  -0.01679   1.88003
    A7        1.98658   0.00602   0.00000   0.02934   0.02943   2.01602
    A8        1.90379  -0.00021   0.00000   0.00998   0.01030   1.91409
    A9        1.87108   0.00055   0.00000   0.02080   0.02102   1.89209
   A10        1.93623  -0.00390   0.00000  -0.03139  -0.03175   1.90448
   A11        1.90894  -0.00369   0.00000  -0.02598  -0.02661   1.88234
   A12        1.85125   0.00105   0.00000  -0.00331  -0.00413   1.84712
   A13        1.98755  -0.00257   0.00000   0.00437   0.00333   1.99088
   A14        1.92783   0.00626   0.00000   0.05020   0.04995   1.97777
   A15        1.87885  -0.00093   0.00000  -0.01358  -0.01292   1.86593
   A16        1.90748  -0.00106   0.00000   0.00884   0.00773   1.91521
   A17        1.85655   0.00185   0.00000  -0.00197  -0.00206   1.85450
   A18        1.90258  -0.00392   0.00000  -0.05404  -0.05367   1.84892
   A19        1.92924   0.00004   0.00000  -0.00384  -0.00389   1.92535
   A20        1.89426  -0.00041   0.00000  -0.01148  -0.01161   1.88265
   A21        1.98383  -0.00107   0.00000  -0.00294  -0.00290   1.98093
   A22        1.85778  -0.00126   0.00000  -0.01638  -0.01659   1.84119
   A23        1.93310   0.00111   0.00000   0.00914   0.00914   1.94224
   A24        1.85953   0.00157   0.00000   0.02500   0.02507   1.88460
   A25        1.93243   0.00760   0.00000   0.04050   0.04044   1.97287
   A26        1.92534  -0.00109   0.00000  -0.01836  -0.01871   1.90663
   A27        1.96145  -0.00713   0.00000  -0.03946  -0.04084   1.92061
   A28        1.86650  -0.00413   0.00000  -0.02554  -0.02503   1.84147
[...]
    29  H   -0.000606   0.002525  -0.001877  -0.000220  -0.000010   0.000000
    30  H    0.000031  -0.000696  -0.004918   0.000131   0.000126   0.000000
    31  H   -0.004296  -0.051947   0.386985  -0.047958  -0.007427   0.000068
    32  C   -0.000226  -0.007002  -0.033668   0.355761  -0.042237  -0.004444
    33  H    0.000073   0.001262  -0.003952  -0.030101   0.004637   0.000168
    34  H   -0.000023   0.000268  -0.007653  -0.036338  -0.004978  -0.000313
    35  H   -0.000009   0.000031   0.005449  -0.031823  -0.006516   0.009072
    36  H    0.000045  -0.006077  -0.037049  -0.003948   0.000230  -0.000001
               7          8          9         10         11         12
     1  C    0.004471   0.000167   0.000000   0.000000   0.000001   0.000000
     2  C   -0.050631  -0.004780   0.000000   0.000000   0.000014   0.000013
     3  C    0.284724  -0.038129   0.000000   0.000004   0.000156   0.004409
     4  C   -0.051708   0.004880   0.000000   0.000000   0.000005  -0.000256
     5  C   -0.010258   0.000218   0.000000   0.000000   0.000001  -0.000019
     6  O    0.000040   0.000000   0.000000   0.000000   0.000000   0.000000
     7  N    6.916088   0.286280   0.000021  -0.000183  -0.007386  -0.039229
     8  C    0.286280   4.924666  -0.000670   0.008348  -0.051277   0.307101
     9  C    0.000021  -0.000670   4.863954   0.485709  -0.006283  -0.027498
    10  C   -0.000183   0.008348   0.485709   5.043445   0.482953  -0.081175
    11  C   -0.007386  -0.051277  -0.006283   0.482953   4.633419   0.384937
    12  C   -0.039229   0.307101  -0.027498  -0.081175   0.384937   5.293052
    13  C    0.003760  -0.046680  -0.004310  -0.048773   0.021078   0.422255
    14  C   -0.000075   0.007582   0.482909  -0.036707  -0.046992  -0.073935
    15  H    0.000000   0.000005   0.373653  -0.034686   0.003558   0.000448
    16  H    0.000001  -0.000135  -0.036050   0.361008  -0.032043   0.006168
    17  H    0.000001  -0.000119  -0.036584   0.004471   0.000323   0.006123
    18  F   -0.003780   0.004944   0.002828  -0.045807   0.294597  -0.058760
    19  F   -0.000119  -0.005529   0.003035   0.000013   0.002776  -0.048849
    20  H   -0.000120  -0.000005   0.000000   0.000000   0.000000   0.000000
    21  H   -0.000003   0.000000   0.000000   0.000000   0.000000   0.000000
    22  H    0.000045  -0.000002   0.000000   0.000000   0.000000   0.000000
    23  H   -0.002591  -0.000065   0.000000   0.000000  -0.000008   0.000009
    24  H   -0.004550   0.001566   0.000000   0.000000   0.000052  -0.000258
    25  H    0.004309  -0.000144   0.000000   0.000000   0.000000   0.000004
    26  H    0.000141   0.000005   0.000000   0.000000   0.000000  -0.000002
    27  H    0.015061  -0.000441   0.000000   0.000000  -0.000007   0.000022
    28  H    0.000015   0.000000   0.000000   0.000000   0.000000   0.000000
    29  H   -0.047061   0.347639   0.000003  -0.000174  -0.011204  -0.031594
    30  H   -0.045470   0.375432  -0.000032  -0.000145   0.005778  -0.028881
    31  H   -0.047977  -0.006179   0.000000   0.000000  -0.000014   0.000322
    32  C   -0.011990   0.000268   0.000000   0.000000  -0.000003   0.000005
    33  H   -0.000219  -0.000035   0.000000   0.000000  -0.000001   0.000001
    34  H    0.008805  -0.000243   0.000000  -0.000001  -0.000019   0.000071
    35  H    0.000095  -0.000001   0.000000   0.000000   0.000000   0.000000
    36  H    0.327461  -0.036379  -0.000021   0.000016   0.004348  -0.010398
              13         14         15         16         17         18
     1  C    0.000000   0.000000   0.000000   0.000000   0.000000   0.000000
     2  C   -0.000004   0.000000   0.000000   0.000000   0.000000  -0.000018
     3  C   -0.000035   0.000003   0.000000   0.000000   0.000000  -0.000015
     4  C   -0.000006   0.000000   0.000000   0.000000   0.000000   0.000002
     5  C   -0.000007   0.000000   0.000000   0.000000   0.000000   0.000000
     6  O    0.000000   0.000000   0.000000   0.000000   0.000000   0.000000
     7  N    0.003760  -0.000075   0.000000   0.000001   0.000001  -0.003780
     8  C   -0.046680   0.007582   0.000005  -0.000135  -0.000119   0.004944
     9  C   -0.004310   0.482909   0.373653  -0.036050  -0.036584   0.002828
    10  C   -0.048773  -0.036707  -0.034686   0.361008   0.004471  -0.045807
    11  C    0.021078  -0.046992   0.003558  -0.032043   0.000323   0.294597
    12  C    0.422255  -0.073935   0.000448   0.006168   0.006123  -0.058760
    13  C    4.596540   0.473887   0.003536   0.000356  -0.032196   0.002546
    14  C    0.473887   5.045331  -0.033794   0.004352   0.361942  -0.000012
    15  H    0.003536  -0.033794   0.581348  -0.005629  -0.005657  -0.000024
    16  H    0.000356   0.004352  -0.005629   0.585591  -0.000131  -0.000372
    17  H   -0.032196   0.361942  -0.005657  -0.000131   0.585760   0.000001
    18  F    0.002546  -0.000012  -0.000024  -0.000372   0.000001   9.093494
    19  F    0.295871  -0.044541  -0.000025   0.000001  -0.000626  -0.000001
    20  H    0.000000   0.000000   0.000000   0.000000   0.000000   0.000000
    21  H    0.000000   0.000000   0.000000   0.000000   0.000000   0.000000
    22  H    0.000000   0.000000   0.000000   0.000000   0.000000   0.000000
    23  H    0.000000   0.000000   0.000000   0.000000   0.000000  -0.000011
    24  H   -0.000007   0.000000   0.000000   0.000000   0.000000  -0.000001
    25  H    0.000000   0.000000   0.000000   0.000000   0.000000   0.000000
    26  H    0.000001   0.000000   0.000000   0.000000   0.000000   0.000000
    27  H    0.000060   0.000000   0.000000   0.000000   0.000000   0.000000
    28  H    0.000000   0.000000   0.000000   0.000000   0.000000   0.000000
    29  H    0.004636  -0.000207   0.000000   0.000001   0.000003   0.002771
    30  H   -0.007810   0.000463   0.000000   0.000001  -0.000008   0.000177
    31  H    0.000008   0.000000   0.000000   0.000000   0.000000  -0.000002
    32  C    0.000000   0.000000   0.000000   0.000000   0.000000  -0.000003
    33  H    0.000000   0.000000   0.000000   0.000000   0.000000   0.000000
    34  H    0.000004   0.000000   0.000000   0.000000   0.000000  -0.000007
    35  H    0.000000   0.000000   0.000000   0.000000   0.000000   0.000000
    36  H   -0.000269   0.000011   0.000000   0.000003   0.000000   0.010781
              19         20         21         22         23         24
     1  C    0.000000   0.376299   0.388549   0.386974  -0.036880  -0.036217
     2  C    0.000000  -0.024441  -0.034449  -0.036658   0.377367   0.379434
     3  C    0.000003   0.003506  -0.004659  -0.005037  -0.035248  -0.034562
     4  C    0.000000   0.000093   0.001029  -0.000589  -0.009562   0.004518
     5  C    0.000000   0.000000  -0.000110  -0.000054   0.000030  -0.000108
     6  O    0.000000   0.000000   0.000001   0.000000   0.000000   0.000000
     7  N   -0.000119  -0.000120  -0.000003   0.000045  -0.002591  -0.004550
     8  C   -0.005529  -0.000005   0.000000  -0.000002  -0.000065   0.001566
     9  C    0.003035   0.000000   0.000000   0.000000   0.000000   0.000000
    10  C    0.000013   0.000000   0.000000   0.000000   0.000000   0.000000
    11  C    0.002776   0.000000   0.000000   0.000000  -0.000008   0.000052
    12  C   -0.048849   0.000000   0.000000   0.000000   0.000009  -0.000258
    13  C    0.295871   0.000000   0.000000   0.000000   0.000000  -0.000007
    14  C   -0.044541   0.000000   0.000000   0.000000   0.000000   0.000000
    15  H   -0.000025   0.000000   0.000000   0.000000   0.000000   0.000000
    16  H    0.000001   0.000000   0.000000   0.000000   0.000000   0.000000
    17  H   -0.000626   0.000000   0.000000   0.000000   0.000000   0.000000
    18  F   -0.000001   0.000000   0.000000   0.000000  -0.000011  -0.000001
    19  F    9.085524   0.000000   0.000000   0.000000   0.000000   0.000000
    20  H    0.000000   0.609920  -0.030926  -0.031492  -0.002527  -0.004368
    21  H    0.000000  -0.030926   0.598816  -0.033356  -0.005212   0.005135
    22  H    0.000000  -0.031492  -0.033356   0.606465   0.005363  -0.004247
    23  H    0.000000  -0.002527  -0.005212   0.005363   0.635791  -0.038660
    24  H    0.000000  -0.004368   0.005135  -0.004247  -0.038660   0.634575
    25  H    0.000000  -0.000061   0.003498   0.000371  -0.000002   0.000110
    26  H    0.000000   0.000000   0.000016   0.000010   0.000004   0.000002
    27  H    0.000004   0.000000  -0.000001   0.000001  -0.000004   0.000004
    28  H    0.000000   0.000000   0.000000   0.000000   0.000000   0.000000
    29  H    0.000206   0.000031   0.000001   0.000008   0.000029   0.003699
    30  H    0.011122  -0.000001   0.000001  -0.000004   0.000016   0.000284
    31  H   -0.000017  -0.000054  -0.000243   0.005905   0.006332  -0.004091
    32  C    0.000000  -0.000014   0.000300   0.000033   0.002453   0.000068
    33  H    0.000000  -0.000005   0.000118  -0.000003   0.003623  -0.000121
    34  H    0.000000   0.000002  -0.000008   0.000000   0.000067  -0.000023
    35  H    0.000000   0.000000  -0.000008   0.000001  -0.000184   0.000004
    36  H   -0.000010  -0.000002   0.000004   0.000019   0.004957  -0.000015
              25         26         27         28         29         30
     1  C    0.000600  -0.000017  -0.000020   0.000000  -0.000606   0.000031
     2  C   -0.004629  -0.000096   0.000168   0.000001   0.002525  -0.000696
     3  C   -0.036888  -0.002753  -0.002546  -0.000081  -0.001877  -0.004918
     4  C    0.373707  -0.046208  -0.051719  -0.005391  -0.000220   0.000131
     5  C   -0.041736   0.382750   0.371045  -0.030868  -0.000010   0.000126
     6  O    0.003041  -0.037069  -0.031444   0.290079   0.000000   0.000000
     7  N    0.004309   0.000141   0.015061   0.000015  -0.047061  -0.045470
     8  C   -0.000144   0.000005  -0.000441   0.000000   0.347639   0.375432
     9  C    0.000000   0.000000   0.000000   0.000000   0.000003  -0.000032
    10  C    0.000000   0.000000   0.000000   0.000000  -0.000174  -0.000145
    11  C    0.000000   0.000000  -0.000007   0.000000  -0.011204   0.005778
    12  C    0.000004  -0.000002   0.000022   0.000000  -0.031594  -0.028881
    13  C    0.000000   0.000001   0.000060   0.000000   0.004636  -0.007810
    14  C    0.000000   0.000000   0.000000   0.000000  -0.000207   0.000463
    15  H    0.000000   0.000000   0.000000   0.000000   0.000000   0.000000
    16  H    0.000000   0.000000   0.000000   0.000000   0.000001   0.000001
    17  H    0.000000   0.000000   0.000000   0.000000   0.000003  -0.000008
    18  F    0.000000   0.000000   0.000000   0.000000   0.002771   0.000177
    19  F    0.000000   0.000000   0.000004   0.000000   0.000206   0.011122
    20  H   -0.000061   0.000000   0.000000   0.000000   0.000031  -0.000001
    21  H    0.003498   0.000016  -0.000001   0.000000   0.000001   0.000001
    22  H    0.000371   0.000010   0.000001   0.000000   0.000008  -0.000004
    23  H   -0.000002   0.000004  -0.000004   0.000000   0.000029   0.000016
    24  H    0.000110   0.000002   0.000004   0.000000   0.003699   0.000284
    25  H    0.657229  -0.006509   0.007183  -0.000482   0.000015  -0.000017
    26  H   -0.006509   0.634603  -0.040003   0.007004   0.000005  -0.000006
    27  H    0.007183  -0.040003   0.646184  -0.008510   0.000056  -0.000150
    28  H   -0.000482   0.007004  -0.008510   0.421944   0.000000   0.000000
    29  H    0.000015   0.000005   0.000056   0.000000   0.683752  -0.047064
    30  H   -0.000017  -0.000006  -0.000150   0.000000  -0.047064   0.607585
    31  H   -0.002077   0.007026  -0.000594   0.000008  -0.000811   0.006720
    32  C   -0.047762   0.005774  -0.009680   0.005554  -0.000028   0.000012
    33  H   -0.003281  -0.000165  -0.000011  -0.000134   0.000005  -0.000001
    34  H    0.006032  -0.000017   0.005596   0.000237   0.000037  -0.000021
    35  H   -0.003438   0.000123   0.000620   0.002091   0.000000   0.000000
    36  H   -0.000106  -0.000011  -0.000192  -0.000004  -0.006005   0.006440
              31         32         33         34         35         36
     1  C   -0.004296  -0.000226   0.000073  -0.000023  -0.000009   0.000045
     2  C   -0.051947  -0.007002   0.001262   0.000268   0.000031  -0.006077
     3  C    0.386985  -0.033668  -0.003952  -0.007653   0.005449  -0.037049
     4  C   -0.047958   0.355761  -0.030101  -0.036338  -0.031823  -0.003948
     5  C   -0.007427  -0.042237   0.004637  -0.004978  -0.006516   0.000230
     6  O    0.000068  -0.004444   0.000168  -0.000313   0.009072  -0.000001
     7  N   -0.047977  -0.011990  -0.000219   0.008805   0.000095   0.327461
     8  C   -0.006179   0.000268  -0.000035  -0.000243  -0.000001  -0.036379
     9  C    0.000000   0.000000   0.000000   0.000000   0.000000  -0.000021
    10  C    0.000000   0.000000   0.000000  -0.000001   0.000000   0.000016
    11  C   -0.000014  -0.000003  -0.000001  -0.000019   0.000000   0.004348
    12  C    0.000322   0.000005   0.000001   0.000071   0.000000  -0.010398
    13  C    0.000008   0.000000   0.000000   0.000004   0.000000  -0.000269
    14  C    0.000000   0.000000   0.000000   0.000000   0.000000   0.000011
    15  H    0.000000   0.000000   0.000000   0.000000   0.000000   0.000000
    16  H    0.000000   0.000000   0.000000   0.000000   0.000000   0.000003
    17  H    0.000000   0.000000   0.000000   0.000000   0.000000   0.000000
    18  F   -0.000002  -0.000003   0.000000  -0.000007   0.000000   0.010781
    19  F   -0.000017   0.000000   0.000000   0.000000   0.000000  -0.000010
    20  H   -0.000054  -0.000014  -0.000005   0.000002   0.000000  -0.000002
    21  H   -0.000243   0.000300   0.000118  -0.000008  -0.000008   0.000004
    22  H    0.005905   0.000033  -0.000003   0.000000   0.000001   0.000019
    23  H    0.006332   0.002453   0.003623   0.000067  -0.000184   0.004957
    24  H   -0.004091   0.000068  -0.000121  -0.000023   0.000004  -0.000015
    25  H   -0.002077  -0.047762  -0.003281   0.006032  -0.003438  -0.000106
    26  H    0.007026   0.005774  -0.000165  -0.000017   0.000123  -0.000011
    27  H   -0.000594  -0.009680  -0.000011   0.005596   0.000620  -0.000192
    28  H    0.000008   0.005554  -0.000134   0.000237   0.002091  -0.000004
    29  H   -0.000811  -0.000028   0.000005   0.000037   0.000000  -0.006005
    30  H    0.006720   0.000012  -0.000001  -0.000021   0.000000   0.006440
    31  H    0.661315   0.005655  -0.000026   0.000007  -0.000145   0.007044
    32  C    0.005655   4.998972   0.380064   0.377437   0.370662   0.003600
    33  H   -0.000026   0.380064   0.600062  -0.030920  -0.028948   0.000272
    34  H    0.000007   0.377437  -0.030920   0.604945  -0.032277  -0.000289
    35  H   -0.000145   0.370662  -0.028948  -0.032277   0.613848  -0.000098
    36  H    0.007044   0.003600   0.000272  -0.000289  -0.000098   0.490032
 Mulliken charges:
               1
     1  C   -0.326330
     2  C   -0.187802
     3  C    0.070754
     4  C   -0.054333
     5  C    0.051816
     6  O   -0.572510
     7  N   -0.527970
     8  C   -0.078287
     9  C   -0.100664
    10  C   -0.138316
    11  C    0.321243
    12  C   -0.024087
    13  C    0.315559
    14  C   -0.140215
    15  H    0.117267
    16  H    0.116876
    17  H    0.116697
    18  F   -0.303328
    19  F   -0.298839
    20  H    0.104167
    21  H    0.111507
    22  H    0.106247
    23  H    0.094913
    24  H    0.097777
    25  H    0.091036
    26  H    0.095394
    27  H    0.099318
    28  H    0.318536
    29  H    0.101441
    30  H    0.120908
    31  H    0.086461
    32  C   -0.349562
    33  H    0.107639
    34  H    0.109622
    35  H    0.101451
    36  H    0.245615
 Sum of Mulliken charges =   0.00000
 Mulliken charges with hydrogens summed into heavy atoms:
               1
     1  C   -0.004410
     2  C    0.004887
     3  C    0.157215
     4  C    0.036703
     5  C    0.246528
     6  O   -0.253974
     7  N   -0.282355
     8  C    0.144063
     9  C    0.016603
    10  C   -0.021440
    11  C    0.321243
    12  C   -0.024087
    13  C    0.315559
    14  C   -0.023519
    18  F   -0.303328
    19  F   -0.298839
    32  C   -0.030850
 Electronic spatial extent (au):  <R**2>=           5438.5971
 Charge=              0.0000 electrons
 Dipole moment (field-independent basis, Debye):
    X=              2.5722    Y=             -1.8259    Z=              1.2070  Tot=              3.3774
 Quadrupole moment (field-independent basis, Debye-Ang):
   XX=            -97.3236   YY=           -106.0471   ZZ=            -96.6114
   XY=              9.1712   XZ=              1.8143   YZ=              3.1604
 Traceless Quadrupole moment (field-independent basis, Debye-Ang):
   XX=              2.6704   YY=             -6.0531   ZZ=              3.3827
   XY=              9.1712   XZ=              1.8143   YZ=              3.1604
 Octapole moment (field-independent basis, Debye-Ang**2):
  XXX=            121.7514  YYY=             -3.7052  ZZZ=              6.3145  XYY=             24.5169
  XXY=            -19.1791  XXZ=             26.6435  XZZ=             -8.9188  YZZ=              8.2157
  YYZ=              8.5423  XYZ=             -9.7648
 Hexadecapole moment (field-independent basis, Debye-Ang**3):
 XXXX=          -4854.2832 YYYY=          -1376.4505 ZZZZ=           -697.3375 XXXY=            189.4352
 XXXZ=             63.6944 YYYX=             49.8679 YYYZ=              0.4891 ZZZX=            -30.4455
 ZZZY=            -13.5929 XXYY=          -1126.0450 XXZZ=           -893.2829 YYZZ=           -311.7360
 XXYZ=            -12.0843 YYXZ=            -33.7165 ZZXY=            -64.8583
 N-N= 1.249784256201D+03 E-N=-4.453510613341D+03  KE= 8.290965658591D+02
 1\1\GINC-SWANNODE-0-13\FOpt\RB3LYP\6-31G(d,p)\C13H19F2N1O1\KE291\06-Ma
 r-2019\0\\# b3lyp/6-31g(d,p) Opt=(maxcycles=50) scrf=(solvent=chlorofo
 rm)\\AT3_2ginp011\\0,1\C,-0.9988938164,-1.8632519746,0.3638597014\C,-2
 .4406120721,-1.3411785346,0.3666091196\C,-3.0916364374,-1.2258679017,1
 .7645218049\C,-2.4180414047,-0.1700038186,2.6792413037\C,-2.8441866459
 ,-0.3935747199,4.1402049531\O,-2.1728093782,0.465707162,5.0643641923\N
 ,-4.5467607872,-0.9753663264,1.7079151447\C,-5.3553581048,-2.148574958
 3,1.3522593301\C,-9.5807345337,-1.1566041127,1.3258476377\C,-8.7469883
 391,-0.6824825267,0.3110068095\C,-7.4023466467,-1.0234461441,0.3559070
 366\C,-6.8295218721,-1.8133305482,1.35429309\C,-7.710251735,-2.2518802
 559,2.3441862599\C,-9.0673825137,-1.948004693,2.3534662761\H,-10.63633
 23118,-0.9063803694,1.3155097933\H,-9.1184157035,-0.0635893091,-0.4974
 697652\H,-9.6937970138,-2.3276147375,3.1523579924\F,-6.5798102781,-0.5
 600321527,-0.6203023877\F,-7.2192896475,-3.0230622713,3.3419072174\H,-
 0.6356153218,-1.9950760552,-0.660423183\H,-0.31017676,-1.1791913071,0.
 8690809565\H,-0.9302263183,-2.834688573,0.866891559\H,-2.4818390425,-0
 .3650484289,-0.1345012676\H,-3.0558078247,-2.0166272082,-0.2401762153\
 H,-1.3345775144,-0.3411092078,2.6419004108\H,-2.5819102039,-1.41419700
 95,4.4416439525\H,-3.9343047311,-0.2949932119,4.2243493739\H,-2.587046
 7055,1.3359210536,5.0071041408\H,-5.1006625563,-2.5785440197,0.3693945
 952\H,-5.1718756989,-2.9265397938,2.0973865077\H,-2.9711112937,-2.2004
 771893,2.2608797247\C,-2.684177513,1.2766561935,2.2379896877\H,-2.3523
 646786,1.4624367292,1.2118445653\H,-3.7510356769,1.5189985541,2.299838
 9978\H,-2.1409486967,1.9771930314,2.8796959546\H,-4.7302102222,-0.2443
 923645,1.0234837297\\Version=EM64L-G09RevD.01\State=1-A\HF=-836.492690
 3\RMSD=7.248e-09\RMSF=5.887e-06\Dipole=-0.9222951,0.2256441,-0.9295897
 \Quadrupole=4.8409381,2.1368481,-6.9777862,-1.9691538,-5.1805009,0.180
 5203\PG=C01 [X(C13H19F2N1O1)]\\@


 YOU KNOW YOU'VE SPOKEN TOO LONG WHEN THE AUDIENCE STOPS LOOKING AT
 THEIR WATCHES AND STARTS SHAKING THEM.
 Job cpu time:       0 days  2 hours 23 minutes 17.2 seconds.
 File lengths (MBytes):  RWF=    286 Int=      0 D2E=      0 Chk=     13 Scr=      1
 Normal termination of Gaussian 09 at Wed Mar  6 12:10:36 2019.
