 Entering Gaussian System, Link 0=/usr/local/shared/gaussian/em64t/09-D01/g09/g09
 Initial command:
 /usr/local/shared/gaussian/em64t/09-D01/g09/l1.exe "/scratch/ke291/AT3_2ginp006/Gau-13710.inp" -scrdir="/scratch/ke291/AT3_2ginp006/"
 Entering Link 1 = /usr/local/shared/gaussian/em64t/09-D01/g09/l1.exe PID=     13726.
  
 Copyright (c) 1988,1990,1992,1993,1995,1998,2003,2009,2013,
            Gaussian, Inc.  All Rights Reserved.
  
 This is part of the Gaussian(R) 09 program.  It is based on
 the Gaussian(R) 03 system (copyright 2003, Gaussian, Inc.),
 the Gaussian(R) 98 system (copyright 1998, Gaussian, Inc.),
 the Gaussian(R) 94 system (copyright 1995, Gaussian, Inc.),
 the Gaussian 92(TM) system (copyright 1992, Gaussian, Inc.),
 the Gaussian 90(TM) system (copyright 1990, Gaussian, Inc.),
 the Gaussian 88(TM) system (copyright 1988, Gaussian, Inc.),
 the Gaussian 86(TM) system (copyright 1986, Carnegie Mellon
 University), and the Gaussian 82(TM) system (copyright 1983,
 Carnegie Mellon University). Gaussian is a federally registered
 trademark of Gaussian, Inc.
  
 This software contains proprietary and confidential information,
 including trade secrets, belonging to Gaussian, Inc.
  
 This software is provided under written license and may be
 used, copied, transmitted, or stored only in accord with that
 written license.
  
 The following legend is applicable only to US Government
 contracts under FAR:
  
                    RESTRICTED RIGHTS LEGEND
  
 Use, reproduction and disclosure by the US Government is
 subject to restrictions as set forth in subparagraphs (a)
 and (c) of the Commercial Computer Software - Restricted
 Rights clause in FAR 52.227-19.
  
 Gaussian, Inc.
 340 Quinnipiac St., Bldg. 40, Wallingford CT 06492
  
  
 ---------------------------------------------------------------
 Warning -- This program may not be used in any manner that
 competes with the business of Gaussian, Inc. or will provide
 assistance to any competitor of Gaussian, Inc.  The licensee
 of this program is prohibited from giving any competitor of
 Gaussian, Inc. access to this program.  By using this program,
 the user acknowledges that Gaussian, Inc. is engaged in the
 business of creating and licensing software in the field of
 computational chemistry and represents and warrants to the
 licensee that it is not a competitor of Gaussian, Inc. and that
 it will not use this program in any manner prohibited above.
 ---------------------------------------------------------------
  

 Cite this work as:
 Gaussian 09, Revision D.01,
 M. J. Frisch, G. W. Trucks, H. B. Schlegel, G. E. Scuseria, 
 M. A. Robb, J. R. Cheeseman, G. Scalmani, V. Barone, B. Mennucci, 
 G. A. Petersson, H. Nakatsuji, M. Caricato, X. Li, H. P. Hratchian, 
 A. F. Izmaylov, J. Bloino, G. Zheng, J. L. Sonnenberg, M. Hada, 
 M. Ehara, K. Toyota, R. Fukuda, J. Hasegawa, M. Ishida, T. Nakajima, 
 Y. Honda, O. Kitao, H. Nakai, T. Vreven, J. A. Montgomery, Jr., 
 J. E. Peralta, F. Ogliaro, M. Bearpark, J. J. Heyd, E. Brothers, 
 K. N. Kudin, V. N. Staroverov, T. Keith, R. Kobayashi, J. Normand, 
 K. Raghavachari, A. Rendell, J. C. Burant, S. S. Iyengar, J. Tomasi, 
 M. Cossi, N. Rega, J. M. Millam, M. Klene, J. E. Knox, J. B. Cross, 
 V. Bakken, C. Adamo, J. Jaramillo, R. Gomperts, R. E. Stratmann, 
 O. Yazyev, A. J. Austin, R. Cammi, C. Pomelli, J. W. Ochterski, 
 R. L. Martin, K. Morokuma, V. G. Zakrzewski, G. A. Voth, 
 P. Salvador, J. J. Dannenberg, S. Dapprich, A. D. Daniels, 
 O. Farkas, J. B. Foresman, J. V. Ortiz, J. Cioslowski, 
 and D. J. Fox, Gaussian, Inc., Wallingford CT, 2013.
 
 ******************************************
 Gaussian 09:  EM64L-G09RevD.01 24-Apr-2013
                 6-Mar-2019 
 ******************************************
 %nprocshared=2
 Will use up to    2 processors via shared memory.
 %mem=6000MB
 %chk=AT3_2ginp006.chk
 ---------------------------------------------------------------
 # b3lyp/6-31g(d,p) Opt=(maxcycles=50) scrf=(solvent=chloroform)
 ---------------------------------------------------------------
 1/6=50,14=-1,18=20,19=15,26=3,38=1/1,3;
 2/9=110,12=2,17=6,18=5,40=1/2;
 3/5=1,6=6,7=101,11=2,16=1,25=1,30=1,70=2201,71=1,72=7,74=-5/1,2,3;
 4//1;
 5/5=2,38=5,53=7/2;
 6/7=2,8=2,9=2,10=2,28=1/1;
 7//1,2,3,16;
 1/6=50,14=-1,18=20,19=15,26=3/3(2);
 2/9=110/2;
 99//99;
 2/9=110/2;
 3/5=1,6=6,7=101,11=2,16=1,25=1,30=1,70=2205,71=1,72=7,74=-5/1,2,3;
 4/5=5,16=3,69=1/1;
 5/5=2,38=5,53=7/2;
 7//1,2,3,16;
 1/6=50,14=-1,18=20,19=15,26=3/3(-5);
 2/9=110/2;
 6/7=2,8=2,9=2,10=2,19=2,28=1/1;
 99/9=1/99;
 ------------
 AT3_2ginp006
 ------------
 Symbolic Z-matrix:
 Charge =  0 Multiplicity = 1
 C                    -0.97165  -1.69276   0.37008 
 C                    -2.46019  -1.37187   0.33392 
 C                    -3.10962  -1.26241   1.73326 
 C                    -2.43269  -0.20839   2.65858 
 C                    -3.06129  -0.23058   4.06274 
 O                    -2.26022   0.53256   4.96227 
 N                    -4.5474   -0.96233   1.61796 
 C                    -5.35602  -2.12047   1.23628 
 C                    -9.55757  -1.12594   1.37237 
 C                    -8.7889   -0.78048   0.26219 
 C                    -7.43449  -1.11019   0.2277 
 C                    -6.81941  -1.78713   1.28253 
 C                    -7.60527  -2.11975   2.38676 
 C                    -8.96164  -1.79814   2.43849 
 H                    -10.61357  -0.87098   1.408 
 H                    -9.23295  -0.25362  -0.57709 
 H                    -9.5425   -2.07429   3.31353 
 F                    -6.7156   -0.7623   -0.84992 
 F                    -7.06298  -2.77127   3.42587 
 H                    -0.60713  -1.89006  -0.64339 
 H                    -0.38829  -0.85859   0.76994 
 H                    -0.77532  -2.5809    0.97876 
 H                    -2.61542  -0.4518   -0.24178 
 H                    -2.94925  -2.17233  -0.23377 
 H                    -1.37709  -0.48218   2.78345 
 H                    -3.1105   -1.25392   4.44931 
 H                    -4.07051   0.19448   4.06047 
 H                    -2.71973   0.52256   5.81932 
 H                    -5.10634  -2.46625   0.22657 
 H                    -5.15755  -2.96262   1.91058 
 H                    -2.99054  -2.23351   2.23378 
 C                    -2.45183   1.21889   2.09202 
 H                    -1.94901   1.2709    1.12206 
 H                    -3.47353   1.59201   1.96826 
 H                    -1.92659   1.91026   2.75979 
 H                    -4.69054  -0.21941   0.93234 
 

 GradGradGradGradGradGradGradGradGradGradGradGradGradGradGradGradGradGrad
 Berny optimization.
 Initialization pass.
                           ----------------------------
                           !    Initial Parameters    !
                           ! (Angstroms and Degrees)  !
 --------------------------                            --------------------------
 ! Name  Definition              Value          Derivative Info.                !
 --------------------------------------------------------------------------------
 ! R1    R(1,2)                  1.5232         estimate D2E/DX2                !
 ! R2    R(1,20)                 1.095          estimate D2E/DX2                !
 ! R3    R(1,21)                 1.0936         estimate D2E/DX2                !
 ! R4    R(1,22)                 1.0945         estimate D2E/DX2                !
 ! R5    R(2,3)                  1.5466         estimate D2E/DX2                !
 ! R6    R(2,23)                 1.0964         estimate D2E/DX2                !
 ! R7    R(2,24)                 1.0964         estimate D2E/DX2                !
 ! R8    R(3,4)                  1.5574         estimate D2E/DX2                !
 ! R9    R(3,7)                  1.4733         estimate D2E/DX2                !
 ! R10   R(3,31)                 1.099          estimate D2E/DX2                !
 ! R11   R(4,5)                  1.5386         estimate D2E/DX2                !
 ! R12   R(4,25)                 1.0977         estimate D2E/DX2                !
 ! R13   R(4,32)                 1.5357         estimate D2E/DX2                !
 ! R14   R(5,6)                  1.4259         estimate D2E/DX2                !
 ! R15   R(5,26)                 1.095          estimate D2E/DX2                !
 ! R16   R(5,27)                 1.0951         estimate D2E/DX2                !
 ! R17   R(6,28)                 0.9725         estimate D2E/DX2                !
 ! R18   R(7,8)                  1.4632         estimate D2E/DX2                !
 ! R19   R(7,36)                 1.021          estimate D2E/DX2                !
 ! R20   R(8,12)                 1.5016         estimate D2E/DX2                !
 ! R21   R(8,29)                 1.0961         estimate D2E/DX2                !
 ! R22   R(8,30)                 1.0969         estimate D2E/DX2                !
 ! R23   R(9,10)                 1.3938         estimate D2E/DX2                !
 ! R24   R(9,14)                 1.3941         estimate D2E/DX2                !
 ! R25   R(9,15)                 1.0869         estimate D2E/DX2                !
 ! R26   R(10,11)                1.3944         estimate D2E/DX2                !
 ! R27   R(10,16)                1.0859         estimate D2E/DX2                !
 ! R28   R(11,12)                1.3962         estimate D2E/DX2                !
 ! R29   R(11,18)                1.3413         estimate D2E/DX2                !
 ! R30   R(12,13)                1.3955         estimate D2E/DX2                !
 ! R31   R(13,14)                1.3949         estimate D2E/DX2                !
 ! R32   R(13,19)                1.341          estimate D2E/DX2                !
 ! R33   R(14,17)                1.086          estimate D2E/DX2                !
 ! R34   R(32,33)                1.0938         estimate D2E/DX2                !
 ! R35   R(32,34)                1.0947         estimate D2E/DX2                !
 ! R36   R(32,35)                1.0953         estimate D2E/DX2                !
 ! A1    A(2,1,20)             109.958          estimate D2E/DX2                !
 ! A2    A(2,1,21)             111.6709         estimate D2E/DX2                !
 ! A3    A(2,1,22)             111.0675         estimate D2E/DX2                !
 ! A4    A(20,1,21)            107.3538         estimate D2E/DX2                !
 ! A5    A(20,1,22)            107.9882         estimate D2E/DX2                !
 ! A6    A(21,1,22)            108.6597         estimate D2E/DX2                !
 ! A7    A(1,2,3)              113.8163         estimate D2E/DX2                !
 ! A8    A(1,2,23)             109.1248         estimate D2E/DX2                !
 ! A9    A(1,2,24)             107.1214         estimate D2E/DX2                !
 ! A10   A(3,2,23)             110.8699         estimate D2E/DX2                !
 ! A11   A(3,2,24)             109.4405         estimate D2E/DX2                !
 ! A12   A(23,2,24)            106.1188         estimate D2E/DX2                !
 ! A13   A(2,3,4)              113.7636         estimate D2E/DX2                !
 ! A14   A(2,3,7)              110.6959         estimate D2E/DX2                !
 ! A15   A(2,3,31)             107.7002         estimate D2E/DX2                !
 ! A16   A(4,3,7)              109.4411         estimate D2E/DX2                !
 ! A17   A(4,3,31)             106.2808         estimate D2E/DX2                !
 ! A18   A(7,3,31)             108.7461         estimate D2E/DX2                !
 ! A19   A(3,4,5)              110.7868         estimate D2E/DX2                !
 ! A20   A(3,4,25)             108.4687         estimate D2E/DX2                !
 ! A21   A(3,4,32)             113.853          estimate D2E/DX2                !
 ! A22   A(5,4,25)             106.5876         estimate D2E/DX2                !
 ! A23   A(5,4,32)             110.1812         estimate D2E/DX2                !
 ! A24   A(25,4,32)            106.605          estimate D2E/DX2                !
 ! A25   A(4,5,6)              109.7843         estimate D2E/DX2                !
 ! A26   A(4,5,26)             110.7328         estimate D2E/DX2                !
 ! A27   A(4,5,27)             111.6559         estimate D2E/DX2                !
 ! A28   A(6,5,26)             107.6201         estimate D2E/DX2                !
 ! A29   A(6,5,27)             108.1386         estimate D2E/DX2                !
 ! A30   A(26,5,27)            108.7872         estimate D2E/DX2                !
 ! A31   A(5,6,28)             106.5589         estimate D2E/DX2                !
 ! A32   A(3,7,8)              113.4864         estimate D2E/DX2                !
 ! A33   A(3,7,36)             109.7288         estimate D2E/DX2                !
 ! A34   A(8,7,36)             108.8621         estimate D2E/DX2                !
 ! A35   A(7,8,12)             110.7842         estimate D2E/DX2                !
 ! A36   A(7,8,29)             111.3534         estimate D2E/DX2                !
 ! A37   A(7,8,30)             110.3243         estimate D2E/DX2                !
 ! A38   A(12,8,29)            108.6871         estimate D2E/DX2                !
 ! A39   A(12,8,30)            109.1364         estimate D2E/DX2                !
 ! A40   A(29,8,30)            106.4307         estimate D2E/DX2                !
 ! A41   A(10,9,14)            119.5301         estimate D2E/DX2                !
 ! A42   A(10,9,15)            120.2495         estimate D2E/DX2                !
 ! A43   A(14,9,15)            120.2203         estimate D2E/DX2                !
 ! A44   A(9,10,11)            119.7866         estimate D2E/DX2                !
 ! A45   A(9,10,16)            120.6879         estimate D2E/DX2                !
 ! A46   A(11,10,16)           119.5253         estimate D2E/DX2                !
 ! A47   A(10,11,12)           121.593          estimate D2E/DX2                !
 ! A48   A(10,11,18)           118.6291         estimate D2E/DX2                !
 ! A49   A(12,11,18)           119.7779         estimate D2E/DX2                !
 ! A50   A(8,12,11)            120.9111         estimate D2E/DX2                !
 ! A51   A(8,12,13)            121.35           estimate D2E/DX2                !
 ! A52   A(11,12,13)           117.7291         estimate D2E/DX2                !
 ! A53   A(12,13,14)           121.463          estimate D2E/DX2                !
 ! A54   A(12,13,19)           120.079          estimate D2E/DX2                !
 ! A55   A(14,13,19)           118.4563         estimate D2E/DX2                !
 ! A56   A(9,14,13)            119.8969         estimate D2E/DX2                !
 ! A57   A(9,14,17)            120.6742         estimate D2E/DX2                !
 ! A58   A(13,14,17)           119.4288         estimate D2E/DX2                !
 ! A59   A(4,32,33)            111.4453         estimate D2E/DX2                !
 ! A60   A(4,32,34)            111.7222         estimate D2E/DX2                !
 ! A61   A(4,32,35)            110.8382         estimate D2E/DX2                !
 ! A62   A(33,32,34)           108.2145         estimate D2E/DX2                !
 ! A63   A(33,32,35)           106.8689         estimate D2E/DX2                !
 ! A64   A(34,32,35)           107.5375         estimate D2E/DX2                !
 ! D1    D(20,1,2,3)           172.3166         estimate D2E/DX2                !
 ! D2    D(20,1,2,23)          -63.2661         estimate D2E/DX2                !
 ! D3    D(20,1,2,24)           51.2089         estimate D2E/DX2                !
 ! D4    D(21,1,2,3)           -68.621          estimate D2E/DX2                !
 ! D5    D(21,1,2,23)           55.7963         estimate D2E/DX2                !
 ! D6    D(21,1,2,24)          170.2712         estimate D2E/DX2                !
 ! D7    D(22,1,2,3)            52.8462         estimate D2E/DX2                !
 ! D8    D(22,1,2,23)          177.2634         estimate D2E/DX2                !
 ! D9    D(22,1,2,24)          -68.2616         estimate D2E/DX2                !
 ! D10   D(1,2,3,4)             56.754          estimate D2E/DX2                !
 ! D11   D(1,2,3,7)           -179.5286         estimate D2E/DX2                !
 ! D12   D(1,2,3,31)           -60.7659         estimate D2E/DX2                !
 ! D13   D(23,2,3,4)           -66.7197         estimate D2E/DX2                !
 ! D14   D(23,2,3,7)            56.9977         estimate D2E/DX2                !
 ! D15   D(23,2,3,31)          175.7604         estimate D2E/DX2                !
 ! D16   D(24,2,3,4)           176.5588         estimate D2E/DX2                !
 ! D17   D(24,2,3,7)           -59.7238         estimate D2E/DX2                !
 ! D18   D(24,2,3,31)           59.0389         estimate D2E/DX2                !
 ! D19   D(2,3,4,5)           -175.7298         estimate D2E/DX2                !
 ! D20   D(2,3,4,25)           -59.0681         estimate D2E/DX2                !
 ! D21   D(2,3,4,32)            59.4282         estimate D2E/DX2                !
 ! D22   D(7,3,4,5)             59.8747         estimate D2E/DX2                !
 ! D23   D(7,3,4,25)           176.5364         estimate D2E/DX2                !
 ! D24   D(7,3,4,32)           -64.9673         estimate D2E/DX2                !
 ! D25   D(31,3,4,5)           -57.3918         estimate D2E/DX2                !
 ! D26   D(31,3,4,25)           59.2699         estimate D2E/DX2                !
 ! D27   D(31,3,4,32)          177.7662         estimate D2E/DX2                !
 ! D28   D(2,3,7,8)             76.4632         estimate D2E/DX2                !
 ! D29   D(2,3,7,36)           -45.5629         estimate D2E/DX2                !
 ! D30   D(4,3,7,8)           -157.369          estimate D2E/DX2                !
 ! D31   D(4,3,7,36)            80.6049         estimate D2E/DX2                !
 ! D32   D(31,3,7,8)           -41.6639         estimate D2E/DX2                !
 ! D33   D(31,3,7,36)         -163.69           estimate D2E/DX2                !
 ! D34   D(3,4,5,6)            168.1887         estimate D2E/DX2                !
 ! D35   D(3,4,5,26)            49.495          estimate D2E/DX2                !
 ! D36   D(3,4,5,27)           -71.8909         estimate D2E/DX2                !
 ! D37   D(25,4,5,6)            50.3728         estimate D2E/DX2                !
 ! D38   D(25,4,5,26)          -68.3208         estimate D2E/DX2                !
 ! D39   D(25,4,5,27)          170.2932         estimate D2E/DX2                !
 ! D40   D(32,4,5,6)           -64.9153         estimate D2E/DX2                !
 ! D41   D(32,4,5,26)          176.391          estimate D2E/DX2                !
 ! D42   D(32,4,5,27)           55.0051         estimate D2E/DX2                !
 ! D43   D(3,4,32,33)          -58.6608         estimate D2E/DX2                !
 ! D44   D(3,4,32,34)           62.5366         estimate D2E/DX2                !
 ! D45   D(3,4,32,35)         -177.5489         estimate D2E/DX2                !
 ! D46   D(5,4,32,33)          176.1741         estimate D2E/DX2                !
 ! D47   D(5,4,32,34)          -62.6285         estimate D2E/DX2                !
 ! D48   D(5,4,32,35)           57.286          estimate D2E/DX2                !
 ! D49   D(25,4,32,33)          60.8969         estimate D2E/DX2                !
 ! D50   D(25,4,32,34)        -177.9056         estimate D2E/DX2                !
 ! D51   D(25,4,32,35)         -57.9912         estimate D2E/DX2                !
 ! D52   D(4,5,6,28)           177.3562         estimate D2E/DX2                !
 ! D53   D(26,5,6,28)          -62.0477         estimate D2E/DX2                !
 ! D54   D(27,5,6,28)           55.315          estimate D2E/DX2                !
 ! D55   D(3,7,8,12)           173.807          estimate D2E/DX2                !
 ! D56   D(3,7,8,29)           -65.1053         estimate D2E/DX2                !
 ! D57   D(3,7,8,30)            52.8431         estimate D2E/DX2                !
 ! D58   D(36,7,8,12)          -63.6863         estimate D2E/DX2                !
 ! D59   D(36,7,8,29)           57.4014         estimate D2E/DX2                !
 ! D60   D(36,7,8,30)          175.3498         estimate D2E/DX2                !
 ! D61   D(7,8,12,11)           80.998          estimate D2E/DX2                !
 ! D62   D(7,8,12,13)          -97.835          estimate D2E/DX2                !
 ! D63   D(29,8,12,11)         -41.6525         estimate D2E/DX2                !
 ! D64   D(29,8,12,13)         139.5145         estimate D2E/DX2                !
 ! D65   D(30,8,12,11)        -157.3378         estimate D2E/DX2                !
 ! D66   D(30,8,12,13)          23.8293         estimate D2E/DX2                !
 ! D67   D(14,9,10,11)           0.0384         estimate D2E/DX2                !
 ! D68   D(14,9,10,16)        -179.7804         estimate D2E/DX2                !
 ! D69   D(15,9,10,11)         179.8847         estimate D2E/DX2                !
 ! D70   D(15,9,10,16)           0.0659         estimate D2E/DX2                !
 ! D71   D(10,9,14,13)          -0.0299         estimate D2E/DX2                !
 ! D72   D(10,9,14,17)         179.8638         estimate D2E/DX2                !
 ! D73   D(15,9,14,13)        -179.8762         estimate D2E/DX2                !
 ! D74   D(15,9,14,17)           0.0175         estimate D2E/DX2                !
 ! D75   D(9,10,11,12)           0.1868         estimate D2E/DX2                !
 ! D76   D(9,10,11,18)        -179.7617         estimate D2E/DX2                !
 ! D77   D(16,10,11,12)       -179.9923         estimate D2E/DX2                !
 ! D78   D(16,10,11,18)          0.0592         estimate D2E/DX2                !
 ! D79   D(10,11,12,8)        -179.281          estimate D2E/DX2                !
 ! D80   D(10,11,12,13)         -0.407          estimate D2E/DX2                !
 ! D81   D(18,11,12,8)           0.6669         estimate D2E/DX2                !
 ! D82   D(18,11,12,13)        179.5409         estimate D2E/DX2                !
 ! D83   D(8,12,13,14)         179.2839         estimate D2E/DX2                !
 ! D84   D(8,12,13,19)          -1.1917         estimate D2E/DX2                !
 ! D85   D(11,12,13,14)          0.4151         estimate D2E/DX2                !
 ! D86   D(11,12,13,19)        179.9395         estimate D2E/DX2                !
 ! D87   D(12,13,14,9)          -0.204          estimate D2E/DX2                !
 ! D88   D(12,13,14,17)        179.901          estimate D2E/DX2                !
 ! D89   D(19,13,14,9)        -179.7359         estimate D2E/DX2                !
 ! D90   D(19,13,14,17)          0.3691         estimate D2E/DX2                !
 --------------------------------------------------------------------------------
 Trust Radius=3.00D-01 FncErr=1.00D-07 GrdErr=1.00D-06
 Number of steps in this run=     50 maximum allowed number of steps=    216.
 GradGradGradGradGradGradGradGradGradGradGradGradGradGradGradGradGradGrad

                          Input orientation:                          
 ---------------------------------------------------------------------
 Center     Atomic      Atomic             Coordinates (Angstroms)
 Number     Number       Type             X           Y           Z
 ---------------------------------------------------------------------
      1          6           0       -0.971650   -1.692760    0.370083
      2          6           0       -2.460185   -1.371872    0.333923
      3          6           0       -3.109623   -1.262409    1.733261
      4          6           0       -2.432689   -0.208389    2.658576
      5          6           0       -3.061290   -0.230578    4.062742
      6          8           0       -2.260221    0.532560    4.962270
      7          7           0       -4.547399   -0.962329    1.617962
      8          6           0       -5.356018   -2.120467    1.236278
      9          6           0       -9.557567   -1.125945    1.372368
     10          6           0       -8.788897   -0.780476    0.262193
     11          6           0       -7.434489   -1.110194    0.227700
     12          6           0       -6.819410   -1.787133    1.282532
     13          6           0       -7.605274   -2.119748    2.386763
     14          6           0       -8.961641   -1.798144    2.438492
     15          1           0      -10.613574   -0.870978    1.407998
     16          1           0       -9.232945   -0.253616   -0.577093
     17          1           0       -9.542499   -2.074287    3.313526
     18          9           0       -6.715599   -0.762295   -0.849918
     19          9           0       -7.062980   -2.771267    3.425874
     20          1           0       -0.607127   -1.890058   -0.643385
     21          1           0       -0.388294   -0.858587    0.769936
     22          1           0       -0.775323   -2.580904    0.978764
     23          1           0       -2.615418   -0.451797   -0.241777
     24          1           0       -2.949252   -2.172333   -0.233765
     25          1           0       -1.377085   -0.482182    2.783447
     26          1           0       -3.110501   -1.253922    4.449307
     27          1           0       -4.070506    0.194475    4.060474
     28          1           0       -2.719725    0.522563    5.819318
     29          1           0       -5.106341   -2.466247    0.226569
     30          1           0       -5.157547   -2.962618    1.910576
     31          1           0       -2.990539   -2.233510    2.233777
     32          6           0       -2.451828    1.218890    2.092023
     33          1           0       -1.949010    1.270896    1.122056
     34          1           0       -3.473527    1.592010    1.968255
     35          1           0       -1.926588    1.910257    2.759793
     36          1           0       -4.690537   -0.219407    0.932343
 ---------------------------------------------------------------------
                    Distance matrix (angstroms):
                    1          2          3          4          5
     1  C    0.000000
     2  C    1.523159   0.000000
     3  C    2.571845   1.546576   0.000000
     4  C    3.094381   2.599704   1.557371   0.000000
     5  C    4.487795   3.945627   2.548233   1.538608   0.000000
     6  O    5.263140   5.008836   3.790765   2.426058   1.425918
     7  N    3.857034   2.484541   1.473276   2.474531   2.953122
     8  C    4.489533   3.124178   2.455513   3.771581   4.101994
     9  C    8.662784   7.177164   6.459477   7.297954   7.088117
    10  C    7.871039   6.356689   5.886464   6.816987   6.895799
    11  C    6.490604   4.982315   4.581959   5.633863   5.882698
    12  C    5.919271   4.480529   3.773726   4.860993   4.927058
    13  C    6.946530   5.589760   4.623091   5.521124   5.198621
    14  C    8.254052   6.846886   5.918655   6.723316   6.317404
    15  H    9.732384   8.239071   7.521190   8.302400   8.030864
    16  H    8.439033   6.924646   6.621969   7.530942   7.721264
    17  H    9.070219   7.715607   6.673700   7.379697   6.779872
    18  F    5.945344   4.458880   4.463854   5.564141   6.145806
    19  F    6.899662   5.718758   4.557480   5.347587   4.782701
    20  H    1.094952   2.158118   3.507831   4.130815   5.560973
    21  H    1.093632   2.178601   2.914910   2.858193   4.287409
    22  H    1.094457   2.171713   2.785077   3.346260   4.501177
    23  H    2.148566   1.096388   2.191371   2.916279   4.333200
    24  H    2.122624   1.096446   2.173217   3.534056   4.716242
    25  H    2.730239   2.822202   2.171021   1.097659   2.129894
    26  H    4.626806   4.168118   2.716059   2.181579   1.095028
    27  H    5.175283   4.351294   2.908905   2.193185   1.095076
    28  H    6.136578   5.809114   4.475936   3.256834   1.941506
    29  H    4.208865   2.865541   2.776010   4.261572   4.888422
    30  H    4.637606   3.506005   2.667610   3.945901   4.060807
    31  H    2.800300   2.152473   1.098970   2.143074   2.713274
    32  C    3.692385   3.130980   2.591959   1.535732   2.521138
    33  H    3.209977   2.804760   2.852758   2.187035   3.484139
    34  H    4.427556   3.533058   2.887102   2.191192   2.806892
    35  H    4.427680   4.116059   3.538241   2.180606   2.751072
    36  H    4.039434   2.580843   2.056359   2.842161   3.529018
                    6          7          8          9         10
     6  O    0.000000
     7  N    4.318596   0.000000
     8  C    5.523181   1.463158   0.000000
     9  C    8.299957   5.018851   4.319793   0.000000
    10  C    8.150975   4.456623   3.811702   1.393804   0.000000
    11  C    7.203322   3.207800   2.521492   2.412047   1.394390
    12  C    6.301401   2.440256   1.501588   2.818287   2.435843
    13  C    6.499043   3.358761   2.526414   2.414144   2.776402
    14  C    7.530648   4.566989   3.814411   1.394130   2.408686
    15  H    9.185928   6.070495   5.406719   1.086935   2.156503
    16  H    8.939882   5.222536   4.669476   2.160263   1.085892
    17  H    7.908576   5.390956   4.673726   2.160480   3.398896
    18  F    7.436973   3.291130   2.836425   3.625959   2.352804
    19  F    6.028456   3.587332   2.851594   3.625870   4.117149
    20  H    6.326545   4.636822   5.112552   9.206384   8.306179
    21  H    4.797402   4.245947   5.146659   9.192931   8.416296
    22  H    5.269431   4.154144   4.610974   8.910648   8.244537
    23  H    5.308223   2.729803   3.532704   7.159146   6.202730
    24  H    5.898304   2.728933   2.820681   6.880728   6.023678
    25  H    2.560644   3.411713   4.572704   8.326215   7.834581
    26  H    2.043924   3.188451   4.014574   7.144830   7.071086
    27  H    2.050529   2.744356   3.871380   6.251181   6.135200
    28  H    0.972510   4.816294   5.910999   8.321600   8.331530
    29  H    6.286502   2.123714   1.096091   4.787763   4.050224
    30  H    5.470247   2.111649   1.096944   4.798251   4.545945
    31  H    3.953376   2.102128   2.569684   6.715250   6.294395
    32  C    2.957377   3.061677   4.507541   7.517159   6.892328
    33  H    3.922912   3.461913   4.808544   7.981080   7.192465
    34  H    3.399805   2.792947   4.226352   6.690135   6.065682
    35  H    2.619211   4.052675   5.507161   8.329184   7.782630
    36  H    4.765732   1.021026   2.036976   4.970253   4.190520
                   11         12         13         14         15
    11  C    0.000000
    12  C    1.396152   0.000000
    13  C    2.389544   1.395543   0.000000
    14  C    2.773638   2.434239   1.394932   0.000000
    15  H    3.399545   3.905222   3.401070   2.156487   0.000000
    16  H    2.148456   3.411016   3.862150   3.398959   2.495568
    17  H    3.859469   3.409195   2.147975   1.085972   2.495234
    18  F    1.341304   2.368209   3.620815   4.114770   4.506019
    19  F    3.622913   2.371025   1.341011   2.350916   4.504402
    20  H    6.926749   6.504784   7.629457   8.905297  10.265266
    21  H    7.071505   6.517991   7.502630   8.784596  10.245176
    22  H    6.860873   6.103551   6.988802   8.352205   9.994962
    23  H    4.886445   4.666925   5.881322   7.019333   8.177284
    24  H    4.632326   4.174405   5.343077   6.590129   7.945486
    25  H    6.604422   5.794355   6.452079   7.705598   9.346430
    26  H    6.044791   4.905995   5.020630   6.210909   8.105079
    27  H    5.263905   4.381804   4.544395   5.524903   7.140207
    28  H    7.494070   6.536401   6.529382   7.468412   9.149566
    29  H    2.694282   2.123878   3.321320   4.494697   5.854082
    30  H    3.383491   2.130257   2.632214   4.013206   5.864791
    31  H    5.003486   3.970437   4.618671   5.990452   7.787751
    32  C    5.807516   5.363508   6.147469   7.183328   8.452783
    33  H    6.046482   5.753094   6.714855   7.767175   8.929953
    34  H    5.101045   4.804556   5.569886   6.467895   7.573669
    35  H    6.772857   6.308146   6.973347   7.959111   9.220973
    36  H    2.969730   2.666927   3.771250   4.796168   5.977722
                   16         17         18         19         20
    16  H    0.000000
    17  H    4.306690   0.000000
    18  F    2.582677   5.200668   0.000000
    19  F    5.202986   2.578065   4.736986   0.000000
    20  H    8.779924   9.774045   6.215138   7.682020   0.000000
    21  H    8.967069   9.578478   6.532074   7.433962   1.763320
    22  H    8.908891   9.086867   6.475978   6.749757   1.771137
    23  H    6.628980   7.953433   4.156649   6.213889   2.502622
    24  H    6.579069   7.487576   4.068565   5.538451   2.394372
    25  H    8.547515   8.336052   6.463709   6.162956   3.783930
    26  H    7.984337   6.582826   6.428080   4.355668   5.710259
    27  H    6.954034   5.970588   5.658964   4.260662   6.202142
    28  H    9.161799   7.718346   7.880138   5.953298   7.214592
    29  H    4.750839   5.418711   2.579145   3.762582   4.618630
    30  H    5.489632   4.688838   3.858662   2.442011   5.327234
    31  H    7.126612   6.642243   5.054673   4.277272   3.751889
    32  C    7.434783   7.912945   5.546157   6.242054   4.533314
    33  H    7.633279   8.582183   5.544630   6.913707   3.861225
    34  H    6.561709   7.216918   4.898559   5.834982   5.211690
    35  H    8.318654   8.613090   6.565605   6.981608   5.269250
    36  H    4.786756   5.714206   2.751737   4.284644   4.684894
                   21         22         23         24         25
    21  H    0.000000
    22  H    1.777576   0.000000
    23  H    2.479742   3.067371   0.000000
    24  H    3.048254   2.522523   1.752642   0.000000
    25  H    2.274558   2.832602   3.269002   3.798932   0.000000
    26  H    4.593960   4.388463   4.784849   4.775002   2.524956
    27  H    5.049284   5.296970   4.587408   5.029859   3.056661
    28  H    5.730568   6.069857   6.139799   6.629854   3.468243
    29  H    5.013959   4.397347   3.237600   2.225157   4.937762
    30  H    5.336083   4.496428   4.171243   3.177942   4.605036
    31  H    3.287084   2.569615   3.073042   2.468646   2.443874
    32  C    3.212787   4.299820   2.874818   4.142115   2.127624
    33  H    2.663554   4.029198   2.296043   3.833348   2.482056
    34  H    4.118259   5.066814   3.130134   4.392498   3.059719
    35  H    3.740639   4.966689   3.881135   5.164763   2.454848
    36  H    4.352496   4.572496   2.395555   2.864577   3.804550
                   26         27         28         29         30
    26  H    0.000000
    27  H    1.780633   0.000000
    28  H    2.277177   2.241826   0.000000
    29  H    4.825415   4.780295   6.775527   0.000000
    30  H    3.681738   3.971266   5.776480   1.756384   0.000000
    31  H    2.425398   3.224634   4.530495   2.925691   2.309108
    32  C    3.479287   2.746697   3.801232   4.909846   4.983859
    33  H    4.335247   3.780705   4.818534   4.973618   5.370206
    34  H    3.792985   2.585898   4.067262   4.708397   4.856324
    35  H    3.777319   3.038431   3.451877   5.973428   5.908060
    36  H    3.991963   3.215733   5.321386   2.391506   2.949618
                   31         32         33         34         35
    31  H    0.000000
    32  C    3.497052   0.000000
    33  H    3.821200   1.093785   0.000000
    34  H    3.865020   1.094717   1.772941   0.000000
    35  H    4.310393   1.095346   1.758257   1.766588   0.000000
    36  H    2.939445   2.902649   3.126174   2.415669   3.938839
                   36
    36  H    0.000000
 Stoichiometry    C13H19F2NO
 Framework group  C1[X(C13H19F2NO)]
 Deg. of freedom   102
 Full point group                 C1      NOp   1
 Largest Abelian subgroup         C1      NOp   1
 Largest concise Abelian subgroup C1      NOp   1
                         Standard orientation:                         
 ---------------------------------------------------------------------
 Center     Atomic      Atomic             Coordinates (Angstroms)
 Number     Number       Type             X           Y           Z
 ---------------------------------------------------------------------
      1          6           0       -3.624664   -2.223006   -1.109431
      2          6           0       -2.234880   -1.940053   -0.554046
      3          6           0       -1.869015   -0.437711   -0.522228
      4          6           0       -2.874857    0.436211    0.283964
      5          6           0       -2.506326    1.926613    0.182966
      6          8           0       -3.575554    2.723476    0.687943
      7          7           0       -0.510878   -0.243835    0.014817
      8          6           0        0.546695   -0.571472   -0.941752
      9          6           0        4.412141    0.468262    0.682405
     10          6           0        3.798742   -0.731105    1.040110
     11          6           0        2.552691   -1.057992    0.506419
     12          6           0        1.895570   -0.211706   -0.388697
     13          6           0        2.524337    0.986410   -0.730327
     14          6           0        3.770748    1.329727   -0.206467
     15          1           0        5.382524    0.731458    1.095336
     16          1           0        4.279797   -1.414344    1.733603
     17          1           0        4.230709    2.269863   -0.496148
     18          9           0        1.981394   -2.215720    0.870261
     19          9           0        1.935848    1.833839   -1.586980
     20          1           0       -3.765946   -3.301956   -1.231193
     21          1           0       -4.409021   -1.865200   -0.436534
     22          1           0       -3.760804   -1.751762   -2.087813
     23          1           0       -2.150005   -2.383964    0.444856
     24          1           0       -1.518704   -2.476720   -1.187507
     25          1           0       -3.869364    0.328011   -0.167816
     26          1           0       -2.341806    2.215416   -0.860400
     27          1           0       -1.605252    2.160083    0.759810
     28          1           0       -3.277835    3.648145    0.641823
     29          1           0        0.542661   -1.638816   -1.191102
     30          1           0        0.388800   -0.032158   -1.883823
     31          1           0       -1.896644   -0.065129   -1.555743
     32          6           0       -3.014570    0.023604    1.756619
     33          1           0       -3.342154   -1.015661    1.851390
     34          1           0       -2.070948    0.135862    2.300110
     35          1           0       -3.763543    0.640548    2.264754
     36          1           0       -0.386742   -0.814409    0.852391
 ---------------------------------------------------------------------
 Rotational constants (GHZ):      0.6633410      0.2443236      0.2090286
 Standard basis: 6-31G(d,p) (6D, 7F)
 There are   350 symmetry adapted cartesian basis functions of A   symmetry.
 There are   350 symmetry adapted basis functions of A   symmetry.
   350 basis functions,   609 primitive gaussians,   350 cartesian basis functions
    65 alpha electrons       65 beta electrons
       nuclear repulsion energy      1253.2426023144 Hartrees.
 NAtoms=   36 NActive=   36 NUniq=   36 SFac= 1.00D+00 NAtFMM=   60 NAOKFM=F Big=F
 Integral buffers will be    131072 words long.
 Raffenetti 2 integral format.
 Two-electron integral symmetry is turned on.
 ------------------------------------------------------------------------------
 Polarizable Continuum Model (PCM)
 =================================
 Model                : PCM (using non-symmetric T matrix).
 Atomic radii         : UFF (Universal Force Field).
 Polarization charges : Total charges.
 Charge compensation  : None.
 Solution method      : On-the-fly selection.
 Cavity type          : Scaled VdW (van der Waals Surface) (Alpha=1.100).
 Cavity algorithm     : GePol (No added spheres)
                        Default sphere list used, NSphG=   36.
                        Lebedev-Laikov grids with approx.  5.0 points / Ang**2.
                        Smoothing algorithm: Karplus/York (Gamma=1.0000).
                        Polarization charges: spherical gaussians, with
                                              point-specific exponents (IZeta= 3).
                        Self-potential: point-specific (ISelfS= 7).
                        Self-field    : sphere-specific E.n sum rule (ISelfD= 2).
 1st derivatives      : Analytical E(r).r(x)/FMM algorithm (CHGder, D1EAlg=3).
                        Cavity 1st derivative terms included.
 Solvent              : Chloroform, Eps=   4.711300 Eps(inf)=   2.090627
 ------------------------------------------------------------------------------
 One-electron integrals computed using PRISM.
 NBasis=   350 RedAO= T EigKep=  4.10D-04  NBF=   350
 NBsUse=   350 1.00D-06 EigRej= -1.00D+00 NBFU=   350
 ExpMin= 1.61D-01 ExpMax= 7.00D+03 ExpMxC= 1.05D+03 IAcc=1 IRadAn=         1 AccDes= 0.00D+00
 Harris functional with IExCor=  402 and IRadAn=       1 diagonalized for initial guess.
 HarFok:  IExCor=  402 AccDes= 0.00D+00 IRadAn=         1 IDoV= 1 UseB2=F ITyADJ=14
 ICtDFT=  3500011 ScaDFX=  1.000000  1.000000  1.000000  1.000000
 FoFCou: FMM=F IPFlag=           0 FMFlag=      100000 FMFlg1=           0
         NFxFlg=           0 DoJE=T BraDBF=F KetDBF=T FulRan=T
         wScrn=  0.000000 ICntrl=     500 IOpCl=  0 I1Cent=   200000004 NGrid=           0
         NMat0=    1 NMatS0=      1 NMatT0=    0 NMatD0=    1 NMtDS0=    0 NMtDT0=    0
 Petite list used in FoFCou.
 Requested convergence on RMS density matrix=1.00D-08 within 128 cycles.
 Requested convergence on MAX density matrix=1.00D-06.
 Requested convergence on             energy=1.00D-06.
 No special actions if energy rises.
 Inv3:  Mode=1 IEnd=    19476912.
 Iteration    1 A*A^-1 deviation from unit magnitude is 7.44D-15 for   1640.
 Iteration    1 A*A^-1 deviation from orthogonality  is 6.45D-15 for   2228   2083.
 Iteration    1 A^-1*A deviation from unit magnitude is 7.55D-15 for    288.
 Iteration    1 A^-1*A deviation from orthogonality  is 8.21D-12 for   2212   2117.
 Error on total polarization charges =  0.00758
 SCF Done:  E(RB3LYP) =  -836.487632128     A.U. after   12 cycles
            NFock= 12  Conv=0.61D-08     -V/T= 2.0088

 **********************************************************************

            Population analysis using the SCF density.

 **********************************************************************

 Orbital symmetries:
       Occupied  (A) (A) (A) (A) (A) (A) (A) (A) (A) (A) (A) (A)
                 (A) (A) (A) (A) (A) (A) (A) (A) (A) (A) (A) (A)
                 (A) (A) (A) (A) (A) (A) (A) (A) (A) (A) (A) (A)
                 (A) (A) (A) (A) (A) (A) (A) (A) (A) (A) (A) (A)
                 (A) (A) (A) (A) (A) (A) (A) (A) (A) (A) (A) (A)
                 (A) (A) (A) (A) (A)
       Virtual   (A) (A) (A) (A) (A) (A) (A) (A) (A) (A) (A) (A)
                 (A) (A) (A) (A) (A) (A) (A) (A) (A) (A) (A) (A)
                 (A) (A) (A) (A) (A) (A) (A) (A) (A) (A) (A) (A)
                 (A) (A) (A) (A) (A) (A) (A) (A) (A) (A) (A) (A)
                 (A) (A) (A) (A) (A) (A) (A) (A) (A) (A) (A) (A)
                 (A) (A) (A) (A) (A) (A) (A) (A) (A) (A) (A) (A)
                 (A) (A) (A) (A) (A) (A) (A) (A) (A) (A) (A) (A)
                 (A) (A) (A) (A) (A) (A) (A) (A) (A) (A) (A) (A)
                 (A) (A) (A) (A) (A) (A) (A) (A) (A) (A) (A) (A)
                 (A) (A) (A) (A) (A) (A) (A) (A) (A) (A) (A) (A)
                 (A) (A) (A) (A) (A) (A) (A) (A) (A) (A) (A) (A)
                 (A) (A) (A) (A) (A) (A) (A) (A) (A) (A) (A) (A)
                 (A) (A) (A) (A) (A) (A) (A) (A) (A) (A) (A) (A)
                 (A) (A) (A) (A) (A) (A) (A) (A) (A) (A) (A) (A)
                 (A) (A) (A) (A) (A) (A) (A) (A) (A) (A) (A) (A)
                 (A) (A) (A) (A) (A) (A) (A) (A) (A) (A) (A) (A)
                 (A) (A) (A) (A) (A) (A) (A) (A) (A) (A) (A) (A)
                 (A) (A) (A) (A) (A) (A) (A) (A) (A) (A) (A) (A)
                 (A) (A) (A) (A) (A) (A) (A) (A) (A) (A) (A) (A)
                 (A) (A) (A) (A) (A) (A) (A) (A) (A) (A) (A) (A)
                 (A) (A) (A) (A) (A) (A) (A) (A) (A) (A) (A) (A)
                 (A) (A) (A) (A) (A) (A) (A) (A) (A) (A) (A) (A)
                 (A) (A) (A) (A) (A) (A) (A) (A) (A) (A) (A) (A)
                 (A) (A) (A) (A) (A) (A) (A) (A) (A)
 The electronic state is 1-A.
 Alpha  occ. eigenvalues --  -24.72010 -24.71700 -19.13327 -14.31538 -10.28078
 Alpha  occ. eigenvalues --  -10.28047 -10.21591 -10.21490 -10.20986 -10.20658
 Alpha  occ. eigenvalues --  -10.20614 -10.19813 -10.19778 -10.18131 -10.17616
 Alpha  occ. eigenvalues --  -10.17067 -10.16590  -1.23354  -1.23048  -1.00449
 Alpha  occ. eigenvalues --   -0.90862  -0.86805  -0.79943  -0.76665  -0.75266
 Alpha  occ. eigenvalues --   -0.75260  -0.68686  -0.66762  -0.64430  -0.62901
 Alpha  occ. eigenvalues --   -0.60850  -0.59693  -0.56066  -0.54999  -0.52750
 Alpha  occ. eigenvalues --   -0.50495  -0.49221  -0.48915  -0.48434  -0.46670
 Alpha  occ. eigenvalues --   -0.46553  -0.46310  -0.44968  -0.44140  -0.44011
 Alpha  occ. eigenvalues --   -0.43032  -0.40504  -0.40131  -0.39596  -0.38824
 Alpha  occ. eigenvalues --   -0.38573  -0.37312  -0.36400  -0.35986  -0.35624
 Alpha  occ. eigenvalues --   -0.35223  -0.34421  -0.34041  -0.32251  -0.31357
 Alpha  occ. eigenvalues --   -0.30644  -0.25731  -0.25410  -0.24657  -0.21615
 Alpha virt. eigenvalues --   -0.01274  -0.00166   0.07582   0.08183   0.09270
 Alpha virt. eigenvalues --    0.10087   0.11051   0.11969   0.14437   0.14837
 Alpha virt. eigenvalues --    0.15131   0.15455   0.15827   0.16222   0.16868
 Alpha virt. eigenvalues --    0.17239   0.17937   0.18103   0.18480   0.20073
 Alpha virt. eigenvalues --    0.20149   0.21250   0.21741   0.22142   0.22813
 Alpha virt. eigenvalues --    0.23707   0.24244   0.25796   0.26839   0.27562
 Alpha virt. eigenvalues --    0.28326   0.29121   0.29727   0.31003   0.33770
 Alpha virt. eigenvalues --    0.37409   0.38638   0.46394   0.49589   0.49674
 Alpha virt. eigenvalues --    0.50115   0.51034   0.51754   0.52459   0.52936
 Alpha virt. eigenvalues --    0.53637   0.54980   0.55533   0.57208   0.57797
 Alpha virt. eigenvalues --    0.58175   0.59105   0.59527   0.59585   0.60166
 Alpha virt. eigenvalues --    0.62189   0.62784   0.63722   0.64818   0.65986
 Alpha virt. eigenvalues --    0.66235   0.67069   0.68098   0.69903   0.71403
 Alpha virt. eigenvalues --    0.73338   0.76218   0.76505   0.78846   0.79468
 Alpha virt. eigenvalues --    0.79816   0.81035   0.82259   0.82881   0.83760
 Alpha virt. eigenvalues --    0.84614   0.85285   0.85889   0.86641   0.86893
 Alpha virt. eigenvalues --    0.87148   0.88088   0.88760   0.89498   0.90158
 Alpha virt. eigenvalues --    0.91660   0.92065   0.92790   0.93431   0.94510
 Alpha virt. eigenvalues --    0.95207   0.96370   0.96614   0.97608   0.98591
 Alpha virt. eigenvalues --    0.99669   1.00586   1.03825   1.03947   1.04608
 Alpha virt. eigenvalues --    1.05868   1.08819   1.10316   1.11287   1.17432
 Alpha virt. eigenvalues --    1.19946   1.21272   1.21458   1.22011   1.22632
 Alpha virt. eigenvalues --    1.23903   1.24755   1.27616   1.29981   1.32510
 Alpha virt. eigenvalues --    1.33662   1.35559   1.36912   1.38720   1.39324
 Alpha virt. eigenvalues --    1.40249   1.41539   1.42658   1.43080   1.43537
 Alpha virt. eigenvalues --    1.46008   1.49054   1.50855   1.51138   1.53592
 Alpha virt. eigenvalues --    1.56049   1.59410   1.61561   1.62235   1.62715
 Alpha virt. eigenvalues --    1.66437   1.69296   1.72195   1.73447   1.74824
 Alpha virt. eigenvalues --    1.76453   1.76585   1.78163   1.78543   1.81098
 Alpha virt. eigenvalues --    1.81880   1.82232   1.84099   1.85522   1.86249
 Alpha virt. eigenvalues --    1.86524   1.88042   1.89012   1.89340   1.89956
 Alpha virt. eigenvalues --    1.90638   1.91444   1.92939   1.93796   1.94661
 Alpha virt. eigenvalues --    1.97688   1.98093   1.98913   2.00000   2.00258
 Alpha virt. eigenvalues --    2.01113   2.03060   2.04166   2.05129   2.05768
 Alpha virt. eigenvalues --    2.06281   2.07259   2.07423   2.09286   2.10796
 Alpha virt. eigenvalues --    2.12568   2.14150   2.15047   2.16112   2.17723
 Alpha virt. eigenvalues --    2.18452   2.19265   2.22276   2.23142   2.24375
 Alpha virt. eigenvalues --    2.26433   2.27729   2.28294   2.29895   2.30724
 Alpha virt. eigenvalues --    2.31068   2.31759   2.33973   2.34953   2.35914
 Alpha virt. eigenvalues --    2.37062   2.37618   2.38134   2.38684   2.40622
 Alpha virt. eigenvalues --    2.41077   2.44527   2.46226   2.48034   2.48618
 Alpha virt. eigenvalues --    2.49480   2.52411   2.52655   2.54196   2.55590
 Alpha virt. eigenvalues --    2.56662   2.57749   2.57991   2.60881   2.64051
 Alpha virt. eigenvalues --    2.65020   2.65735   2.66235   2.67447   2.69915
 Alpha virt. eigenvalues --    2.70329   2.71839   2.73596   2.73703   2.74481
 Alpha virt. eigenvalues --    2.75938   2.76365   2.78018   2.78234   2.82118
 Alpha virt. eigenvalues --    2.83559   2.85476   2.86657   2.87297   2.89407
 Alpha virt. eigenvalues --    2.91479   2.92196   2.92746   2.94199   2.96040
 Alpha virt. eigenvalues --    2.98367   3.02057   3.04307   3.06085   3.06520
 Alpha virt. eigenvalues --    3.10377   3.14826   3.20026   3.20229   3.22037
 Alpha virt. eigenvalues --    3.25626   3.29109   3.30977   3.31778   3.34792
 Alpha virt. eigenvalues --    3.35804   3.37601   3.39958   3.41558   3.46025
 Alpha virt. eigenvalues --    3.46166   3.47336   3.48778   3.52274   3.52866
 Alpha virt. eigenvalues --    3.55579   3.57297   3.80422   3.96156   4.07306
 Alpha virt. eigenvalues --    4.09543   4.11908   4.17545   4.33067   4.37962
 Alpha virt. eigenvalues --    4.41224   4.43117   4.52598   4.56426   4.60439
 Alpha virt. eigenvalues --    4.66864   4.75780   4.78940   5.50033   5.62701
          Condensed to atoms (all electrons):
               1          2          3          4          5          6
     1  C    4.947889   0.341899  -0.040563   0.000059  -0.000037  -0.000002
     2  C    0.341899   4.970955   0.378228  -0.052266   0.004838  -0.000028
     3  C   -0.040563   0.378228   4.831411   0.351037  -0.032090   0.001702
     4  C    0.000059  -0.052266   0.351037   4.987016   0.367344  -0.048090
     5  C   -0.000037   0.004838  -0.032090   0.367344   4.751008   0.223048
     6  O   -0.000002  -0.000028   0.001702  -0.048090   0.223048   8.186719
     7  N    0.005086  -0.056265   0.287232  -0.056012  -0.005621   0.000111
     8  C    0.000158  -0.003891  -0.041475   0.005363   0.000147   0.000000
     9  C    0.000000   0.000000   0.000000   0.000000   0.000000   0.000000
    10  C    0.000000   0.000000   0.000005   0.000000   0.000000   0.000000
    11  C    0.000001  -0.000002   0.000116   0.000009   0.000000   0.000000
    12  C    0.000000   0.000086   0.004603  -0.000202  -0.000045   0.000000
    13  C    0.000000  -0.000003   0.000012  -0.000023   0.000000   0.000000
    14  C    0.000000   0.000000   0.000004   0.000000   0.000000   0.000000
    15  H    0.000000   0.000000   0.000000   0.000000   0.000000   0.000000
    16  H    0.000000   0.000000   0.000000   0.000000   0.000000   0.000000
    17  H    0.000000   0.000000   0.000000   0.000000   0.000000   0.000000
    18  F    0.000000  -0.000019   0.000009   0.000000   0.000000   0.000000
    19  F    0.000000   0.000000  -0.000003   0.000000   0.000001   0.000000
    20  H    0.375162  -0.025654   0.004064   0.000104  -0.000001   0.000000
    21  H    0.389121  -0.034306  -0.005820   0.002070  -0.000034   0.000000
    22  H    0.387989  -0.037416  -0.004968  -0.001535  -0.000050   0.000000
    23  H   -0.037853   0.380629  -0.032505  -0.008891  -0.000003   0.000000
    24  H   -0.038770   0.382315  -0.032286   0.004720  -0.000109   0.000000
    25  H    0.002511  -0.005680  -0.031764   0.370617  -0.041863   0.004132
    26  H   -0.000011   0.000105   0.000212  -0.046330   0.373026  -0.041279
    27  H   -0.000010  -0.000017  -0.004638  -0.031849   0.370069  -0.040777
    28  H    0.000000   0.000003  -0.000239   0.006132  -0.024785   0.284537
    29  H   -0.000569   0.002707  -0.001428  -0.000370   0.000029   0.000000
    30  H    0.000031  -0.000916  -0.005321   0.000415  -0.000086   0.000000
    31  H   -0.003284  -0.047361   0.384091  -0.043198  -0.007075  -0.000019
    32  C   -0.001775  -0.006170  -0.036173   0.359451  -0.046015  -0.001175
    33  H   -0.000053   0.002332  -0.005612  -0.031282   0.004896   0.000074
    34  H    0.000041  -0.000178  -0.005996  -0.035426  -0.005802  -0.000185
    35  H    0.000010   0.000085   0.004676  -0.029237  -0.006286   0.009641
    36  H    0.000083  -0.007024  -0.036803  -0.002806  -0.000072  -0.000005
               7          8          9         10         11         12
     1  C    0.005086   0.000158   0.000000   0.000000   0.000001   0.000000
     2  C   -0.056265  -0.003891   0.000000   0.000000  -0.000002   0.000086
     3  C    0.287232  -0.041475   0.000000   0.000005   0.000116   0.004603
     4  C   -0.056012   0.005363   0.000000   0.000000   0.000009  -0.000202
     5  C   -0.005621   0.000147   0.000000   0.000000   0.000000  -0.000045
     6  O    0.000111   0.000000   0.000000   0.000000   0.000000   0.000000
     7  N    6.910289   0.290295   0.000024  -0.000175  -0.007507  -0.049981
     8  C    0.290295   4.922802  -0.000598   0.008768  -0.048324   0.303913
     9  C    0.000024  -0.000598   4.854650   0.488231  -0.009592  -0.028543
    10  C   -0.000175   0.008768   0.488231   5.055333   0.476263  -0.075437
    11  C   -0.007507  -0.048324  -0.009592   0.476263   4.624656   0.390320
    12  C   -0.049981   0.303913  -0.028543  -0.075437   0.390320   5.318637
    13  C    0.005435  -0.047898  -0.008273  -0.050163   0.014196   0.411786
    14  C   -0.000054   0.008325   0.485219  -0.031480  -0.049416  -0.071538
    15  H    0.000000   0.000004   0.375379  -0.034848   0.003652   0.000214
    16  H    0.000001  -0.000156  -0.037321   0.358300  -0.032515   0.006507
    17  H    0.000002  -0.000146  -0.037489   0.004745   0.000478   0.006393
    18  F   -0.001944   0.003331   0.002963  -0.047587   0.309108  -0.058862
    19  F   -0.000301  -0.002151   0.003055  -0.000055   0.002521  -0.052807
    20  H   -0.000141  -0.000005   0.000000   0.000000   0.000000   0.000000
    21  H   -0.000004   0.000001   0.000000   0.000000   0.000000   0.000000
    22  H    0.000052  -0.000011   0.000000   0.000000   0.000000   0.000000
    23  H   -0.004162  -0.000184   0.000000   0.000000  -0.000011  -0.000008
    24  H   -0.003310   0.001140   0.000000   0.000000   0.000028  -0.000094
    25  H    0.004410  -0.000148   0.000000   0.000000   0.000000   0.000003
    26  H   -0.000240   0.000022   0.000000   0.000000   0.000000  -0.000018
    27  H    0.011819  -0.000268   0.000000   0.000000  -0.000008   0.000010
    28  H    0.000013  -0.000001   0.000000   0.000000   0.000000   0.000000
    29  H   -0.051689   0.351113  -0.000028  -0.000016  -0.013777  -0.033644
    30  H   -0.042340   0.375627  -0.000026  -0.000172   0.005718  -0.027724
    31  H   -0.043304  -0.007190   0.000000   0.000000  -0.000015   0.000234
    32  C   -0.008768   0.000164   0.000000   0.000000  -0.000002   0.000002
    33  H   -0.000057  -0.000027   0.000000   0.000000   0.000000   0.000000
    34  H    0.005579  -0.000200   0.000000   0.000000  -0.000014   0.000040
    35  H    0.000015   0.000000   0.000000   0.000000   0.000000   0.000000
    36  H    0.331022  -0.034341  -0.000017  -0.000015   0.004941  -0.008335
              13         14         15         16         17         18
     1  C    0.000000   0.000000   0.000000   0.000000   0.000000   0.000000
     2  C   -0.000003   0.000000   0.000000   0.000000   0.000000  -0.000019
     3  C    0.000012   0.000004   0.000000   0.000000   0.000000   0.000009
     4  C   -0.000023   0.000000   0.000000   0.000000   0.000000   0.000000
     5  C    0.000000   0.000000   0.000000   0.000000   0.000000   0.000000
     6  O    0.000000   0.000000   0.000000   0.000000   0.000000   0.000000
     7  N    0.005435  -0.000054   0.000000   0.000001   0.000002  -0.001944
     8  C   -0.047898   0.008325   0.000004  -0.000156  -0.000146   0.003331
     9  C   -0.008273   0.485219   0.375379  -0.037321  -0.037489   0.002963
    10  C   -0.050163  -0.031480  -0.034848   0.358300   0.004745  -0.047587
    11  C    0.014196  -0.049416   0.003652  -0.032515   0.000478   0.309108
    12  C    0.411786  -0.071538   0.000214   0.006507   0.006393  -0.058862
    13  C    4.594691   0.471813   0.003618   0.000496  -0.032688   0.002377
    14  C    0.471813   5.057817  -0.034509   0.004692   0.358872  -0.000068
    15  H    0.003618  -0.034509   0.581680  -0.005955  -0.005934  -0.000023
    16  H    0.000496   0.004692  -0.005955   0.595213  -0.000151  -0.000362
    17  H   -0.032688   0.358872  -0.005934  -0.000151   0.595362   0.000001
    18  F    0.002377  -0.000068  -0.000023  -0.000362   0.000001   9.072584
    19  F    0.310659  -0.047049  -0.000023   0.000001  -0.000520   0.000000
    20  H    0.000000   0.000000   0.000000   0.000000   0.000000   0.000000
    21  H    0.000000   0.000000   0.000000   0.000000   0.000000   0.000000
    22  H    0.000000   0.000000   0.000000   0.000000   0.000000   0.000000
    23  H    0.000001   0.000000   0.000000   0.000000   0.000000  -0.000008
    24  H   -0.000008   0.000000   0.000000   0.000000   0.000000  -0.000022
    25  H    0.000000   0.000000   0.000000   0.000000   0.000000   0.000000
    26  H    0.000009   0.000000   0.000000   0.000000   0.000000   0.000000
    27  H    0.000087   0.000001   0.000000   0.000000   0.000000   0.000000
    28  H    0.000000   0.000000   0.000000   0.000000   0.000000   0.000000
    29  H    0.006239  -0.000169   0.000000   0.000002   0.000003   0.004844
    30  H   -0.009530   0.000385   0.000000   0.000002  -0.000008   0.000186
    31  H    0.000017   0.000000   0.000000   0.000000   0.000000  -0.000001
    32  C    0.000000   0.000000   0.000000   0.000000   0.000000   0.000000
    33  H    0.000000   0.000000   0.000000   0.000000   0.000000   0.000000
    34  H    0.000003   0.000000   0.000000   0.000000   0.000000  -0.000002
    35  H    0.000000   0.000000   0.000000   0.000000   0.000000   0.000000
    36  H   -0.000421   0.000005   0.000000   0.000002   0.000000   0.005112
              19         20         21         22         23         24
     1  C    0.000000   0.375162   0.389121   0.387989  -0.037853  -0.038770
     2  C    0.000000  -0.025654  -0.034306  -0.037416   0.380629   0.382315
     3  C   -0.000003   0.004064  -0.005820  -0.004968  -0.032505  -0.032286
     4  C    0.000000   0.000104   0.002070  -0.001535  -0.008891   0.004720
     5  C    0.000001  -0.000001  -0.000034  -0.000050  -0.000003  -0.000109
     6  O    0.000000   0.000000   0.000000   0.000000   0.000000   0.000000
     7  N   -0.000301  -0.000141  -0.000004   0.000052  -0.004162  -0.003310
     8  C   -0.002151  -0.000005   0.000001  -0.000011  -0.000184   0.001140
     9  C    0.003055   0.000000   0.000000   0.000000   0.000000   0.000000
    10  C   -0.000055   0.000000   0.000000   0.000000   0.000000   0.000000
    11  C    0.002521   0.000000   0.000000   0.000000  -0.000011   0.000028
    12  C   -0.052807   0.000000   0.000000   0.000000  -0.000008  -0.000094
    13  C    0.310659   0.000000   0.000000   0.000000   0.000001  -0.000008
    14  C   -0.047049   0.000000   0.000000   0.000000   0.000000   0.000000
    15  H   -0.000023   0.000000   0.000000   0.000000   0.000000   0.000000
    16  H    0.000001   0.000000   0.000000   0.000000   0.000000   0.000000
    17  H   -0.000520   0.000000   0.000000   0.000000   0.000000   0.000000
    18  F    0.000000   0.000000   0.000000   0.000000  -0.000008  -0.000022
    19  F    9.066545   0.000000   0.000000   0.000000   0.000000   0.000000
    20  H    0.000000   0.616461  -0.031394  -0.031317  -0.002236  -0.005345
    21  H    0.000000  -0.031394   0.599248  -0.032510  -0.006509   0.005512
    22  H    0.000000  -0.031317  -0.032510   0.606482   0.005599  -0.004007
    23  H    0.000000  -0.002236  -0.006509   0.005599   0.632001  -0.039388
    24  H    0.000000  -0.005345   0.005512  -0.004007  -0.039388   0.633676
    25  H    0.000000  -0.000009   0.001083   0.000763   0.000103   0.000022
    26  H    0.000007   0.000000   0.000003   0.000006   0.000003  -0.000002
    27  H    0.000002   0.000000  -0.000002   0.000000   0.000002   0.000001
    28  H    0.000000   0.000000   0.000000   0.000000   0.000000   0.000000
    29  H    0.000193   0.000031   0.000000   0.000012   0.000261   0.002516
    30  H    0.009033  -0.000001   0.000001  -0.000004   0.000025   0.000484
    31  H   -0.000023  -0.000104  -0.000269   0.005360   0.005850  -0.005714
    32  C    0.000000  -0.000014   0.000640   0.000145   0.003116   0.000068
    33  H    0.000000  -0.000030   0.001377  -0.000026   0.001927  -0.000051
    34  H    0.000000   0.000003  -0.000040  -0.000003   0.000127  -0.000021
    35  H    0.000000   0.000000  -0.000045   0.000000  -0.000113   0.000000
    36  H   -0.000010  -0.000006   0.000003   0.000022   0.006168  -0.000115
              25         26         27         28         29         30
     1  C    0.002511  -0.000011  -0.000010   0.000000  -0.000569   0.000031
     2  C   -0.005680   0.000105  -0.000017   0.000003   0.002707  -0.000916
     3  C   -0.031764   0.000212  -0.004638  -0.000239  -0.001428  -0.005321
     4  C    0.370617  -0.046330  -0.031849   0.006132  -0.000370   0.000415
     5  C   -0.041863   0.373026   0.370069  -0.024785   0.000029  -0.000086
     6  O    0.004132  -0.041279  -0.040777   0.284537   0.000000   0.000000
     7  N    0.004410  -0.000240   0.011819   0.000013  -0.051689  -0.042340
     8  C   -0.000148   0.000022  -0.000268  -0.000001   0.351113   0.375627
     9  C    0.000000   0.000000   0.000000   0.000000  -0.000028  -0.000026
    10  C    0.000000   0.000000   0.000000   0.000000  -0.000016  -0.000172
    11  C    0.000000   0.000000  -0.000008   0.000000  -0.013777   0.005718
    12  C    0.000003  -0.000018   0.000010   0.000000  -0.033644  -0.027724
    13  C    0.000000   0.000009   0.000087   0.000000   0.006239  -0.009530
    14  C    0.000000   0.000000   0.000001   0.000000  -0.000169   0.000385
    15  H    0.000000   0.000000   0.000000   0.000000   0.000000   0.000000
    16  H    0.000000   0.000000   0.000000   0.000000   0.000002   0.000002
    17  H    0.000000   0.000000   0.000000   0.000000   0.000003  -0.000008
    18  F    0.000000   0.000000   0.000000   0.000000   0.004844   0.000186
    19  F    0.000000   0.000007   0.000002   0.000000   0.000193   0.009033
    20  H   -0.000009   0.000000   0.000000   0.000000   0.000031  -0.000001
    21  H    0.001083   0.000003  -0.000002   0.000000   0.000000   0.000001
    22  H    0.000763   0.000006   0.000000   0.000000   0.000012  -0.000004
    23  H    0.000103   0.000003   0.000002   0.000000   0.000261   0.000025
    24  H    0.000022  -0.000002   0.000001   0.000000   0.002516   0.000484
    25  H    0.655011  -0.005857   0.007126  -0.000096   0.000015  -0.000025
    26  H   -0.005857   0.689059  -0.051811  -0.003907   0.000008   0.000024
    27  H    0.007126  -0.051811   0.660008  -0.005004   0.000028  -0.000069
    28  H   -0.000096  -0.003907  -0.005004   0.424944   0.000000   0.000000
    29  H    0.000015   0.000008   0.000028   0.000000   0.692165  -0.048136
    30  H   -0.000025   0.000024  -0.000069   0.000000  -0.048136   0.612003
    31  H   -0.003651   0.006462  -0.000473  -0.000006  -0.000539   0.006427
    32  C   -0.049475   0.006494  -0.012299   0.000145  -0.000022   0.000005
    33  H   -0.004151  -0.000171   0.000006   0.000005   0.000004  -0.000001
    34  H    0.006094  -0.000020   0.005706  -0.000017   0.000030  -0.000011
    35  H   -0.003901   0.000317  -0.000008  -0.000423   0.000000   0.000000
    36  H   -0.000105  -0.000002  -0.000113   0.000000  -0.007016   0.006275
              31         32         33         34         35         36
     1  C   -0.003284  -0.001775  -0.000053   0.000041   0.000010   0.000083
     2  C   -0.047361  -0.006170   0.002332  -0.000178   0.000085  -0.007024
     3  C    0.384091  -0.036173  -0.005612  -0.005996   0.004676  -0.036803
     4  C   -0.043198   0.359451  -0.031282  -0.035426  -0.029237  -0.002806
     5  C   -0.007075  -0.046015   0.004896  -0.005802  -0.006286  -0.000072
     6  O   -0.000019  -0.001175   0.000074  -0.000185   0.009641  -0.000005
     7  N   -0.043304  -0.008768  -0.000057   0.005579   0.000015   0.331022
     8  C   -0.007190   0.000164  -0.000027  -0.000200   0.000000  -0.034341
     9  C    0.000000   0.000000   0.000000   0.000000   0.000000  -0.000017
    10  C    0.000000   0.000000   0.000000   0.000000   0.000000  -0.000015
    11  C   -0.000015  -0.000002   0.000000  -0.000014   0.000000   0.004941
    12  C    0.000234   0.000002   0.000000   0.000040   0.000000  -0.008335
    13  C    0.000017   0.000000   0.000000   0.000003   0.000000  -0.000421
    14  C    0.000000   0.000000   0.000000   0.000000   0.000000   0.000005
    15  H    0.000000   0.000000   0.000000   0.000000   0.000000   0.000000
    16  H    0.000000   0.000000   0.000000   0.000000   0.000000   0.000002
    17  H    0.000000   0.000000   0.000000   0.000000   0.000000   0.000000
    18  F   -0.000001   0.000000   0.000000  -0.000002   0.000000   0.005112
    19  F   -0.000023   0.000000   0.000000   0.000000   0.000000  -0.000010
    20  H   -0.000104  -0.000014  -0.000030   0.000003   0.000000  -0.000006
    21  H   -0.000269   0.000640   0.001377  -0.000040  -0.000045   0.000003
    22  H    0.005360   0.000145  -0.000026  -0.000003   0.000000   0.000022
    23  H    0.005850   0.003116   0.001927   0.000127  -0.000113   0.006168
    24  H   -0.005714   0.000068  -0.000051  -0.000021   0.000000  -0.000115
    25  H   -0.003651  -0.049475  -0.004151   0.006094  -0.003901  -0.000105
    26  H    0.006462   0.006494  -0.000171  -0.000020   0.000317  -0.000002
    27  H   -0.000473  -0.012299   0.000006   0.005706  -0.000008  -0.000113
    28  H   -0.000006   0.000145   0.000005  -0.000017  -0.000423   0.000000
    29  H   -0.000539  -0.000022   0.000004   0.000030   0.000000  -0.007016
    30  H    0.006427   0.000005  -0.000001  -0.000011   0.000000   0.006275
    31  H    0.650346   0.005618  -0.000007  -0.000007  -0.000144   0.006460
    32  C    0.005618   4.978443   0.378147   0.379369   0.381326   0.003162
    33  H   -0.000007   0.378147   0.615828  -0.032428  -0.031290   0.000028
    34  H   -0.000007   0.379369  -0.032428   0.611058  -0.030462   0.000544
    35  H   -0.000144   0.381326  -0.031290  -0.030462   0.590104  -0.000089
    36  H    0.006460   0.003162   0.000028   0.000544  -0.000089   0.486848
 Mulliken charges:
               1
     1  C   -0.327113
     2  C   -0.186985
     3  C    0.070282
     4  C   -0.066822
     5  C    0.075568
     6  O   -0.578403
     7  N   -0.519511
     8  C   -0.084160
     9  C   -0.087635
    10  C   -0.151696
    11  C    0.329176
    12  C   -0.035510
    13  C    0.327567
    14  C   -0.152849
    15  H    0.116744
    16  H    0.111245
    17  H    0.111082
    18  F   -0.291618
    19  F   -0.289074
    20  H    0.100433
    21  H    0.111873
    22  H    0.105415
    23  H    0.096058
    24  H    0.098761
    25  H    0.094832
    26  H    0.073891
    27  H    0.092483
    28  H    0.318696
    29  H    0.097205
    30  H    0.117728
    31  H    0.091519
    32  C   -0.334407
    33  H    0.100562
    34  H    0.102218
    35  H    0.115824
    36  H    0.246622
 Sum of Mulliken charges =   0.00000
 Mulliken charges with hydrogens summed into heavy atoms:
               1
     1  C   -0.009391
     2  C    0.007835
     3  C    0.161800
     4  C    0.028010
     5  C    0.241941
     6  O   -0.259707
     7  N   -0.272890
     8  C    0.130773
     9  C    0.029109
    10  C   -0.040452
    11  C    0.329176
    12  C   -0.035510
    13  C    0.327567
    14  C   -0.041767
    18  F   -0.291618
    19  F   -0.289074
    32  C   -0.015803
 Electronic spatial extent (au):  <R**2>=           5386.9451
 Charge=              0.0000 electrons
 Dipole moment (field-independent basis, Debye):
    X=              2.4008    Y=             -0.2703    Z=             -0.2865  Tot=              2.4329
 Quadrupole moment (field-independent basis, Debye-Ang):
   XX=            -99.3369   YY=            -95.6702   ZZ=           -100.6516
   XY=              4.8620   XZ=              6.5116   YZ=             -0.3260
 Traceless Quadrupole moment (field-independent basis, Debye-Ang):
   XX=             -0.7840   YY=              2.8827   ZZ=             -2.0987
   XY=              4.8620   XZ=              6.5116   YZ=             -0.3260
 Octapole moment (field-independent basis, Debye-Ang**2):
  XXX=            117.7759  YYY=             49.9607  ZZZ=             -3.9158  XYY=             -7.1131
  XXY=             -2.7493  XXZ=              8.9970  XZZ=              5.0322  YZZ=             -2.7406
  YYZ=              1.4167  XYZ=              3.6060
 Hexadecapole moment (field-independent basis, Debye-Ang**3):
 XXXX=          -4844.0281 YYYY=          -1207.3288 ZZZZ=           -627.9717 XXXY=            122.2423
 XXXZ=            129.7731 YYYX=           -122.7514 YYYZ=             -6.6090 ZZZX=             -2.0133
 ZZZY=            -33.9026 XXYY=          -1023.0822 XXZZ=           -925.8522 YYZZ=           -341.4826
 XXYZ=            -49.7251 YYXZ=             -6.0960 ZZXY=            -24.9696
 N-N= 1.253242602314D+03 E-N=-4.460746736296D+03  KE= 8.291709267368D+02
 D1PCM: PCM CHGder 1st derivatives, ID1Alg=3 FixD1E=F DoIter=F DoCFld=F I1PDM=0.
 Calling FoFJK, ICntrl=      2127 FMM=F ISym2X=0 I1Cent= 0 IOpClX= 0 NMat=1 NMatS=1 NMatT=0.
 ***** Axes restored to original set *****
 -------------------------------------------------------------------
 Center     Atomic                   Forces (Hartrees/Bohr)
 Number     Number              X              Y              Z
 -------------------------------------------------------------------
      1        6           0.004174475    0.000989711   -0.004182883
      2        6           0.005145785   -0.004352096    0.002562568
      3        6           0.002596994    0.012393520   -0.005896812
      4        6          -0.002339258    0.004489292    0.003489912
      5        6           0.001089373    0.000421999    0.003574831
      6        8           0.005148245    0.005152236    0.006482526
      7        7          -0.000602521   -0.003699398    0.011373690
      8        6           0.002339342   -0.001304636   -0.005710703
      9        6           0.005680869   -0.001366419    0.000380723
     10        6          -0.001084398    0.004135340   -0.007580272
     11        6          -0.020124589   -0.002497925    0.015024222
     12        6           0.009109406   -0.003751479   -0.000713466
     13        6          -0.016526815    0.010637964   -0.011650742
     14        6          -0.002643648   -0.003021377    0.007324243
     15        1           0.001830508   -0.000446576   -0.000107996
     16        1           0.001393391   -0.000374901   -0.000171855
     17        1           0.001333993   -0.000446458   -0.000116601
     18        9           0.007483711    0.000692353   -0.004765066
     19        9           0.005354852   -0.003017160    0.003128642
     20        1           0.001761823   -0.000762189    0.000490221
     21        1           0.001375109   -0.001022389    0.001054151
     22        1           0.001480188   -0.000364439    0.000563503
     23        1          -0.002047626    0.001242043    0.001669212
     24        1          -0.003544870    0.000844607    0.001613275
     25        1          -0.000979166   -0.003228642    0.000821193
     26        1          -0.003899378   -0.006036776   -0.004081280
     27        1          -0.003206156   -0.004088323   -0.006134421
     28        1           0.003872051    0.001008528   -0.005811956
     29        1          -0.001528975   -0.004035866   -0.003244799
     30        1           0.001365814    0.004734691    0.001110406
     31        1          -0.003996526    0.000012854   -0.000448799
     32        6           0.001983453    0.001952646   -0.001505093
     33        1          -0.000443646    0.000382651   -0.001003266
     34        1          -0.000958661   -0.000218543   -0.000252891
     35        1          -0.001525415   -0.002037424    0.000840887
     36        1           0.000932267   -0.003017421    0.001874696
 -------------------------------------------------------------------
 Cartesian Forces:  Max     0.020124589 RMS     0.004828260

 GradGradGradGradGradGradGradGradGradGradGradGradGradGradGradGradGradGrad
 Berny optimization.
 FormGI is forming the generalized inverse of G from B-inverse, IUseBI=4.
 Internal  Forces:  Max     0.009405036 RMS     0.003001237
 Search for a local minimum.
 Step number   1 out of a maximum of   50
 All quantities printed in internal units (Hartrees-Bohrs-Radians)
 Mixed Optimization -- RFO/linear search
 Second derivative matrix not updated -- first step.
 ITU=  0
     Eigenvalues ---    0.00230   0.00230   0.00255   0.00293   0.00460
     Eigenvalues ---    0.00722   0.00745   0.00856   0.01349   0.01566
     Eigenvalues ---    0.02146   0.02151   0.02152   0.02158   0.02161
     Eigenvalues ---    0.02166   0.02167   0.02169   0.02691   0.03248
     Eigenvalues ---    0.03382   0.03683   0.04557   0.04660   0.04778
     Eigenvalues ---    0.05042   0.05046   0.05185   0.05337   0.05487
     Eigenvalues ---    0.05496   0.05541   0.05709   0.05962   0.06563
     Eigenvalues ---    0.08545   0.09795   0.11198   0.11521   0.12356
     Eigenvalues ---    0.13153   0.13765   0.16000   0.16000   0.16000
     Eigenvalues ---    0.16000   0.16000   0.16000   0.16000   0.16000
     Eigenvalues ---    0.16000   0.16000   0.16749   0.17252   0.17410
     Eigenvalues ---    0.18020   0.21916   0.21925   0.22022   0.22085
     Eigenvalues ---    0.23379   0.23490   0.24906   0.24995   0.24999
     Eigenvalues ---    0.25000   0.27034   0.27944   0.28643   0.28900
     Eigenvalues ---    0.30064   0.32211   0.33796   0.33942   0.34022
     Eigenvalues ---    0.34078   0.34085   0.34118   0.34202   0.34233
     Eigenvalues ---    0.34238   0.34247   0.34273   0.34303   0.34379
     Eigenvalues ---    0.34396   0.35169   0.35282   0.35292   0.35351
     Eigenvalues ---    0.36572   0.41581   0.42336   0.42490   0.44175
     Eigenvalues ---    0.46344   0.46483   0.46518   0.46620   0.52867
     Eigenvalues ---    0.56914   0.56979
 RFO step:  Lambda=-8.94106873D-03 EMin= 2.30000000D-03
 Linear search not attempted -- first point.
 Iteration  1 RMS(Cart)=  0.05188901 RMS(Int)=  0.00082428
 Iteration  2 RMS(Cart)=  0.00162807 RMS(Int)=  0.00034218
 Iteration  3 RMS(Cart)=  0.00000113 RMS(Int)=  0.00034218
 Iteration  4 RMS(Cart)=  0.00000000 RMS(Int)=  0.00034218
 Variable       Old X    -DE/DX   Delta X   Delta X   Delta X     New X
                                 (Linear)    (Quad)   (Total)
    R1        2.87835   0.00879   0.00000   0.02840   0.02840   2.90675
    R2        2.06916   0.00027   0.00000   0.00076   0.00076   2.06992
    R3        2.06667   0.00034   0.00000   0.00095   0.00095   2.06762
    R4        2.06822   0.00088   0.00000   0.00250   0.00250   2.07072
    R5        2.92261   0.00032   0.00000   0.00112   0.00112   2.92372
    R6        2.07187   0.00045   0.00000   0.00129   0.00129   2.07316
    R7        2.07198   0.00013   0.00000   0.00037   0.00037   2.07236
    R8        2.94301  -0.00416   0.00000  -0.01490  -0.01490   2.92811
    R9        2.78409   0.00369   0.00000   0.01018   0.01018   2.79427
   R10        2.07675  -0.00065   0.00000  -0.00187  -0.00187   2.07488
   R11        2.90755  -0.00663   0.00000  -0.02244  -0.02244   2.88511
   R12        2.07427  -0.00004   0.00000  -0.00012  -0.00012   2.07415
   R13        2.90211   0.00080   0.00000   0.00267   0.00267   2.90479
   R14        2.69459   0.00879   0.00000   0.02070   0.02070   2.71529
   R15        2.06930   0.00437   0.00000   0.01245   0.01245   2.08175
   R16        2.06939   0.00138   0.00000   0.00394   0.00394   2.07333
   R17        1.83778  -0.00696   0.00000  -0.01295  -0.01295   1.82483
   R18        2.76497   0.00522   0.00000   0.01393   0.01393   2.77889
   R19        1.92946  -0.00359   0.00000  -0.00796  -0.00796   1.92151
   R20        2.83759   0.00813   0.00000   0.02456   0.02456   2.86215
   R21        2.07131   0.00391   0.00000   0.01117   0.01117   2.08249
   R22        2.07292  -0.00270   0.00000  -0.00774  -0.00774   2.06518
   R23        2.63391   0.00132   0.00000   0.00293   0.00290   2.63681
   R24        2.63452   0.00089   0.00000   0.00206   0.00203   2.63655
   R25        2.05401  -0.00189   0.00000  -0.00523  -0.00523   2.04878
   R26        2.63502  -0.00347   0.00000  -0.00734  -0.00733   2.62768
   R27        2.05204  -0.00062   0.00000  -0.00171  -0.00171   2.05033
   R28        2.63834  -0.00071   0.00000  -0.00170  -0.00166   2.63668
   R29        2.53470   0.00802   0.00000   0.01387   0.01387   2.54857
   R30        2.63719   0.00018   0.00000   0.00021   0.00024   2.63744
   R31        2.63604  -0.00315   0.00000  -0.00663  -0.00664   2.62940
   R32        2.53414   0.00605   0.00000   0.01046   0.01046   2.54461
   R33        2.05219  -0.00069   0.00000  -0.00192  -0.00192   2.05027
   R34        2.06695   0.00071   0.00000   0.00200   0.00200   2.06896
   R35        2.06872   0.00085   0.00000   0.00241   0.00241   2.07113
   R36        2.06990  -0.00151   0.00000  -0.00429  -0.00429   2.06561
    A1        1.91913   0.00240   0.00000   0.01689   0.01679   1.93592
    A2        1.94902   0.00151   0.00000   0.00886   0.00878   1.95780
    A3        1.93849   0.00081   0.00000   0.00216   0.00216   1.94065
    A4        1.87368  -0.00136   0.00000  -0.00303  -0.00319   1.87048
    A5        1.88475  -0.00166   0.00000  -0.00967  -0.00970   1.87505
    A6        1.89647  -0.00192   0.00000  -0.01629  -0.01627   1.88020
    A7        1.98647   0.00577   0.00000   0.02799   0.02809   2.01456
    A8        1.90459  -0.00022   0.00000   0.00980   0.01009   1.91468
    A9        1.86962   0.00072   0.00000   0.02127   0.02149   1.89111
   A10        1.93505  -0.00369   0.00000  -0.02957  -0.02992   1.90512
   A11        1.91010  -0.00377   0.00000  -0.02707  -0.02765   1.88245
   A12        1.85212   0.00102   0.00000  -0.00287  -0.00368   1.84844
   A13        1.98555  -0.00311   0.00000  -0.00057  -0.00138   1.98417
   A14        1.93201   0.00672   0.00000   0.05031   0.05025   1.98225
   A15        1.87972  -0.00094   0.00000  -0.01218  -0.01160   1.86813
   A16        1.91011  -0.00136   0.00000   0.00509   0.00425   1.91435
   A17        1.85495   0.00222   0.00000   0.00181   0.00166   1.85661
   A18        1.89798  -0.00387   0.00000  -0.05019  -0.04989   1.84809
   A19        1.93360  -0.00148   0.00000  -0.01331  -0.01341   1.92018
   A20        1.89314  -0.00045   0.00000  -0.01266  -0.01293   1.88020
   A21        1.98711   0.00016   0.00000   0.00380   0.00387   1.99098
   A22        1.86030  -0.00069   0.00000  -0.01309  -0.01342   1.84688
   A23        1.92302   0.00135   0.00000   0.01021   0.01024   1.93326
   A24        1.86061   0.00112   0.00000   0.02486   0.02494   1.88555
   A25        1.91610  -0.00941   0.00000  -0.03369  -0.03327   1.88282
   A26        1.93265  -0.00141   0.00000  -0.02340  -0.02349   1.90916
   A27        1.94876  -0.00335   0.00000  -0.03954  -0.03966   1.90910
   A28        1.87832   0.00741   0.00000   0.06012   0.05953   1.93786
[...]
    29  H   -0.000526   0.002455  -0.001936  -0.000289   0.000018   0.000000
    30  H    0.000025  -0.000848  -0.004853   0.000287  -0.000055   0.000000
    31  H   -0.003868  -0.050923   0.382959  -0.042241  -0.008550   0.000006
    32  C   -0.000738  -0.006774  -0.035279   0.361175  -0.044967  -0.003555
    33  H    0.000170   0.001488  -0.004221  -0.029924   0.004772   0.000096
    34  H    0.000002  -0.000034  -0.007203  -0.036151  -0.005189  -0.000113
    35  H   -0.000001   0.000086   0.004847  -0.031812  -0.007231   0.012586
    36  H    0.000027  -0.006232  -0.036932  -0.003393  -0.000030  -0.000005
               7          8          9         10         11         12
     1  C    0.004461   0.000156   0.000000   0.000000   0.000000   0.000000
     2  C   -0.051738  -0.004298   0.000000   0.000000   0.000008   0.000072
     3  C    0.287146  -0.038891   0.000000   0.000004   0.000144   0.004352
     4  C   -0.053799   0.005169   0.000000   0.000000   0.000006  -0.000227
     5  C   -0.007641   0.000169   0.000000   0.000000   0.000000  -0.000033
     6  O    0.000095   0.000000   0.000000   0.000000   0.000000   0.000000
     7  N    6.916378   0.287567   0.000020  -0.000180  -0.007536  -0.041301
     8  C    0.287567   4.922891  -0.000659   0.008269  -0.051074   0.308323
     9  C    0.000020  -0.000659   4.864040   0.485846  -0.006315  -0.027532
    10  C   -0.000180   0.008269   0.485846   5.043821   0.482973  -0.081383
    11  C   -0.007536  -0.051074  -0.006315   0.482973   4.632325   0.385199
    12  C   -0.041301   0.308323  -0.027532  -0.081383   0.385199   5.293422
    13  C    0.003927  -0.046691  -0.004396  -0.048756   0.020796   0.421479
    14  C   -0.000068   0.007574   0.482946  -0.036750  -0.047009  -0.073994
    15  H    0.000000   0.000005   0.373608  -0.034672   0.003555   0.000446
    16  H    0.000002  -0.000135  -0.036124   0.360927  -0.031976   0.006190
    17  H    0.000001  -0.000118  -0.036598   0.004479   0.000320   0.006123
    18  F   -0.003524   0.004716   0.002827  -0.045840   0.295299  -0.058742
    19  F   -0.000130  -0.005497   0.003033   0.000012   0.002773  -0.048853
    20  H   -0.000117  -0.000005   0.000000   0.000000   0.000000   0.000000
    21  H   -0.000009   0.000001   0.000000   0.000000   0.000000   0.000000
    22  H    0.000047  -0.000009   0.000000   0.000000   0.000000   0.000000
    23  H   -0.002685  -0.000094   0.000000   0.000000  -0.000006  -0.000003
    24  H   -0.004260   0.001588   0.000000   0.000000   0.000036  -0.000171
    25  H    0.004506  -0.000147   0.000000   0.000000   0.000000   0.000004
    26  H   -0.000158  -0.000003   0.000000   0.000000   0.000000  -0.000008
    27  H    0.013739  -0.000357   0.000000   0.000000  -0.000008   0.000048
    28  H    0.000013   0.000000   0.000000   0.000000   0.000000   0.000000
    29  H   -0.046487   0.348432   0.000000  -0.000159  -0.011340  -0.032352
    30  H   -0.045416   0.374969  -0.000031  -0.000147   0.005782  -0.029053
    31  H   -0.048748  -0.006744   0.000000   0.000000  -0.000013   0.000232
    32  C   -0.009939   0.000202   0.000000   0.000000  -0.000003   0.000004
    33  H   -0.000068  -0.000025   0.000000   0.000000   0.000000   0.000000
    34  H    0.006104  -0.000228   0.000000  -0.000001  -0.000018   0.000057
    35  H    0.000031   0.000000   0.000000   0.000000   0.000000   0.000000
    36  H    0.327063  -0.035858  -0.000019   0.000026   0.004422  -0.010107
              13         14         15         16         17         18
     1  C    0.000000   0.000000   0.000000   0.000000   0.000000   0.000000
     2  C   -0.000004   0.000000   0.000000   0.000000   0.000000  -0.000015
     3  C   -0.000025   0.000003   0.000000   0.000000   0.000000   0.000000
     4  C   -0.000009   0.000000   0.000000   0.000000   0.000000   0.000001
     5  C   -0.000004   0.000000   0.000000   0.000000   0.000000   0.000000
     6  O    0.000000   0.000000   0.000000   0.000000   0.000000   0.000000
     7  N    0.003927  -0.000068   0.000000   0.000002   0.000001  -0.003524
     8  C   -0.046691   0.007574   0.000005  -0.000135  -0.000118   0.004716
     9  C   -0.004396   0.482946   0.373608  -0.036124  -0.036598   0.002827
    10  C   -0.048756  -0.036750  -0.034672   0.360927   0.004479  -0.045840
    11  C    0.020796  -0.047009   0.003555  -0.031976   0.000320   0.295299
    12  C    0.421479  -0.073994   0.000446   0.006190   0.006123  -0.058742
    13  C    4.598035   0.473885   0.003541   0.000356  -0.032292   0.002550
    14  C    0.473885   5.045897  -0.033853   0.004356   0.361860  -0.000012
    15  H    0.003541  -0.033853   0.581729  -0.005632  -0.005662  -0.000024
    16  H    0.000356   0.004356  -0.005632   0.585774  -0.000131  -0.000369
    17  H   -0.032292   0.361860  -0.005662  -0.000131   0.586519   0.000001
    18  F    0.002550  -0.000012  -0.000024  -0.000369   0.000001   9.093080
    19  F    0.295684  -0.044581  -0.000025   0.000001  -0.000624  -0.000001
    20  H    0.000000   0.000000   0.000000   0.000000   0.000000   0.000000
    21  H    0.000000   0.000000   0.000000   0.000000   0.000000   0.000000
    22  H    0.000000   0.000000   0.000000   0.000000   0.000000   0.000000
    23  H    0.000000   0.000000   0.000000   0.000000   0.000000  -0.000009
    24  H   -0.000007   0.000000   0.000000   0.000000   0.000000  -0.000017
    25  H    0.000000   0.000000   0.000000   0.000000   0.000000   0.000000
    26  H    0.000003   0.000000   0.000000   0.000000   0.000000   0.000000
    27  H    0.000045   0.000000   0.000000   0.000000   0.000000   0.000000
    28  H    0.000000   0.000000   0.000000   0.000000   0.000000   0.000000
    29  H    0.004834  -0.000202   0.000000   0.000002   0.000003   0.002991
    30  H   -0.007946   0.000454   0.000000   0.000001  -0.000008   0.000180
    31  H    0.000008   0.000000   0.000000   0.000000   0.000000  -0.000002
    32  C    0.000000   0.000000   0.000000   0.000000   0.000000  -0.000001
    33  H    0.000000   0.000000   0.000000   0.000000   0.000000   0.000000
    34  H    0.000002   0.000000   0.000000   0.000000   0.000000  -0.000012
    35  H    0.000000   0.000000   0.000000   0.000000   0.000000   0.000000
    36  H   -0.000297   0.000010   0.000000   0.000003   0.000000   0.010108
              19         20         21         22         23         24
     1  C    0.000000   0.376241   0.388654   0.386898  -0.036757  -0.036466
     2  C    0.000000  -0.024407  -0.033678  -0.036839   0.377694   0.380120
     3  C    0.000002   0.003573  -0.005131  -0.004759  -0.034690  -0.034393
     4  C    0.000000   0.000100   0.001556  -0.000948  -0.009816   0.004866
     5  C    0.000000   0.000000  -0.000084  -0.000052   0.000020  -0.000134
     6  O    0.000000   0.000000   0.000000   0.000000   0.000000   0.000000
     7  N   -0.000130  -0.000117  -0.000009   0.000047  -0.002685  -0.004260
     8  C   -0.005497  -0.000005   0.000001  -0.000009  -0.000094   0.001588
     9  C    0.003033   0.000000   0.000000   0.000000   0.000000   0.000000
    10  C    0.000012   0.000000   0.000000   0.000000   0.000000   0.000000
    11  C    0.002773   0.000000   0.000000   0.000000  -0.000006   0.000036
    12  C   -0.048853   0.000000   0.000000   0.000000  -0.000003  -0.000171
    13  C    0.295684   0.000000   0.000000   0.000000   0.000000  -0.000007
    14  C   -0.044581   0.000000   0.000000   0.000000   0.000000   0.000000
    15  H   -0.000025   0.000000   0.000000   0.000000   0.000000   0.000000
    16  H    0.000001   0.000000   0.000000   0.000000   0.000000   0.000000
    17  H   -0.000624   0.000000   0.000000   0.000000   0.000000   0.000000
    18  F   -0.000001   0.000000   0.000000   0.000000  -0.000009  -0.000017
    19  F    9.086517   0.000000   0.000000   0.000000   0.000000   0.000000
    20  H    0.000000   0.611328  -0.031108  -0.031791  -0.002417  -0.004533
    21  H    0.000000  -0.031108   0.598346  -0.033493  -0.005541   0.005130
    22  H    0.000000  -0.031791  -0.033493   0.607774   0.005393  -0.004048
    23  H    0.000000  -0.002417  -0.005541   0.005393   0.634922  -0.038930
    24  H    0.000000  -0.004533   0.005130  -0.004048  -0.038930   0.635920
    25  H    0.000000  -0.000037   0.002202   0.000539   0.000059   0.000058
    26  H    0.000001   0.000000   0.000009   0.000005   0.000002  -0.000001
    27  H    0.000000   0.000000  -0.000002   0.000001   0.000001   0.000002
    28  H    0.000000   0.000000   0.000000   0.000000   0.000000   0.000000
    29  H    0.000204   0.000028   0.000000   0.000007   0.000056   0.003164
    30  H    0.011076  -0.000001   0.000001  -0.000002   0.000031   0.000362
    31  H   -0.000020  -0.000078  -0.000253   0.005678   0.006318  -0.004837
    32  C    0.000000  -0.000018   0.000475   0.000072   0.003368   0.000058
    33  H    0.000000  -0.000017   0.000578  -0.000015   0.002421  -0.000063
    34  H    0.000000   0.000002  -0.000019  -0.000001   0.000161  -0.000030
    35  H    0.000000   0.000000  -0.000025   0.000001  -0.000143   0.000001
    36  H   -0.000010  -0.000002   0.000002   0.000019   0.005323  -0.000115
              25         26         27         28         29         30
     1  C    0.001653  -0.000017  -0.000013   0.000000  -0.000526   0.000025
     2  C   -0.005615   0.000105   0.000037   0.000003   0.002455  -0.000848
     3  C   -0.035128  -0.000298  -0.005165  -0.000247  -0.001936  -0.004853
     4  C    0.373332  -0.048429  -0.033146   0.005991  -0.000289   0.000287
     5  C   -0.043832   0.370836   0.367088  -0.024301   0.000018  -0.000055
     6  O    0.003805  -0.038831  -0.035501   0.285310   0.000000   0.000000
     7  N    0.004506  -0.000158   0.013739   0.000013  -0.046487  -0.045416
     8  C   -0.000147  -0.000003  -0.000357   0.000000   0.348432   0.374969
     9  C    0.000000   0.000000   0.000000   0.000000   0.000000  -0.000031
    10  C    0.000000   0.000000   0.000000   0.000000  -0.000159  -0.000147
    11  C    0.000000   0.000000  -0.000008   0.000000  -0.011340   0.005782
    12  C    0.000004  -0.000008   0.000048   0.000000  -0.032352  -0.029053
    13  C    0.000000   0.000003   0.000045   0.000000   0.004834  -0.007946
    14  C    0.000000   0.000000   0.000000   0.000000  -0.000202   0.000454
    15  H    0.000000   0.000000   0.000000   0.000000   0.000000   0.000000
    16  H    0.000000   0.000000   0.000000   0.000000   0.000002   0.000001
    17  H    0.000000   0.000000   0.000000   0.000000   0.000003  -0.000008
    18  F    0.000000   0.000000   0.000000   0.000000   0.002991   0.000180
    19  F    0.000000   0.000001   0.000000   0.000000   0.000204   0.011076
    20  H   -0.000037   0.000000   0.000000   0.000000   0.000028  -0.000001
    21  H    0.002202   0.000009  -0.000002   0.000000   0.000000   0.000001
    22  H    0.000539   0.000005   0.000001   0.000000   0.000007  -0.000002
    23  H    0.000059   0.000002   0.000001   0.000000   0.000056   0.000031
    24  H    0.000058  -0.000001   0.000002   0.000000   0.003164   0.000362
    25  H    0.656783  -0.006592   0.007531  -0.000118   0.000013  -0.000019
    26  H   -0.006592   0.691393  -0.053705  -0.001920   0.000008   0.000029
    27  H    0.007531  -0.053705   0.657766  -0.005772   0.000034  -0.000089
    28  H   -0.000118  -0.001920  -0.005772   0.422436   0.000000   0.000000
    29  H    0.000013   0.000008   0.000034   0.000000   0.683533  -0.046785
    30  H   -0.000019   0.000029  -0.000089   0.000000  -0.046785   0.608826
    31  H   -0.003577   0.007447  -0.000615  -0.000007  -0.000823   0.007180
    32  C   -0.047367   0.006474  -0.012034   0.000316  -0.000025   0.000007
    33  H   -0.004536  -0.000170  -0.000008   0.000007   0.000003  -0.000001
    34  H    0.005953  -0.000031   0.005588  -0.000018   0.000032  -0.000013
    35  H   -0.003149   0.000419  -0.000098  -0.000595   0.000000   0.000000
    36  H   -0.000096  -0.000007  -0.000139   0.000000  -0.006231   0.006478
              31         32         33         34         35         36
     1  C   -0.003868  -0.000738   0.000170   0.000002  -0.000001   0.000027
     2  C   -0.050923  -0.006774   0.001488  -0.000034   0.000086  -0.006232
     3  C    0.382959  -0.035279  -0.004221  -0.007203   0.004847  -0.036932
     4  C   -0.042241   0.361175  -0.029924  -0.036151  -0.031812  -0.003393
     5  C   -0.008550  -0.044967   0.004772  -0.005189  -0.007231  -0.000030
     6  O    0.000006  -0.003555   0.000096  -0.000113   0.012586  -0.000005
     7  N   -0.048748  -0.009939  -0.000068   0.006104   0.000031   0.327063
     8  C   -0.006744   0.000202  -0.000025  -0.000228   0.000000  -0.035858
     9  C    0.000000   0.000000   0.000000   0.000000   0.000000  -0.000019
    10  C    0.000000   0.000000   0.000000  -0.000001   0.000000   0.000026
    11  C   -0.000013  -0.000003   0.000000  -0.000018   0.000000   0.004422
    12  C    0.000232   0.000004   0.000000   0.000057   0.000000  -0.010107
    13  C    0.000008   0.000000   0.000000   0.000002   0.000000  -0.000297
    14  C    0.000000   0.000000   0.000000   0.000000   0.000000   0.000010
    15  H    0.000000   0.000000   0.000000   0.000000   0.000000   0.000000
    16  H    0.000000   0.000000   0.000000   0.000000   0.000000   0.000003
    17  H    0.000000   0.000000   0.000000   0.000000   0.000000   0.000000
    18  F   -0.000002  -0.000001   0.000000  -0.000012   0.000000   0.010108
    19  F   -0.000020   0.000000   0.000000   0.000000   0.000000  -0.000010
    20  H   -0.000078  -0.000018  -0.000017   0.000002   0.000000  -0.000002
    21  H   -0.000253   0.000475   0.000578  -0.000019  -0.000025   0.000002
    22  H    0.005678   0.000072  -0.000015  -0.000001   0.000001   0.000019
    23  H    0.006318   0.003368   0.002421   0.000161  -0.000143   0.005323
    24  H   -0.004837   0.000058  -0.000063  -0.000030   0.000001  -0.000115
    25  H   -0.003577  -0.047367  -0.004536   0.005953  -0.003149  -0.000096
    26  H    0.007447   0.006474  -0.000170  -0.000031   0.000419  -0.000007
    27  H   -0.000615  -0.012034  -0.000008   0.005588  -0.000098  -0.000139
    28  H   -0.000007   0.000316   0.000007  -0.000018  -0.000595   0.000000
    29  H   -0.000823  -0.000025   0.000003   0.000032   0.000000  -0.006231
    30  H    0.007180   0.000007  -0.000001  -0.000013   0.000000   0.006478
    31  H    0.662570   0.005733  -0.000037   0.000015  -0.000148   0.007077
    32  C    0.005733   4.976197   0.378707   0.378774   0.380452   0.003356
    33  H   -0.000037   0.378707   0.612887  -0.033025  -0.030033   0.000041
    34  H    0.000015   0.378774  -0.033025   0.613438  -0.030010   0.000751
    35  H   -0.000148   0.380452  -0.030033  -0.030010   0.588014  -0.000113
    36  H    0.007077   0.003356   0.000041   0.000751  -0.000113   0.489199
 Mulliken charges:
               1
     1  C   -0.327313
     2  C   -0.186209
     3  C    0.070822
     4  C   -0.061589
     5  C    0.068744
     6  O   -0.571583
     7  N   -0.527298
     8  C   -0.079193
     9  C   -0.100644
    10  C   -0.138469
    11  C    0.321659
    12  C   -0.022192
    13  C    0.315281
    14  C   -0.140517
    15  H    0.116981
    16  H    0.116756
    17  H    0.116128
    18  F   -0.303186
    19  F   -0.299564
    20  H    0.103259
    21  H    0.112389
    22  H    0.105524
    23  H    0.095323
    24  H    0.096700
    25  H    0.093777
    26  H    0.073440
    27  H    0.094773
    28  H    0.318903
    29  H    0.101340
    30  H    0.119579
    31  H    0.086259
    32  C   -0.334670
    33  H    0.100974
    34  H    0.101213
    35  H    0.116921
    36  H    0.245684
 Sum of Mulliken charges =   0.00000
 Mulliken charges with hydrogens summed into heavy atoms:
               1
     1  C   -0.006141
     2  C    0.005814
     3  C    0.157081
     4  C    0.032188
     5  C    0.236957
     6  O   -0.252681
     7  N   -0.281614
     8  C    0.141725
     9  C    0.016337
    10  C   -0.021714
    11  C    0.321659
    12  C   -0.022192
    13  C    0.315281
    14  C   -0.024389
    18  F   -0.303186
    19  F   -0.299564
    32  C   -0.015562
 Electronic spatial extent (au):  <R**2>=           5439.7949
 Charge=              0.0000 electrons
 Dipole moment (field-independent basis, Debye):
    X=              2.5614    Y=             -0.1758    Z=             -0.0698  Tot=              2.5683
 Quadrupole moment (field-independent basis, Debye-Ang):
   XX=            -97.9070   YY=            -95.6809   ZZ=           -100.7851
   XY=              4.0415   XZ=              6.4794   YZ=              0.5578
 Traceless Quadrupole moment (field-independent basis, Debye-Ang):
   XX=              0.2173   YY=              2.4434   ZZ=             -2.6607
   XY=              4.0415   XZ=              6.4794   YZ=              0.5578
 Octapole moment (field-independent basis, Debye-Ang**2):
  XXX=            122.6792  YYY=             48.9799  ZZZ=             -0.8787  XYY=            -10.0402
  XXY=             -1.8436  XXZ=             10.1734  XZZ=              5.8428  YZZ=             -2.1659
  YYZ=              3.9427  XYZ=              0.0322
 Hexadecapole moment (field-independent basis, Debye-Ang**3):
 XXXX=          -4888.1713 YYYY=          -1119.1141 ZZZZ=           -718.8350 XXXY=            134.6763
 XXXZ=            120.4978 YYYX=           -126.6818 YYYZ=              4.1435 ZZZX=             -1.3857
 ZZZY=            -34.5331 XXYY=          -1012.4566 XXZZ=           -946.6084 YYZZ=           -336.4007
 XXYZ=            -46.7817 YYXZ=            -19.2194 ZZXY=            -28.8756
 N-N= 1.250068826735D+03 E-N=-4.454378056991D+03  KE= 8.290943027602D+02
 1\1\GINC-SWANNODE-0-13\FOpt\RB3LYP\6-31G(d,p)\C13H19F2N1O1\KE291\06-Ma
 r-2019\0\\# b3lyp/6-31g(d,p) Opt=(maxcycles=50) scrf=(solvent=chlorofo
 rm)\\AT3_2ginp006\\0,1\C,-0.9562013546,-1.831945572,0.3914036031\C,-2.
 4223247781,-1.3844699739,0.3524077003\C,-3.0918524044,-1.2162028439,1.
 735705673\C,-2.4232862193,-0.1365296762,2.6236428261\C,-2.98278162,-0.
 194832274,4.0478705272\O,-2.1676872291,0.6273362085,4.887202545\N,-4.5
 440836186,-0.9604172589,1.6526289143\C,-5.3544060131,-2.1262166199,1.2
 785126114\C,-9.5821299136,-1.146089599,1.346825637\C,-8.7701499,-0.659
 1699883,0.320504927\C,-7.4238206444,-0.9966048043,0.3347921706\C,-6.82
 93566165,-1.7955938649,1.3129222474\C,-7.688784927,-2.2464677671,2.315
 8422743\C,-9.0462068467,-1.9466565948,2.3557355112\H,-10.6383678499,-0
 .8987112654,1.3602811322\H,-9.1593956171,-0.032695373,-0.4736209009\H,
 -9.6554784171,-2.3362905606,3.1630341292\F,-6.6224020938,-0.5208945564
 ,-0.6526413299\F,-7.1756806543,-3.0268060227,3.2954978647\H,-0.5827720
 442,-2.0269975005,-0.6190861207\H,-0.305392888,-1.0752501943,0.8400929
 926\H,-0.8400118825,-2.755296042,0.9706240765\H,-2.5076086059,-0.44443
 48489,-0.2081732745\H,-2.9974252764,-2.1260772843,-0.2149519392\H,-1.3
 594130292,-0.3959578658,2.7046265054\H,-2.9749551746,-1.237866333,4.40
 36442348\H,-4.0267280968,0.1439127614,4.0487495483\H,-2.6164983962,0.7
 110115557,5.7381280464\H,-5.11539058,-2.5309284228,0.2814575798\H,-5.1
 574278015,-2.922067314,2.0010928747\H,-2.9851321242,-2.172536982,2.269
 0850361\C,-2.5239747176,1.2868280338,2.0551924379\H,-2.0176125799,1.38
 18679633,1.0898054722\H,-3.5697536463,1.5875506618,1.9226513743\H,-2.0
 631572994,1.994606594,2.748442087\H,-4.7154471396,-0.2219073757,0.9733
 120052\\Version=EM64L-G09RevD.01\State=1-A\HF=-836.492311\RMSD=5.632e-
 09\RMSF=3.794e-06\Dipole=-0.9594717,-0.2233931,-0.2248275\Quadrupole=2
 .806695,-3.6749129,0.8682179,-4.3342673,-2.4470166,-0.4299257\PG=C01 [
 X(C13H19F2N1O1)]\\@


 The hours that make us happy make us wise.
                         -- John Masefield
 Job cpu time:       0 days  2 hours 31 minutes 40.1 seconds.
 File lengths (MBytes):  RWF=    290 Int=      0 D2E=      0 Chk=     13 Scr=      1
 Normal termination of Gaussian 09 at Wed Mar  6 12:14:49 2019.
