 Entering Gaussian System, Link 0=/usr/local/shared/gaussian/em64t/09-D01/g09/g09
 Initial command:
 /usr/local/shared/gaussian/em64t/09-D01/g09/l1.exe "/scratch/ke291/AT3_1ginp018/Gau-18842.inp" -scrdir="/scratch/ke291/AT3_1ginp018/"
 Entering Link 1 = /usr/local/shared/gaussian/em64t/09-D01/g09/l1.exe PID=     18853.
  
 Copyright (c) 1988,1990,1992,1993,1995,1998,2003,2009,2013,
            Gaussian, Inc.  All Rights Reserved.
  
 This is part of the Gaussian(R) 09 program.  It is based on
 the Gaussian(R) 03 system (copyright 2003, Gaussian, Inc.),
 the Gaussian(R) 98 system (copyright 1998, Gaussian, Inc.),
 the Gaussian(R) 94 system (copyright 1995, Gaussian, Inc.),
 the Gaussian 92(TM) system (copyright 1992, Gaussian, Inc.),
 the Gaussian 90(TM) system (copyright 1990, Gaussian, Inc.),
 the Gaussian 88(TM) system (copyright 1988, Gaussian, Inc.),
 the Gaussian 86(TM) system (copyright 1986, Carnegie Mellon
 University), and the Gaussian 82(TM) system (copyright 1983,
 Carnegie Mellon University). Gaussian is a federally registered
 trademark of Gaussian, Inc.
  
 This software contains proprietary and confidential information,
 including trade secrets, belonging to Gaussian, Inc.
  
 This software is provided under written license and may be
 used, copied, transmitted, or stored only in accord with that
 written license.
  
 The following legend is applicable only to US Government
 contracts under FAR:
  
                    RESTRICTED RIGHTS LEGEND
  
 Use, reproduction and disclosure by the US Government is
 subject to restrictions as set forth in subparagraphs (a)
 and (c) of the Commercial Computer Software - Restricted
 Rights clause in FAR 52.227-19.
  
 Gaussian, Inc.
 340 Quinnipiac St., Bldg. 40, Wallingford CT 06492
  
  
 ---------------------------------------------------------------
 Warning -- This program may not be used in any manner that
 competes with the business of Gaussian, Inc. or will provide
 assistance to any competitor of Gaussian, Inc.  The licensee
 of this program is prohibited from giving any competitor of
 Gaussian, Inc. access to this program.  By using this program,
 the user acknowledges that Gaussian, Inc. is engaged in the
 business of creating and licensing software in the field of
 computational chemistry and represents and warrants to the
 licensee that it is not a competitor of Gaussian, Inc. and that
 it will not use this program in any manner prohibited above.
 ---------------------------------------------------------------
  

 Cite this work as:
 Gaussian 09, Revision D.01,
 M. J. Frisch, G. W. Trucks, H. B. Schlegel, G. E. Scuseria, 
 M. A. Robb, J. R. Cheeseman, G. Scalmani, V. Barone, B. Mennucci, 
 G. A. Petersson, H. Nakatsuji, M. Caricato, X. Li, H. P. Hratchian, 
 A. F. Izmaylov, J. Bloino, G. Zheng, J. L. Sonnenberg, M. Hada, 
 M. Ehara, K. Toyota, R. Fukuda, J. Hasegawa, M. Ishida, T. Nakajima, 
 Y. Honda, O. Kitao, H. Nakai, T. Vreven, J. A. Montgomery, Jr., 
 J. E. Peralta, F. Ogliaro, M. Bearpark, J. J. Heyd, E. Brothers, 
 K. N. Kudin, V. N. Staroverov, T. Keith, R. Kobayashi, J. Normand, 
 K. Raghavachari, A. Rendell, J. C. Burant, S. S. Iyengar, J. Tomasi, 
 M. Cossi, N. Rega, J. M. Millam, M. Klene, J. E. Knox, J. B. Cross, 
 V. Bakken, C. Adamo, J. Jaramillo, R. Gomperts, R. E. Stratmann, 
 O. Yazyev, A. J. Austin, R. Cammi, C. Pomelli, J. W. Ochterski, 
 R. L. Martin, K. Morokuma, V. G. Zakrzewski, G. A. Voth, 
 P. Salvador, J. J. Dannenberg, S. Dapprich, A. D. Daniels, 
 O. Farkas, J. B. Foresman, J. V. Ortiz, J. Cioslowski, 
 and D. J. Fox, Gaussian, Inc., Wallingford CT, 2013.
 
 ******************************************
 Gaussian 09:  EM64L-G09RevD.01 24-Apr-2013
                 6-Mar-2019 
 ******************************************
 %nprocshared=2
 Will use up to    2 processors via shared memory.
 %mem=6000MB
 %chk=AT3_1ginp018.chk
 ---------------------------------------------------------------
 # b3lyp/6-31g(d,p) Opt=(maxcycles=50) scrf=(solvent=chloroform)
 ---------------------------------------------------------------
 1/6=50,14=-1,18=20,19=15,26=3,38=1/1,3;
 2/9=110,12=2,17=6,18=5,40=1/2;
 3/5=1,6=6,7=101,11=2,16=1,25=1,30=1,70=2201,71=1,72=7,74=-5/1,2,3;
 4//1;
 5/5=2,38=5,53=7/2;
 6/7=2,8=2,9=2,10=2,28=1/1;
 7//1,2,3,16;
 1/6=50,14=-1,18=20,19=15,26=3/3(2);
 2/9=110/2;
 99//99;
 2/9=110/2;
 3/5=1,6=6,7=101,11=2,16=1,25=1,30=1,70=2205,71=1,72=7,74=-5/1,2,3;
 4/5=5,16=3,69=1/1;
 5/5=2,38=5,53=7/2;
 7//1,2,3,16;
 1/6=50,14=-1,18=20,19=15,26=3/3(-5);
 2/9=110/2;
 6/7=2,8=2,9=2,10=2,19=2,28=1/1;
 99/9=1/99;
 ------------
 AT3_1ginp018
 ------------
 Symbolic Z-matrix:
 Charge =  0 Multiplicity = 1
 C                    -2.01488   0.42335   0.48693 
 C                    -1.21251  -0.02429   1.70192 
 C                    -0.39634   1.08521   2.41066 
 C                    -1.27499   2.24373   2.97705 
 C                    -0.43981   3.34866   3.65609 
 O                     0.41336   2.82239   4.66437 
 N                     0.63806   1.66953   1.54065 
 C                     1.73224   0.75097   1.22815 
 C                     4.95176   2.89059  -0.69632 
 C                     4.96882   2.69004   0.68327 
 C                     3.92755   1.99403   1.29671 
 C                     2.85924   1.48216   0.5588 
 C                     2.85727   1.70015  -0.81982 
 C                     3.88977   2.39351  -1.45025 
 H                     5.75949   3.43399  -1.17989 
 H                     5.78486   3.07287   1.28904 
 H                     3.8557    2.5434   -2.52523 
 F                     3.97097   1.81561   2.62516 
 F                     1.8428    1.23877  -1.56608 
 H                    -1.37009   0.83164  -0.29642 
 H                    -2.5479   -0.43288   0.06014 
 H                    -2.76288   1.17563   0.75165 
 H                    -1.89651  -0.49051   2.42034 
 H                    -0.54114  -0.83419   1.39218 
 H                    -1.82082   2.72463   2.15515 
 H                    -1.09643   4.08793   4.12756 
 H                     0.17407   3.89312   2.93015 
 H                     1.17023   2.42847   4.19082 
 H                     2.10927   0.27418   2.14144 
 H                     1.39375  -0.05909   0.57178 
 H                     0.10318   0.61056   3.26622 
 C                    -2.31578   1.71969   3.97774 
 H                    -1.84385   1.14314   4.78025 
 H                    -2.86726   2.54779   4.4364 
 H                    -3.05665   1.08198   3.48669 
 H                     0.22362   2.00095   0.66961 
 

 GradGradGradGradGradGradGradGradGradGradGradGradGradGradGradGradGradGrad
 Berny optimization.
 Initialization pass.
                           ----------------------------
                           !    Initial Parameters    !
                           ! (Angstroms and Degrees)  !
 --------------------------                            --------------------------
 ! Name  Definition              Value          Derivative Info.                !
 --------------------------------------------------------------------------------
 ! R1    R(1,2)                  1.5233         estimate D2E/DX2                !
 ! R2    R(1,20)                 1.0937         estimate D2E/DX2                !
 ! R3    R(1,21)                 1.0952         estimate D2E/DX2                !
 ! R4    R(1,22)                 1.0934         estimate D2E/DX2                !
 ! R5    R(2,3)                  1.549          estimate D2E/DX2                !
 ! R6    R(2,23)                 1.0961         estimate D2E/DX2                !
 ! R7    R(2,24)                 1.0966         estimate D2E/DX2                !
 ! R8    R(3,4)                  1.5605         estimate D2E/DX2                !
 ! R9    R(3,7)                  1.4725         estimate D2E/DX2                !
 ! R10   R(3,31)                 1.0985         estimate D2E/DX2                !
 ! R11   R(4,5)                  1.5426         estimate D2E/DX2                !
 ! R12   R(4,25)                 1.0976         estimate D2E/DX2                !
 ! R13   R(4,32)                 1.536          estimate D2E/DX2                !
 ! R14   R(5,6)                  1.4218         estimate D2E/DX2                !
 ! R15   R(5,26)                 1.0954         estimate D2E/DX2                !
 ! R16   R(5,27)                 1.0956         estimate D2E/DX2                !
 ! R17   R(6,28)                 0.9758         estimate D2E/DX2                !
 ! R18   R(7,8)                  1.4624         estimate D2E/DX2                !
 ! R19   R(7,36)                 1.02           estimate D2E/DX2                !
 ! R20   R(8,12)                 1.5009         estimate D2E/DX2                !
 ! R21   R(8,29)                 1.0971         estimate D2E/DX2                !
 ! R22   R(8,30)                 1.0962         estimate D2E/DX2                !
 ! R23   R(9,10)                 1.3942         estimate D2E/DX2                !
 ! R24   R(9,14)                 1.394          estimate D2E/DX2                !
 ! R25   R(9,15)                 1.087          estimate D2E/DX2                !
 ! R26   R(10,11)                1.3946         estimate D2E/DX2                !
 ! R27   R(10,16)                1.086          estimate D2E/DX2                !
 ! R28   R(11,12)                1.3956         estimate D2E/DX2                !
 ! R29   R(11,18)                1.3411         estimate D2E/DX2                !
 ! R30   R(12,13)                1.3957         estimate D2E/DX2                !
 ! R31   R(13,14)                1.3944         estimate D2E/DX2                !
 ! R32   R(13,19)                1.3412         estimate D2E/DX2                !
 ! R33   R(14,17)                1.0859         estimate D2E/DX2                !
 ! R34   R(32,33)                1.0951         estimate D2E/DX2                !
 ! R35   R(32,34)                1.0956         estimate D2E/DX2                !
 ! R36   R(32,35)                1.0939         estimate D2E/DX2                !
 ! A1    A(2,1,20)             111.744          estimate D2E/DX2                !
 ! A2    A(2,1,21)             109.7214         estimate D2E/DX2                !
 ! A3    A(2,1,22)             111.6802         estimate D2E/DX2                !
 ! A4    A(20,1,21)            107.4388         estimate D2E/DX2                !
 ! A5    A(20,1,22)            108.6558         estimate D2E/DX2                !
 ! A6    A(21,1,22)            107.4165         estimate D2E/DX2                !
 ! A7    A(1,2,3)              115.5945         estimate D2E/DX2                !
 ! A8    A(1,2,23)             108.608          estimate D2E/DX2                !
 ! A9    A(1,2,24)             108.3138         estimate D2E/DX2                !
 ! A10   A(3,2,23)             109.4863         estimate D2E/DX2                !
 ! A11   A(3,2,24)             109.6113         estimate D2E/DX2                !
 ! A12   A(23,2,24)            104.6572         estimate D2E/DX2                !
 ! A13   A(2,3,4)              113.6507         estimate D2E/DX2                !
 ! A14   A(2,3,7)              112.5832         estimate D2E/DX2                !
 ! A15   A(2,3,31)             106.6453         estimate D2E/DX2                !
 ! A16   A(4,3,7)              108.3845         estimate D2E/DX2                !
 ! A17   A(4,3,31)             107.1054         estimate D2E/DX2                !
 ! A18   A(7,3,31)             108.191          estimate D2E/DX2                !
 ! A19   A(3,4,5)              112.7499         estimate D2E/DX2                !
 ! A20   A(3,4,25)             109.4813         estimate D2E/DX2                !
 ! A21   A(3,4,32)             111.3903         estimate D2E/DX2                !
 ! A22   A(5,4,25)             106.5616         estimate D2E/DX2                !
 ! A23   A(5,4,32)             108.9333         estimate D2E/DX2                !
 ! A24   A(25,4,32)            107.4799         estimate D2E/DX2                !
 ! A25   A(4,5,6)              111.8349         estimate D2E/DX2                !
 ! A26   A(4,5,26)             110.3849         estimate D2E/DX2                !
 ! A27   A(4,5,27)             111.5714         estimate D2E/DX2                !
 ! A28   A(6,5,26)             107.7145         estimate D2E/DX2                !
 ! A29   A(6,5,27)             108.5191         estimate D2E/DX2                !
 ! A30   A(26,5,27)            106.5993         estimate D2E/DX2                !
 ! A31   A(5,6,28)             105.7063         estimate D2E/DX2                !
 ! A32   A(3,7,8)              113.7408         estimate D2E/DX2                !
 ! A33   A(3,7,36)             110.3692         estimate D2E/DX2                !
 ! A34   A(8,7,36)             109.0038         estimate D2E/DX2                !
 ! A35   A(7,8,12)             110.5552         estimate D2E/DX2                !
 ! A36   A(7,8,29)             110.6234         estimate D2E/DX2                !
 ! A37   A(7,8,30)             111.167          estimate D2E/DX2                !
 ! A38   A(12,8,29)            108.9604         estimate D2E/DX2                !
 ! A39   A(12,8,30)            108.9554         estimate D2E/DX2                !
 ! A40   A(29,8,30)            106.4647         estimate D2E/DX2                !
 ! A41   A(10,9,14)            119.5507         estimate D2E/DX2                !
 ! A42   A(10,9,15)            120.2006         estimate D2E/DX2                !
 ! A43   A(14,9,15)            120.2483         estimate D2E/DX2                !
 ! A44   A(9,10,11)            119.8614         estimate D2E/DX2                !
 ! A45   A(9,10,16)            120.6924         estimate D2E/DX2                !
 ! A46   A(11,10,16)           119.446          estimate D2E/DX2                !
 ! A47   A(10,11,12)           121.4663         estimate D2E/DX2                !
 ! A48   A(10,11,18)           118.551          estimate D2E/DX2                !
 ! A49   A(12,11,18)           119.9821         estimate D2E/DX2                !
 ! A50   A(8,12,11)            121.1747         estimate D2E/DX2                !
 ! A51   A(8,12,13)            121.0314         estimate D2E/DX2                !
 ! A52   A(11,12,13)           117.7769         estimate D2E/DX2                !
 ! A53   A(12,13,14)           121.5472         estimate D2E/DX2                !
 ! A54   A(12,13,19)           119.7958         estimate D2E/DX2                !
 ! A55   A(14,13,19)           118.6569         estimate D2E/DX2                !
 ! A56   A(9,14,13)            119.7945         estimate D2E/DX2                !
 ! A57   A(9,14,17)            120.6684         estimate D2E/DX2                !
 ! A58   A(13,14,17)           119.5367         estimate D2E/DX2                !
 ! A59   A(4,32,33)            111.4113         estimate D2E/DX2                !
 ! A60   A(4,32,34)            110.8522         estimate D2E/DX2                !
 ! A61   A(4,32,35)            111.4297         estimate D2E/DX2                !
 ! A62   A(33,32,34)           107.9443         estimate D2E/DX2                !
 ! A63   A(33,32,35)           108.2948         estimate D2E/DX2                !
 ! A64   A(34,32,35)           106.7169         estimate D2E/DX2                !
 ! D1    D(20,1,2,3)            60.6685         estimate D2E/DX2                !
 ! D2    D(20,1,2,23)         -175.8577         estimate D2E/DX2                !
 ! D3    D(20,1,2,24)          -62.7364         estimate D2E/DX2                !
 ! D4    D(21,1,2,3)           179.7282         estimate D2E/DX2                !
 ! D5    D(21,1,2,23)          -56.798          estimate D2E/DX2                !
 ! D6    D(21,1,2,24)           56.3233         estimate D2E/DX2                !
 ! D7    D(22,1,2,3)           -61.2801         estimate D2E/DX2                !
 ! D8    D(22,1,2,23)           62.1936         estimate D2E/DX2                !
 ! D9    D(22,1,2,24)          175.3149         estimate D2E/DX2                !
 ! D10   D(1,2,3,4)             61.1549         estimate D2E/DX2                !
 ! D11   D(1,2,3,7)            -62.5594         estimate D2E/DX2                !
 ! D12   D(1,2,3,31)           178.9349         estimate D2E/DX2                !
 ! D13   D(23,2,3,4)           -61.8562         estimate D2E/DX2                !
 ! D14   D(23,2,3,7)           174.4295         estimate D2E/DX2                !
 ! D15   D(23,2,3,31)           55.9237         estimate D2E/DX2                !
 ! D16   D(24,2,3,4)          -176.125          estimate D2E/DX2                !
 ! D17   D(24,2,3,7)            60.1607         estimate D2E/DX2                !
 ! D18   D(24,2,3,31)          -58.3451         estimate D2E/DX2                !
 ! D19   D(2,3,4,5)           -178.986          estimate D2E/DX2                !
 ! D20   D(2,3,4,25)           -60.5482         estimate D2E/DX2                !
 ! D21   D(2,3,4,32)            58.1859         estimate D2E/DX2                !
 ! D22   D(7,3,4,5)            -53.0177         estimate D2E/DX2                !
 ! D23   D(7,3,4,25)            65.4201         estimate D2E/DX2                !
 ! D24   D(7,3,4,32)          -175.8458         estimate D2E/DX2                !
 ! D25   D(31,3,4,5)            63.5005         estimate D2E/DX2                !
 ! D26   D(31,3,4,25)         -178.0617         estimate D2E/DX2                !
 ! D27   D(31,3,4,32)          -59.3275         estimate D2E/DX2                !
 ! D28   D(2,3,7,8)            -68.6251         estimate D2E/DX2                !
 ! D29   D(2,3,7,36)            54.2467         estimate D2E/DX2                !
 ! D30   D(4,3,7,8)            164.7858         estimate D2E/DX2                !
 ! D31   D(4,3,7,36)           -72.3425         estimate D2E/DX2                !
 ! D32   D(31,3,7,8)            48.9705         estimate D2E/DX2                !
 ! D33   D(31,3,7,36)          171.8422         estimate D2E/DX2                !
 ! D34   D(3,4,5,6)            -54.3344         estimate D2E/DX2                !
 ! D35   D(3,4,5,26)          -174.2405         estimate D2E/DX2                !
 ! D36   D(3,4,5,27)            67.4246         estimate D2E/DX2                !
 ! D37   D(25,4,5,6)          -174.4661         estimate D2E/DX2                !
 ! D38   D(25,4,5,26)           65.6278         estimate D2E/DX2                !
 ! D39   D(25,4,5,27)          -52.7072         estimate D2E/DX2                !
 ! D40   D(32,4,5,6)            69.8564         estimate D2E/DX2                !
 ! D41   D(32,4,5,26)          -50.0497         estimate D2E/DX2                !
 ! D42   D(32,4,5,27)         -168.3847         estimate D2E/DX2                !
 ! D43   D(3,4,32,33)           54.718          estimate D2E/DX2                !
 ! D44   D(3,4,32,34)          174.9492         estimate D2E/DX2                !
 ! D45   D(3,4,32,35)          -66.3546         estimate D2E/DX2                !
 ! D46   D(5,4,32,33)          -70.2721         estimate D2E/DX2                !
 ! D47   D(5,4,32,34)           49.959          estimate D2E/DX2                !
 ! D48   D(5,4,32,35)          168.6553         estimate D2E/DX2                !
 ! D49   D(25,4,32,33)         174.6429         estimate D2E/DX2                !
 ! D50   D(25,4,32,34)         -65.126          estimate D2E/DX2                !
 ! D51   D(25,4,32,35)          53.5703         estimate D2E/DX2                !
 ! D52   D(4,5,6,28)            78.1492         estimate D2E/DX2                !
 ! D53   D(26,5,6,28)         -160.3905         estimate D2E/DX2                !
 ! D54   D(27,5,6,28)          -45.3494         estimate D2E/DX2                !
 ! D55   D(3,7,8,12)          -169.5556         estimate D2E/DX2                !
 ! D56   D(3,7,8,29)           -48.7659         estimate D2E/DX2                !
 ! D57   D(3,7,8,30)            69.2986         estimate D2E/DX2                !
 ! D58   D(36,7,8,12)           66.8273         estimate D2E/DX2                !
 ! D59   D(36,7,8,29)         -172.3829         estimate D2E/DX2                !
 ! D60   D(36,7,8,30)          -54.3185         estimate D2E/DX2                !
 ! D61   D(7,8,12,11)           93.4078         estimate D2E/DX2                !
 ! D62   D(7,8,12,13)          -85.0603         estimate D2E/DX2                !
 ! D63   D(29,8,12,11)         -28.367          estimate D2E/DX2                !
 ! D64   D(29,8,12,13)         153.165          estimate D2E/DX2                !
 ! D65   D(30,8,12,11)        -144.1437         estimate D2E/DX2                !
 ! D66   D(30,8,12,13)          37.3883         estimate D2E/DX2                !
 ! D67   D(14,9,10,11)           0.0955         estimate D2E/DX2                !
 ! D68   D(14,9,10,16)        -179.742          estimate D2E/DX2                !
 ! D69   D(15,9,10,11)         179.879          estimate D2E/DX2                !
 ! D70   D(15,9,10,16)           0.0416         estimate D2E/DX2                !
 ! D71   D(10,9,14,13)          -0.0877         estimate D2E/DX2                !
 ! D72   D(10,9,14,17)         179.7053         estimate D2E/DX2                !
 ! D73   D(15,9,14,13)        -179.8711         estimate D2E/DX2                !
 ! D74   D(15,9,14,17)          -0.0781         estimate D2E/DX2                !
 ! D75   D(9,10,11,12)           0.2613         estimate D2E/DX2                !
 ! D76   D(9,10,11,18)         179.9618         estimate D2E/DX2                !
 ! D77   D(16,10,11,12)       -179.8991         estimate D2E/DX2                !
 ! D78   D(16,10,11,18)         -0.1987         estimate D2E/DX2                !
 ! D79   D(10,11,12,8)        -179.1227         estimate D2E/DX2                !
 ! D80   D(10,11,12,13)         -0.6064         estimate D2E/DX2                !
 ! D81   D(18,11,12,8)           1.1811         estimate D2E/DX2                !
 ! D82   D(18,11,12,13)        179.6974         estimate D2E/DX2                !
 ! D83   D(8,12,13,14)         179.1334         estimate D2E/DX2                !
 ! D84   D(8,12,13,19)          -0.748          estimate D2E/DX2                !
 ! D85   D(11,12,13,14)          0.6149         estimate D2E/DX2                !
 ! D86   D(11,12,13,19)       -179.2666         estimate D2E/DX2                !
 ! D87   D(12,13,14,9)          -0.2775         estimate D2E/DX2                !
 ! D88   D(12,13,14,17)        179.9272         estimate D2E/DX2                !
 ! D89   D(19,13,14,9)         179.6053         estimate D2E/DX2                !
 ! D90   D(19,13,14,17)         -0.19           estimate D2E/DX2                !
 --------------------------------------------------------------------------------
 Trust Radius=3.00D-01 FncErr=1.00D-07 GrdErr=1.00D-06
 Number of steps in this run=     50 maximum allowed number of steps=    216.
 GradGradGradGradGradGradGradGradGradGradGradGradGradGradGradGradGradGrad

                          Input orientation:                          
 ---------------------------------------------------------------------
 Center     Atomic      Atomic             Coordinates (Angstroms)
 Number     Number       Type             X           Y           Z
 ---------------------------------------------------------------------
      1          6           0       -2.014879    0.423348    0.486933
      2          6           0       -1.212513   -0.024286    1.701915
      3          6           0       -0.396338    1.085213    2.410655
      4          6           0       -1.274994    2.243731    2.977051
      5          6           0       -0.439808    3.348660    3.656091
      6          8           0        0.413361    2.822388    4.664366
      7          7           0        0.638058    1.669528    1.540652
      8          6           0        1.732237    0.750971    1.228151
      9          6           0        4.951756    2.890593   -0.696318
     10          6           0        4.968816    2.690042    0.683271
     11          6           0        3.927550    1.994032    1.296707
     12          6           0        2.859239    1.482160    0.558803
     13          6           0        2.857271    1.700150   -0.819816
     14          6           0        3.889773    2.393510   -1.450252
     15          1           0        5.759485    3.433989   -1.179889
     16          1           0        5.784863    3.072875    1.289039
     17          1           0        3.855702    2.543398   -2.525232
     18          9           0        3.970966    1.815614    2.625160
     19          9           0        1.842799    1.238767   -1.566083
     20          1           0       -1.370086    0.831640   -0.296420
     21          1           0       -2.547896   -0.432883    0.060141
     22          1           0       -2.762876    1.175635    0.751650
     23          1           0       -1.896512   -0.490512    2.420342
     24          1           0       -0.541140   -0.834186    1.392177
     25          1           0       -1.820822    2.724629    2.155146
     26          1           0       -1.096431    4.087930    4.127561
     27          1           0        0.174066    3.893118    2.930145
     28          1           0        1.170234    2.428465    4.190824
     29          1           0        2.109270    0.274176    2.141441
     30          1           0        1.393752   -0.059093    0.571779
     31          1           0        0.103175    0.610556    3.266224
     32          6           0       -2.315776    1.719690    3.977735
     33          1           0       -1.843849    1.143138    4.780249
     34          1           0       -2.867261    2.547794    4.436400
     35          1           0       -3.056650    1.081981    3.486692
     36          1           0        0.223615    2.000955    0.669612
 ---------------------------------------------------------------------
                    Distance matrix (angstroms):
                    1          2          3          4          5
     1  C    0.000000
     2  C    1.523269   0.000000
     3  C    2.599701   1.549013   0.000000
     4  C    3.172052   2.602648   1.560450   0.000000
     5  C    4.591499   3.973996   2.583833   1.542563   0.000000
     6  O    5.394691   4.418499   2.958480   2.456098   1.421787
     7  N    3.114701   2.513886   1.472516   2.460227   2.907982
     8  C    3.833747   3.081725   2.457817   3.785554   4.166613
     9  C    7.484743   7.228157   6.443197   7.258408   6.944224
    10  C    7.344961   6.827448   5.860393   6.666767   6.206823
    11  C    6.199616   5.536971   4.556626   5.472876   5.145437
    12  C    4.988314   4.489460   3.766391   4.849721   4.894969
    13  C    5.203428   5.088806   4.626020   5.638022   5.798453
    14  C    6.519136   6.466469   5.915149   6.804283   6.762568
    15  H    8.501940   8.298989   7.503527   8.257164   7.862901
    16  H    8.276433   7.663298   6.589087   7.306055   6.665247
    17  H    6.930474   7.081566   6.676011   7.529207   7.570245
    18  F    6.506978   5.577281   4.433153   5.275150   4.782047
    19  F    4.445387   4.648661   4.566373   5.600951   6.077256
    20  H    1.093665   2.179629   2.888034   3.566322   4.777358
    21  H    1.095167   2.155370   3.529693   4.158474   5.628051
    22  H    1.093394   2.178632   2.891535   2.882192   4.307489
    23  H    2.141780   1.096065   2.175667   2.858722   4.288159
    24  H    2.138402   1.096639   2.177695   3.538918   4.757287
    25  H    2.848945   2.851665   2.186807   1.097597   2.132944
    26  H    5.246607   4.775725   3.529052   2.180969   1.095426
    27  H    4.774942   4.333267   2.911969   2.196008   1.095570
    28  H    5.280554   4.229437   2.725340   2.736149   1.930009
    29  H    4.446150   3.364001   2.647325   4.003827   4.271348
    30  H    3.443648   2.840957   2.809862   4.267381   4.948505
    31  H    3.499380   2.140356   1.098549   2.156440   2.818517
    32  C    3.735872   3.072133   2.557840   1.535974   2.505245
    33  H    4.356594   3.352254   2.777340   2.187790   2.845943
    34  H    4.564878   4.102584   3.514007   2.181162   2.672601
    35  H    3.243091   2.794655   2.869691   2.187166   3.466178
    36  H    2.744644   2.688813   2.062561   2.762072   3.342977
                    6          7          8          9         10
     6  O    0.000000
     7  N    3.337239   0.000000
     8  C    4.223479   1.462406   0.000000
     9  C    7.024145   5.010292   4.318202   0.000000
    10  C    6.051347   4.531227   3.812130   1.394194   0.000000
    11  C    4.937289   3.314449   2.523747   2.413497   1.394621
    12  C    4.963283   2.435730   1.500932   2.817382   2.434088
    13  C    6.108058   3.240008   2.522065   2.412317   2.774487
    14  C    7.046838   4.476975   3.811396   1.394029   2.409188
    15  H    7.944206   6.061657   5.405180   1.086990   2.156381
    16  H    6.348906   5.340627   4.671052   2.160772   1.086024
    17  H    7.976081   5.258165   4.670094   2.160279   3.399267
    18  F    4.222382   3.507959   2.845524   3.626258   2.351863
    19  F    6.585563   3.359875   2.838646   3.626380   4.115553
    20  H    5.634994   2.847724   3.457634   6.660698   6.677959
    21  H    6.369044   4.094185   4.591873   8.237870   8.163450
    22  H    5.301851   3.526019   4.540202   8.034503   7.878906
    23  H    4.620223   3.444368   4.016269   8.248892   7.763122
    24  H    4.998883   2.771486   2.776305   6.957564   6.578932
    25  H    3.361148   2.745347   4.168798   7.350252   6.947431
    26  H    2.041869   3.943250   5.248165   7.828409   7.113680
    27  H    2.052132   2.662768   3.898432   6.081333   5.430052
    28  H    0.975845   2.807598   3.450690   6.196582   5.176927
    29  H    3.966692   2.114810   1.097081   4.793562   4.017421
    30  H    5.100330   2.120830   1.096175   4.792506   4.511237
    31  H    2.634999   2.094068   2.612910   6.664011   5.888155
    32  C    3.022514   3.829755   4.988491   8.719794   8.053593
    33  H    2.815725   4.114844   5.055649   8.900934   8.098799
    34  H    3.299977   4.630763   5.888702   9.359451   8.689667
    35  H    4.056712   4.217007   5.305093   9.214294   8.651771
    36  H    4.082746   1.019960   2.037245   5.001254   4.794993
                   11         12         13         14         15
    11  C    0.000000
    12  C    1.395637   0.000000
    13  C    2.389881   1.395748   0.000000
    14  C    2.776111   2.434925   1.394367   0.000000
    15  H    3.400440   3.904371   3.399808   2.156737   0.000000
    16  H    2.147923   3.409237   3.860368   3.399503   2.495326
    17  H    3.861889   3.410343   2.148575   1.085914   2.495494
    18  F    1.341084   2.370013   3.622362   4.116982   4.505145
    19  F    3.621074   2.368023   1.341246   2.353073   4.506504
    20  H    5.652801   4.363688   4.347275   5.606860   7.640911
    21  H    7.024985   5.757878   5.877073   7.191201   9.246781
    22  H    6.762297   5.633766   5.859238   7.112618   9.025610
    23  H    6.430802   5.474845   6.155979   7.535262   9.326182
    24  H    5.289340   4.197922   4.781733   6.174983   8.033101
    25  H    5.857855   5.098530   5.637775   6.761614   8.311841
    26  H    6.135025   5.930716   6.768293   7.671068   8.694840
    27  H    4.512570   4.318117   5.105968   5.936597   6.949826
    28  H    4.020875   4.115800   5.336951   6.262496   7.135605
    29  H    2.641519   2.127539   3.370749   4.534537   5.860010
    30  H    3.340805   2.126801   2.678313   4.041533   5.859146
    31  H    4.518722   3.960519   5.046581   6.305743   7.728747
    32  C    6.800169   6.206956   7.055302   8.271996   9.733948
    33  H    6.794714   6.328869   7.332907   8.559030   9.928843
    34  H    7.505583   6.997438   7.817709   8.962923  10.331931
    35  H    7.376105   6.612898   7.341839   8.622431  10.248568
    36  H    3.756652   2.688483   3.040563   4.253074   6.010000
                   16         17         18         19         20
    16  H    0.000000
    17  H    4.307049   0.000000
    18  F    2.579951   5.202835   0.000000
    19  F    5.201494   2.583371   4.735859   0.000000
    20  H    7.663557   5.933513   6.166901   3.478567   0.000000
    21  H    9.123344   7.519872   7.357352   4.971642   1.764480
    22  H    8.772237   7.510946   7.018849   5.156366   1.776696
    23  H    8.542897   8.170146   6.307731   5.732751   3.066921
    24  H    7.435999   6.788695   5.375945   4.328002   2.512665
    25  H    7.662758   7.359464   5.881499   5.429314   3.129975
    26  H    7.512639   8.436164   5.753185   7.012445   5.499993
    27  H    5.903141   6.718432   4.338835   5.481452   4.708267
    28  H    5.489118   7.233972   3.266648   5.916900   5.398003
    29  H    4.697796   5.475147   2.464940   3.840205   4.284840
    30  H    5.441097   4.735571   3.791165   2.540972   3.030837
    31  H    6.500296   7.166471   4.101577   5.174179   3.861581
    32  C    8.641791   9.003011   6.431313   6.946866   4.466695
    33  H    8.608698   9.371001   6.237684   7.340058   5.108234
    34  H    9.221759   9.677942   7.111823   7.741319   5.252266
    35  H    9.325540   9.276830   7.118135   7.039866   4.149591
    36  H    5.697384   4.867579   4.230976   2.863742   2.200091
                   21         22         23         24         25
    21  H    0.000000
    22  H    1.764010   0.000000
    23  H    2.449116   2.512203   0.000000
    24  H    2.441810   3.063620   1.735589   0.000000
    25  H    3.858441   2.292738   3.226947   3.858092   0.000000
    26  H    6.252072   4.759756   4.951450   5.658436   2.504746
    27  H    5.861765   4.555895   4.874772   5.022377   2.438354
    28  H    6.250948   5.372788   4.589114   4.626675   3.630167
    29  H    5.149848   5.146062   4.087643   2.968928   4.631472
    30  H    3.992253   4.339869   3.798571   2.240006   4.537581
    31  H    4.289045   3.854432   2.434464   2.452442   3.066849
    32  C    4.476047   3.302048   2.736101   4.044345   2.139325
    33  H    5.025828   4.132224   2.870670   4.133509   3.064769
    34  H    5.304533   3.933332   3.773347   5.110374   2.516034
    35  H    3.780859   2.752368   2.226153   3.792951   2.449199
    36  H    3.738488   3.099518   3.710445   3.024066   2.628733
                   26         27         28         29         30
    26  H    0.000000
    27  H    1.756679   0.000000
    28  H    2.809910   2.174137   0.000000
    29  H    5.363386   4.178972   3.118128   0.000000
    30  H    6.003532   4.761249   4.397203   1.756950   0.000000
    31  H    3.777974   3.300483   2.301802   2.324372   3.061707
    32  C    2.667923   3.467066   3.563711   5.004250   5.340899
    33  H    3.107481   3.880368   3.329292   4.831724   5.444138
    34  H    2.367116   3.650804   4.046716   5.933130   6.315646
    35  H    3.645394   4.318537   4.491700   5.398979   5.441034
    36  H    4.249164   2.948346   3.671210   2.950210   2.371200
                   31         32         33         34         35
    31  H    0.000000
    32  C    2.754587   0.000000
    33  H    2.523255   1.095060   0.000000
    34  H    3.734393   1.095566   1.771627   0.000000
    35  H    3.202396   1.093933   1.774237   1.756821   0.000000
    36  H    2.947899   4.179868   4.680555   4.903187   4.420474
                   36
    36  H    0.000000
 Stoichiometry    C13H19F2NO
 Framework group  C1[X(C13H19F2NO)]
 Deg. of freedom   102
 Full point group                 C1      NOp   1
 Largest Abelian subgroup         C1      NOp   1
 Largest concise Abelian subgroup C1      NOp   1
                         Standard orientation:                         
 ---------------------------------------------------------------------
 Center     Atomic      Atomic             Coordinates (Angstroms)
 Number     Number       Type             X           Y           Z
 ---------------------------------------------------------------------
      1          6           0        2.440679    2.751873   -0.067775
      2          6           0        2.413725    1.632945    0.965483
      3          6           0        1.980935    0.243171    0.435707
      4          6           0        2.920915   -0.324670   -0.672894
      5          6           0        2.457095   -1.697080   -1.202857
      6          8           0        2.287977   -2.639995   -0.152243
      7          7           0        0.601023    0.238525   -0.078226
      8          6           0       -0.414547    0.409069    0.960120
      9          6           0       -4.337379   -0.365191   -0.670456
     10          6           0       -3.630047   -1.382544   -0.031353
     11          6           0       -2.365551   -1.123279    0.496662
     12          6           0       -1.783993    0.142229    0.406755
     13          6           0       -2.505256    1.144841   -0.243369
     14          6           0       -3.770706    0.903991   -0.777116
     15          1           0       -5.322516   -0.561671   -1.085724
     16          1           0       -4.052067   -2.379173    0.058522
     17          1           0       -4.303533    1.708397   -1.275349
     18          9           0       -1.708802   -2.120842    1.106625
     19          9           0       -1.978415    2.372179   -0.365938
     20          1           0        1.453593    2.921577   -0.507050
     21          1           0        2.753194    3.687239    0.408476
     22          1           0        3.150203    2.541436   -0.872637
     23          1           0        3.406236    1.556519    1.424220
     24          1           0        1.751769    1.936823    1.785293
     25          1           0        2.926257    0.357281   -1.532914
     26          1           0        3.195168   -2.105530   -1.901695
     27          1           0        1.513919   -1.617995   -1.754617
     28          1           0        1.433038   -2.421010    0.264169
     29          1           0       -0.229197   -0.274545    1.797917
     30          1           0       -0.389682    1.423259    1.375331
     31          1           0        2.031857   -0.448251    1.287854
     32          6           0        4.367774   -0.446904   -0.172022
     33          1           0        4.424069   -1.040651    0.746374
     34          1           0        5.001644   -0.928514   -0.924702
     35          1           0        4.806258    0.535402    0.026716
     36          1           0        0.481899    0.966959   -0.782151
 ---------------------------------------------------------------------
 Rotational constants (GHZ):      0.7060879      0.2718407      0.2163344
 Standard basis: 6-31G(d,p) (6D, 7F)
 There are   350 symmetry adapted cartesian basis functions of A   symmetry.
 There are   350 symmetry adapted basis functions of A   symmetry.
   350 basis functions,   609 primitive gaussians,   350 cartesian basis functions
    65 alpha electrons       65 beta electrons
       nuclear repulsion energy      1272.7509042042 Hartrees.
 NAtoms=   36 NActive=   36 NUniq=   36 SFac= 1.00D+00 NAtFMM=   60 NAOKFM=F Big=F
 Integral buffers will be    131072 words long.
 Raffenetti 2 integral format.
 Two-electron integral symmetry is turned on.
 ------------------------------------------------------------------------------
 Polarizable Continuum Model (PCM)
 =================================
 Model                : PCM (using non-symmetric T matrix).
 Atomic radii         : UFF (Universal Force Field).
 Polarization charges : Total charges.
 Charge compensation  : None.
 Solution method      : On-the-fly selection.
 Cavity type          : Scaled VdW (van der Waals Surface) (Alpha=1.100).
 Cavity algorithm     : GePol (No added spheres)
                        Default sphere list used, NSphG=   36.
                        Lebedev-Laikov grids with approx.  5.0 points / Ang**2.
                        Smoothing algorithm: Karplus/York (Gamma=1.0000).
                        Polarization charges: spherical gaussians, with
                                              point-specific exponents (IZeta= 3).
                        Self-potential: point-specific (ISelfS= 7).
                        Self-field    : sphere-specific E.n sum rule (ISelfD= 2).
 1st derivatives      : Analytical E(r).r(x)/FMM algorithm (CHGder, D1EAlg=3).
                        Cavity 1st derivative terms included.
 Solvent              : Chloroform, Eps=   4.711300 Eps(inf)=   2.090627
 ------------------------------------------------------------------------------
 One-electron integrals computed using PRISM.
 NBasis=   350 RedAO= T EigKep=  4.09D-04  NBF=   350
 NBsUse=   350 1.00D-06 EigRej= -1.00D+00 NBFU=   350
 ExpMin= 1.61D-01 ExpMax= 7.00D+03 ExpMxC= 1.05D+03 IAcc=1 IRadAn=         1 AccDes= 0.00D+00
 Harris functional with IExCor=  402 and IRadAn=       1 diagonalized for initial guess.
 HarFok:  IExCor=  402 AccDes= 0.00D+00 IRadAn=         1 IDoV= 1 UseB2=F ITyADJ=14
 ICtDFT=  3500011 ScaDFX=  1.000000  1.000000  1.000000  1.000000
 FoFCou: FMM=F IPFlag=           0 FMFlag=      100000 FMFlg1=           0
         NFxFlg=           0 DoJE=T BraDBF=F KetDBF=T FulRan=T
         wScrn=  0.000000 ICntrl=     500 IOpCl=  0 I1Cent=   200000004 NGrid=           0
         NMat0=    1 NMatS0=      1 NMatT0=    0 NMatD0=    1 NMtDS0=    0 NMtDT0=    0
 Petite list used in FoFCou.
 Requested convergence on RMS density matrix=1.00D-08 within 128 cycles.
 Requested convergence on MAX density matrix=1.00D-06.
 Requested convergence on             energy=1.00D-06.
 No special actions if energy rises.
 Inv3:  Mode=1 IEnd=    19036083.
 Iteration    1 A*A^-1 deviation from unit magnitude is 7.55D-15 for   1614.
 Iteration    1 A*A^-1 deviation from orthogonality  is 7.51D-15 for   2229   2022.
 Iteration    1 A^-1*A deviation from unit magnitude is 7.99D-15 for   1614.
 Iteration    1 A^-1*A deviation from orthogonality  is 5.60D-09 for   2519   2518.
 Iteration    2 A*A^-1 deviation from unit magnitude is 9.33D-15 for    259.
 Iteration    2 A*A^-1 deviation from orthogonality  is 1.07D-14 for   2325    479.
 Iteration    2 A^-1*A deviation from unit magnitude is 1.78D-15 for    474.
 Iteration    2 A^-1*A deviation from orthogonality  is 1.11D-15 for   2354    262.
 Error on total polarization charges =  0.00780
 SCF Done:  E(RB3LYP) =  -836.490150710     A.U. after   12 cycles
            NFock= 12  Conv=0.63D-08     -V/T= 2.0088

 **********************************************************************

            Population analysis using the SCF density.

 **********************************************************************

 Orbital symmetries:
       Occupied  (A) (A) (A) (A) (A) (A) (A) (A) (A) (A) (A) (A)
                 (A) (A) (A) (A) (A) (A) (A) (A) (A) (A) (A) (A)
                 (A) (A) (A) (A) (A) (A) (A) (A) (A) (A) (A) (A)
                 (A) (A) (A) (A) (A) (A) (A) (A) (A) (A) (A) (A)
                 (A) (A) (A) (A) (A) (A) (A) (A) (A) (A) (A) (A)
                 (A) (A) (A) (A) (A)
       Virtual   (A) (A) (A) (A) (A) (A) (A) (A) (A) (A) (A) (A)
                 (A) (A) (A) (A) (A) (A) (A) (A) (A) (A) (A) (A)
                 (A) (A) (A) (A) (A) (A) (A) (A) (A) (A) (A) (A)
                 (A) (A) (A) (A) (A) (A) (A) (A) (A) (A) (A) (A)
                 (A) (A) (A) (A) (A) (A) (A) (A) (A) (A) (A) (A)
                 (A) (A) (A) (A) (A) (A) (A) (A) (A) (A) (A) (A)
                 (A) (A) (A) (A) (A) (A) (A) (A) (A) (A) (A) (A)
                 (A) (A) (A) (A) (A) (A) (A) (A) (A) (A) (A) (A)
                 (A) (A) (A) (A) (A) (A) (A) (A) (A) (A) (A) (A)
                 (A) (A) (A) (A) (A) (A) (A) (A) (A) (A) (A) (A)
                 (A) (A) (A) (A) (A) (A) (A) (A) (A) (A) (A) (A)
                 (A) (A) (A) (A) (A) (A) (A) (A) (A) (A) (A) (A)
                 (A) (A) (A) (A) (A) (A) (A) (A) (A) (A) (A) (A)
                 (A) (A) (A) (A) (A) (A) (A) (A) (A) (A) (A) (A)
                 (A) (A) (A) (A) (A) (A) (A) (A) (A) (A) (A) (A)
                 (A) (A) (A) (A) (A) (A) (A) (A) (A) (A) (A) (A)
                 (A) (A) (A) (A) (A) (A) (A) (A) (A) (A) (A) (A)
                 (A) (A) (A) (A) (A) (A) (A) (A) (A) (A) (A) (A)
                 (A) (A) (A) (A) (A) (A) (A) (A) (A) (A) (A) (A)
                 (A) (A) (A) (A) (A) (A) (A) (A) (A) (A) (A) (A)
                 (A) (A) (A) (A) (A) (A) (A) (A) (A) (A) (A) (A)
                 (A) (A) (A) (A) (A) (A) (A) (A) (A) (A) (A) (A)
                 (A) (A) (A) (A) (A) (A) (A) (A) (A) (A) (A) (A)
                 (A) (A) (A) (A) (A) (A) (A) (A) (A)
 The electronic state is 1-A.
 Alpha  occ. eigenvalues --  -24.72069 -24.71930 -19.13575 -14.31987 -10.28167
 Alpha  occ. eigenvalues --  -10.28147 -10.21698 -10.21621 -10.21074 -10.20745
 Alpha  occ. eigenvalues --  -10.20691 -10.19891 -10.19861 -10.18151 -10.17664
 Alpha  occ. eigenvalues --  -10.17343 -10.16747  -1.23414  -1.23245  -1.00645
 Alpha  occ. eigenvalues --   -0.91130  -0.86902  -0.79938  -0.76837  -0.75360
 Alpha  occ. eigenvalues --   -0.75232  -0.68990  -0.66538  -0.65360  -0.63016
 Alpha  occ. eigenvalues --   -0.61332  -0.59489  -0.56182  -0.55179  -0.52946
 Alpha  occ. eigenvalues --   -0.49790  -0.49325  -0.48907  -0.48678  -0.47150
 Alpha  occ. eigenvalues --   -0.46567  -0.46500  -0.45470  -0.44200  -0.43882
 Alpha  occ. eigenvalues --   -0.42201  -0.41629  -0.40840  -0.39894  -0.38999
 Alpha  occ. eigenvalues --   -0.38637  -0.37130  -0.36608  -0.36130  -0.35719
 Alpha  occ. eigenvalues --   -0.35358  -0.34303  -0.33715  -0.33370  -0.31176
 Alpha  occ. eigenvalues --   -0.30696  -0.25789  -0.25509  -0.24751  -0.22208
 Alpha virt. eigenvalues --   -0.01380  -0.00250   0.06150   0.08465   0.09055
 Alpha virt. eigenvalues --    0.10614   0.11070   0.13474   0.13774   0.14394
 Alpha virt. eigenvalues --    0.14820   0.15402   0.15721   0.15927   0.16602
 Alpha virt. eigenvalues --    0.17633   0.17887   0.18663   0.18726   0.19013
 Alpha virt. eigenvalues --    0.19849   0.20335   0.21589   0.22250   0.23353
 Alpha virt. eigenvalues --    0.24164   0.25297   0.26097   0.26288   0.27582
 Alpha virt. eigenvalues --    0.27778   0.28672   0.29325   0.31369   0.33936
 Alpha virt. eigenvalues --    0.37341   0.38561   0.46316   0.49556   0.49575
 Alpha virt. eigenvalues --    0.50135   0.51405   0.51568   0.52407   0.52893
 Alpha virt. eigenvalues --    0.53404   0.54784   0.55508   0.57282   0.57803
 Alpha virt. eigenvalues --    0.58817   0.59019   0.59498   0.59905   0.60739
 Alpha virt. eigenvalues --    0.61363   0.62239   0.63110   0.64661   0.65074
 Alpha virt. eigenvalues --    0.65881   0.66833   0.67197   0.69522   0.71645
 Alpha virt. eigenvalues --    0.72899   0.74872   0.76790   0.78211   0.79116
 Alpha virt. eigenvalues --    0.79504   0.81753   0.82424   0.82993   0.83375
 Alpha virt. eigenvalues --    0.84436   0.84734   0.85542   0.86345   0.86997
 Alpha virt. eigenvalues --    0.88179   0.88632   0.88996   0.89365   0.89749
 Alpha virt. eigenvalues --    0.90306   0.91914   0.92318   0.93361   0.94583
 Alpha virt. eigenvalues --    0.95626   0.96332   0.96898   0.98233   0.98700
 Alpha virt. eigenvalues --    1.01247   1.02054   1.03304   1.04197   1.05256
 Alpha virt. eigenvalues --    1.07116   1.09435   1.09904   1.10631   1.15204
 Alpha virt. eigenvalues --    1.17292   1.20794   1.21111   1.21951   1.23322
 Alpha virt. eigenvalues --    1.23793   1.24319   1.24814   1.29571   1.31507
 Alpha virt. eigenvalues --    1.35309   1.35880   1.37544   1.38881   1.38980
 Alpha virt. eigenvalues --    1.39536   1.41307   1.41860   1.42985   1.43591
 Alpha virt. eigenvalues --    1.45594   1.48374   1.50382   1.50821   1.53643
 Alpha virt. eigenvalues --    1.56590   1.58093   1.60385   1.63123   1.66934
 Alpha virt. eigenvalues --    1.67471   1.69132   1.70804   1.72739   1.74334
 Alpha virt. eigenvalues --    1.75804   1.76894   1.78063   1.78874   1.80566
 Alpha virt. eigenvalues --    1.81766   1.82031   1.83038   1.84541   1.85512
 Alpha virt. eigenvalues --    1.86195   1.87931   1.88499   1.89119   1.89520
 Alpha virt. eigenvalues --    1.90342   1.91478   1.91904   1.93325   1.94296
 Alpha virt. eigenvalues --    1.96329   1.96785   1.98098   1.99405   2.01618
 Alpha virt. eigenvalues --    2.02139   2.03830   2.04401   2.05006   2.05899
 Alpha virt. eigenvalues --    2.06853   2.07401   2.09113   2.10404   2.11909
 Alpha virt. eigenvalues --    2.12539   2.14370   2.16204   2.17250   2.18242
 Alpha virt. eigenvalues --    2.19424   2.20827   2.21588   2.23492   2.24827
 Alpha virt. eigenvalues --    2.27580   2.27727   2.28804   2.29869   2.30699
 Alpha virt. eigenvalues --    2.31184   2.33166   2.33518   2.35205   2.35857
 Alpha virt. eigenvalues --    2.37053   2.38039   2.38763   2.40176   2.40389
 Alpha virt. eigenvalues --    2.41159   2.42005   2.44915   2.47002   2.47935
 Alpha virt. eigenvalues --    2.48873   2.51840   2.52366   2.54077   2.54863
 Alpha virt. eigenvalues --    2.56279   2.57101   2.57867   2.60028   2.62676
 Alpha virt. eigenvalues --    2.63531   2.64454   2.65385   2.66662   2.68660
 Alpha virt. eigenvalues --    2.69540   2.71305   2.71536   2.73537   2.74193
 Alpha virt. eigenvalues --    2.75155   2.76010   2.77364   2.78742   2.81502
 Alpha virt. eigenvalues --    2.84478   2.86131   2.86852   2.87897   2.88582
 Alpha virt. eigenvalues --    2.91542   2.91703   2.93183   2.95208   2.96152
 Alpha virt. eigenvalues --    2.98213   3.00899   3.03172   3.04385   3.06468
 Alpha virt. eigenvalues --    3.10075   3.14627   3.19933   3.20710   3.22133
 Alpha virt. eigenvalues --    3.25437   3.28752   3.30232   3.32802   3.35495
 Alpha virt. eigenvalues --    3.36637   3.38861   3.39904   3.42574   3.44322
 Alpha virt. eigenvalues --    3.46608   3.47918   3.50343   3.52293   3.54709
 Alpha virt. eigenvalues --    3.55589   3.56708   3.80338   3.88198   4.06065
 Alpha virt. eigenvalues --    4.09799   4.11729   4.17069   4.35442   4.38166
 Alpha virt. eigenvalues --    4.42688   4.43640   4.53687   4.58600   4.60559
 Alpha virt. eigenvalues --    4.66440   4.75644   4.79147   5.50585   5.63687
          Condensed to atoms (all electrons):
               1          2          3          4          5          6
     1  C    4.938468   0.365818  -0.040944  -0.006531  -0.000013  -0.000004
     2  C    0.365818   4.985555   0.363541  -0.054023   0.005145   0.000256
     3  C   -0.040944   0.363541   4.849687   0.358776  -0.031793  -0.002213
     4  C   -0.006531  -0.054023   0.358776   5.081330   0.332855  -0.062401
     5  C   -0.000013   0.005145  -0.031793   0.332855   4.765685   0.245573
     6  O   -0.000004   0.000256  -0.002213  -0.062401   0.245573   8.154823
     7  N   -0.007151  -0.059553   0.287934  -0.053970  -0.005951  -0.002736
     8  C   -0.000906  -0.004592  -0.040619   0.005672   0.000144  -0.000033
     9  C    0.000000   0.000000   0.000000   0.000000   0.000000   0.000000
    10  C    0.000000   0.000000   0.000004   0.000000   0.000000   0.000000
    11  C    0.000000   0.000008   0.000027  -0.000030  -0.000014  -0.000003
    12  C    0.000001   0.000197   0.004502  -0.000175  -0.000021   0.000007
    13  C   -0.000026  -0.000028   0.000147   0.000005   0.000001   0.000000
    14  C    0.000000   0.000000   0.000005   0.000000   0.000000   0.000000
    15  H    0.000000   0.000000   0.000000   0.000000   0.000000   0.000000
    16  H    0.000000   0.000000   0.000000   0.000000   0.000000   0.000000
    17  H    0.000000   0.000000   0.000000   0.000000   0.000000   0.000000
    18  F    0.000000   0.000000  -0.000033   0.000002  -0.000008  -0.000024
    19  F   -0.000073  -0.000005   0.000015   0.000000   0.000000   0.000000
    20  H    0.380359  -0.038070  -0.004600  -0.000451  -0.000020   0.000000
    21  H    0.382476  -0.028298   0.004229   0.000158   0.000000   0.000000
    22  H    0.388383  -0.036472  -0.005319   0.002239  -0.000065   0.000000
    23  H   -0.039471   0.368679  -0.028122  -0.004748  -0.000067   0.000002
    24  H   -0.043186   0.381569  -0.032540   0.004802  -0.000113   0.000000
    25  H    0.002956  -0.007853  -0.034621   0.353305  -0.033782   0.003619
    26  H   -0.000004  -0.000053   0.004790  -0.046331   0.383669  -0.037220
    27  H   -0.000023   0.000261  -0.008948  -0.045186   0.373093  -0.031952
    28  H    0.000002   0.000183   0.004959  -0.007382  -0.031777   0.284211
    29  H    0.000055  -0.001852  -0.003844   0.000485  -0.000093   0.000020
    30  H    0.001121   0.003838  -0.003737  -0.000350   0.000016  -0.000003
    31  H    0.004987  -0.046946   0.375570  -0.039551  -0.009504   0.011355
    32  C   -0.001665   0.000757  -0.044585   0.349209  -0.045748  -0.000226
    33  H    0.000089  -0.001026  -0.007301  -0.034894  -0.006223   0.007107
    34  H   -0.000007   0.000104   0.004249  -0.028713  -0.006162  -0.000183
    35  H    0.000573   0.000601  -0.005229  -0.028179   0.004689   0.000065
    36  H    0.004488  -0.008151  -0.034237  -0.002957  -0.000387   0.000046
               7          8          9         10         11         12
     1  C   -0.007151  -0.000906   0.000000   0.000000   0.000000   0.000001
     2  C   -0.059553  -0.004592   0.000000   0.000000   0.000008   0.000197
     3  C    0.287934  -0.040619   0.000000   0.000004   0.000027   0.004502
     4  C   -0.053970   0.005672   0.000000   0.000000  -0.000030  -0.000175
     5  C   -0.005951   0.000144   0.000000   0.000000  -0.000014  -0.000021
     6  O   -0.002736  -0.000033   0.000000   0.000000  -0.000003   0.000007
     7  N    6.924438   0.283096   0.000022  -0.000020   0.006183  -0.054454
     8  C    0.283096   4.930715  -0.000598   0.008328  -0.049289   0.303305
     9  C    0.000022  -0.000598   4.854490   0.485800  -0.008717  -0.028633
    10  C   -0.000020   0.008328   0.485800   5.054344   0.474820  -0.072527
    11  C    0.006183  -0.049289  -0.008717   0.474820   4.595310   0.407759
    12  C   -0.054454   0.303305  -0.028633  -0.072527   0.407759   5.321512
    13  C   -0.007394  -0.047188  -0.008590  -0.049762   0.014425   0.395867
    14  C   -0.000158   0.008726   0.486816  -0.031167  -0.049893  -0.075118
    15  H    0.000000   0.000004   0.375546  -0.034499   0.003614   0.000213
    16  H    0.000002  -0.000148  -0.037284   0.358952  -0.032640   0.006372
    17  H    0.000001  -0.000155  -0.037388   0.004696   0.000491   0.006544
    18  F   -0.000447  -0.000870   0.003022  -0.046986   0.309454  -0.053539
    19  F   -0.001326   0.002418   0.002991  -0.000068   0.002382  -0.058368
    20  H    0.003990   0.001038   0.000000   0.000000  -0.000003  -0.000164
    21  H    0.000174  -0.000002   0.000000   0.000000   0.000000   0.000000
    22  H   -0.000135   0.000027   0.000000   0.000000   0.000000   0.000002
    23  H    0.005001   0.000118   0.000000   0.000000   0.000000   0.000000
    24  H   -0.005454   0.002099   0.000000   0.000000  -0.000007   0.000016
    25  H   -0.005080  -0.000035   0.000000   0.000000   0.000001   0.000003
    26  H    0.000297   0.000001   0.000000   0.000000   0.000000  -0.000001
    27  H    0.013366  -0.000503   0.000000   0.000000   0.000084   0.000070
    28  H    0.007146   0.000247   0.000000   0.000007   0.000298  -0.000436
    29  H   -0.042415   0.376165  -0.000018   0.000305  -0.009398  -0.028665
    30  H   -0.048534   0.356420  -0.000038  -0.000140   0.006397  -0.034848
    31  H   -0.048341  -0.006836   0.000000   0.000000  -0.000014   0.000172
    32  C    0.003954  -0.000166   0.000000   0.000000   0.000000   0.000002
    33  H    0.000064  -0.000003   0.000000   0.000000   0.000000   0.000000
    34  H   -0.000101   0.000002   0.000000   0.000000   0.000000   0.000000
    35  H   -0.000008   0.000000   0.000000   0.000000   0.000000   0.000000
    36  H    0.333569  -0.035569  -0.000011   0.000000  -0.000369  -0.006418
              13         14         15         16         17         18
     1  C   -0.000026   0.000000   0.000000   0.000000   0.000000   0.000000
     2  C   -0.000028   0.000000   0.000000   0.000000   0.000000   0.000000
     3  C    0.000147   0.000005   0.000000   0.000000   0.000000  -0.000033
     4  C    0.000005   0.000000   0.000000   0.000000   0.000000   0.000002
     5  C    0.000001   0.000000   0.000000   0.000000   0.000000  -0.000008
     6  O    0.000000   0.000000   0.000000   0.000000   0.000000  -0.000024
     7  N   -0.007394  -0.000158   0.000000   0.000002   0.000001  -0.000447
     8  C   -0.047188   0.008726   0.000004  -0.000148  -0.000155  -0.000870
     9  C   -0.008590   0.486816   0.375546  -0.037284  -0.037388   0.003022
    10  C   -0.049762  -0.031167  -0.034499   0.358952   0.004696  -0.046986
    11  C    0.014425  -0.049893   0.003614  -0.032640   0.000491   0.309454
    12  C    0.395867  -0.075118   0.000213   0.006372   0.006544  -0.053539
    13  C    4.619371   0.473035   0.003624   0.000479  -0.032504   0.002492
    14  C    0.473035   5.059268  -0.034741   0.004723   0.358530  -0.000057
    15  H    0.003624  -0.034741   0.580615  -0.005921  -0.005937  -0.000023
    16  H    0.000479   0.004723  -0.005921   0.593797  -0.000150  -0.000505
    17  H   -0.032504   0.358530  -0.005937  -0.000150   0.594543   0.000001
    18  F    0.002492  -0.000057  -0.000023  -0.000505   0.000001   9.067638
    19  F    0.311015  -0.047877  -0.000022   0.000001  -0.000431   0.000000
    20  H    0.000098   0.000003   0.000000   0.000000   0.000000   0.000000
    21  H    0.000000   0.000000   0.000000   0.000000   0.000000   0.000000
    22  H    0.000000   0.000000   0.000000   0.000000   0.000000   0.000000
    23  H    0.000001   0.000000   0.000000   0.000000   0.000000   0.000000
    24  H    0.000004   0.000000   0.000000   0.000000   0.000000   0.000000
    25  H   -0.000001   0.000000   0.000000   0.000000   0.000000   0.000000
    26  H    0.000000   0.000000   0.000000   0.000000   0.000000   0.000000
    27  H   -0.000011   0.000000   0.000000   0.000000   0.000000  -0.000006
    28  H   -0.000009   0.000000   0.000000   0.000000   0.000000   0.001389
    29  H    0.005395  -0.000186   0.000000  -0.000007   0.000002   0.008062
    30  H   -0.013309   0.000073   0.000000   0.000003   0.000002   0.000181
    31  H   -0.000001   0.000000   0.000000   0.000000   0.000000  -0.000044
    32  C    0.000000   0.000000   0.000000   0.000000   0.000000   0.000000
    33  H    0.000000   0.000000   0.000000   0.000000   0.000000   0.000000
    34  H    0.000000   0.000000   0.000000   0.000000   0.000000   0.000000
    35  H    0.000000   0.000000   0.000000   0.000000   0.000000   0.000000
    36  H    0.004381  -0.000054   0.000000   0.000000   0.000001  -0.000012
              19         20         21         22         23         24
     1  C   -0.000073   0.380359   0.382476   0.388383  -0.039471  -0.043186
     2  C   -0.000005  -0.038070  -0.028298  -0.036472   0.368679   0.381569
     3  C    0.000015  -0.004600   0.004229  -0.005319  -0.028122  -0.032540
     4  C    0.000000  -0.000451   0.000158   0.002239  -0.004748   0.004802
     5  C    0.000000  -0.000020   0.000000  -0.000065  -0.000067  -0.000113
     6  O    0.000000   0.000000   0.000000   0.000000   0.000002   0.000000
     7  N   -0.001326   0.003990   0.000174  -0.000135   0.005001  -0.005454
     8  C    0.002418   0.001038  -0.000002   0.000027   0.000118   0.002099
     9  C    0.002991   0.000000   0.000000   0.000000   0.000000   0.000000
    10  C   -0.000068   0.000000   0.000000   0.000000   0.000000   0.000000
    11  C    0.002382  -0.000003   0.000000   0.000000   0.000000  -0.000007
    12  C   -0.058368  -0.000164   0.000000   0.000002   0.000000   0.000016
    13  C    0.311015   0.000098   0.000000   0.000000   0.000001   0.000004
    14  C   -0.047877   0.000003   0.000000   0.000000   0.000000   0.000000
    15  H   -0.000022   0.000000   0.000000   0.000000   0.000000   0.000000
    16  H    0.000001   0.000000   0.000000   0.000000   0.000000   0.000000
    17  H   -0.000431   0.000000   0.000000   0.000000   0.000000   0.000000
    18  F    0.000000   0.000000   0.000000   0.000000   0.000000   0.000000
    19  F    9.071323   0.000475   0.000000   0.000000   0.000000  -0.000012
    20  H    0.000475   0.613247  -0.030319  -0.032982   0.006094  -0.005138
    21  H    0.000000  -0.030319   0.602354  -0.030473  -0.003626  -0.003629
    22  H    0.000000  -0.032982  -0.030473   0.598649  -0.005258   0.005667
    23  H    0.000000   0.006094  -0.003626  -0.005258   0.637921  -0.036751
    24  H   -0.000012  -0.005138  -0.003629   0.005667  -0.036751   0.638165
    25  H    0.000000   0.000144  -0.000094   0.002311   0.000145   0.000002
    26  H    0.000000   0.000000   0.000000   0.000008  -0.000006   0.000002
    27  H    0.000000  -0.000009   0.000000  -0.000003  -0.000012   0.000000
    28  H    0.000000  -0.000001   0.000000   0.000000  -0.000019   0.000004
    29  H    0.000197   0.000012   0.000001  -0.000001   0.000009   0.000584
    30  H    0.005516  -0.000710  -0.000068  -0.000018  -0.000376   0.001752
    31  H    0.000000   0.000066  -0.000147   0.000024  -0.001769  -0.003918
    32  C    0.000000   0.000044  -0.000012   0.000299   0.001385   0.000054
    33  H    0.000000  -0.000003   0.000001  -0.000023   0.000752  -0.000033
    34  H    0.000000   0.000002   0.000001  -0.000038  -0.000049  -0.000001
    35  H    0.000000  -0.000024  -0.000054   0.001154   0.001354   0.000010
    36  H    0.003023   0.005348  -0.000214   0.000030   0.000052  -0.000028
              25         26         27         28         29         30
     1  C    0.002956  -0.000004  -0.000023   0.000002   0.000055   0.001121
     2  C   -0.007853  -0.000053   0.000261   0.000183  -0.001852   0.003838
     3  C   -0.034621   0.004790  -0.008948   0.004959  -0.003844  -0.003737
     4  C    0.353305  -0.046331  -0.045186  -0.007382   0.000485  -0.000350
     5  C   -0.033782   0.383669   0.373093  -0.031777  -0.000093   0.000016
     6  O    0.003619  -0.037220  -0.031952   0.284211   0.000020  -0.000003
     7  N   -0.005080   0.000297   0.013366   0.007146  -0.042415  -0.048534
     8  C   -0.000035   0.000001  -0.000503   0.000247   0.376165   0.356420
     9  C    0.000000   0.000000   0.000000   0.000000  -0.000018  -0.000038
    10  C    0.000000   0.000000   0.000000   0.000007   0.000305  -0.000140
    11  C    0.000001   0.000000   0.000084   0.000298  -0.009398   0.006397
    12  C    0.000003  -0.000001   0.000070  -0.000436  -0.028665  -0.034848
    13  C   -0.000001   0.000000  -0.000011  -0.000009   0.005395  -0.013309
    14  C    0.000000   0.000000   0.000000   0.000000  -0.000186   0.000073
    15  H    0.000000   0.000000   0.000000   0.000000   0.000000   0.000000
    16  H    0.000000   0.000000   0.000000   0.000000  -0.000007   0.000003
    17  H    0.000000   0.000000   0.000000   0.000000   0.000002   0.000002
    18  F    0.000000   0.000000  -0.000006   0.001389   0.008062   0.000181
    19  F    0.000000   0.000000   0.000000   0.000000   0.000197   0.005516
    20  H    0.000144   0.000000  -0.000009  -0.000001   0.000012  -0.000710
    21  H   -0.000094   0.000000   0.000000   0.000000   0.000001  -0.000068
    22  H    0.002311   0.000008  -0.000003   0.000000  -0.000001  -0.000018
    23  H    0.000145  -0.000006  -0.000012  -0.000019   0.000009  -0.000376
    24  H    0.000002   0.000002   0.000000   0.000004   0.000584   0.001752
    25  H    0.670676   0.000847  -0.000306  -0.000141   0.000002  -0.000006
    26  H    0.000847   0.639886  -0.043028   0.007096  -0.000001   0.000001
    27  H   -0.000306  -0.043028   0.655649  -0.009820  -0.000058   0.000030
    28  H   -0.000141   0.007096  -0.009820   0.422766  -0.000046   0.000074
    29  H    0.000002  -0.000001  -0.000058  -0.000046   0.609920  -0.045959
    30  H   -0.000006   0.000001   0.000030   0.000074  -0.045959   0.678448
    31  H    0.006809   0.000078   0.000433  -0.000375   0.007001  -0.001106
    32  C   -0.042455  -0.009509   0.006576  -0.000073  -0.000017   0.000015
    33  H    0.006026   0.000032   0.000171  -0.000150  -0.000005   0.000000
    34  H   -0.002125   0.005241   0.000004   0.000006   0.000000   0.000000
    35  H   -0.005832   0.000045  -0.000185  -0.000010   0.000000  -0.000001
    36  H    0.003475  -0.000033  -0.000274  -0.000084   0.006263  -0.006841
              31         32         33         34         35         36
     1  C    0.004987  -0.001665   0.000089  -0.000007   0.000573   0.004488
     2  C   -0.046946   0.000757  -0.001026   0.000104   0.000601  -0.008151
     3  C    0.375570  -0.044585  -0.007301   0.004249  -0.005229  -0.034237
     4  C   -0.039551   0.349209  -0.034894  -0.028713  -0.028179  -0.002957
     5  C   -0.009504  -0.045748  -0.006223  -0.006162   0.004689  -0.000387
     6  O    0.011355  -0.000226   0.007107  -0.000183   0.000065   0.000046
     7  N   -0.048341   0.003954   0.000064  -0.000101  -0.000008   0.333569
     8  C   -0.006836  -0.000166  -0.000003   0.000002   0.000000  -0.035569
     9  C    0.000000   0.000000   0.000000   0.000000   0.000000  -0.000011
    10  C    0.000000   0.000000   0.000000   0.000000   0.000000   0.000000
    11  C   -0.000014   0.000000   0.000000   0.000000   0.000000  -0.000369
    12  C    0.000172   0.000002   0.000000   0.000000   0.000000  -0.006418
    13  C   -0.000001   0.000000   0.000000   0.000000   0.000000   0.004381
    14  C    0.000000   0.000000   0.000000   0.000000   0.000000  -0.000054
    15  H    0.000000   0.000000   0.000000   0.000000   0.000000   0.000000
    16  H    0.000000   0.000000   0.000000   0.000000   0.000000   0.000000
    17  H    0.000000   0.000000   0.000000   0.000000   0.000000   0.000001
    18  F   -0.000044   0.000000   0.000000   0.000000   0.000000  -0.000012
    19  F    0.000000   0.000000   0.000000   0.000000   0.000000   0.003023
    20  H    0.000066   0.000044  -0.000003   0.000002  -0.000024   0.005348
    21  H   -0.000147  -0.000012   0.000001   0.000001  -0.000054  -0.000214
    22  H    0.000024   0.000299  -0.000023  -0.000038   0.001154   0.000030
    23  H   -0.001769   0.001385   0.000752  -0.000049   0.001354   0.000052
    24  H   -0.003918   0.000054  -0.000033  -0.000001   0.000010  -0.000028
    25  H    0.006809  -0.042455   0.006026  -0.002125  -0.005832   0.003475
    26  H    0.000078  -0.009509   0.000032   0.005241   0.000045  -0.000033
    27  H    0.000433   0.006576   0.000171   0.000004  -0.000185  -0.000274
    28  H   -0.000375  -0.000073  -0.000150   0.000006  -0.000010  -0.000084
    29  H    0.007001  -0.000017  -0.000005   0.000000   0.000000   0.006263
    30  H   -0.001106   0.000015   0.000000   0.000000  -0.000001  -0.006841
    31  H    0.653872  -0.006335   0.006263  -0.000023  -0.000172   0.006528
    32  C   -0.006335   4.970701   0.384670   0.376840   0.379096  -0.000117
    33  H    0.006263   0.384670   0.596622  -0.030601  -0.032811   0.000008
    34  H   -0.000023   0.376840  -0.030601   0.614658  -0.031161   0.000003
    35  H   -0.000172   0.379096  -0.032811  -0.031161   0.613386  -0.000001
    36  H    0.006528  -0.000117   0.000008   0.000003  -0.000001   0.480137
 Mulliken charges:
               1
     1  C   -0.329769
     2  C   -0.189588
     3  C    0.070247
     4  C   -0.072968
     5  C    0.060869
     6  O   -0.570086
     7  N   -0.526012
     8  C   -0.091012
     9  C   -0.087410
    10  C   -0.152088
    11  C    0.329122
    12  C   -0.033176
    13  C    0.328482
    14  C   -0.151928
    15  H    0.117526
    16  H    0.112326
    17  H    0.111754
    18  F   -0.289686
    19  F   -0.291174
    20  H    0.101574
    21  H    0.107542
    22  H    0.111994
    23  H    0.098762
    24  H    0.096080
    25  H    0.082009
    26  H    0.094197
    27  H    0.090586
    28  H    0.321933
    29  H    0.118085
    30  H    0.102156
    31  H    0.091925
    32  C   -0.322692
    33  H    0.111268
    34  H    0.098054
    35  H    0.102693
    36  H    0.248404
 Sum of Mulliken charges =   0.00000
 Mulliken charges with hydrogens summed into heavy atoms:
               1
     1  C   -0.008659
     2  C    0.005254
     3  C    0.162173
     4  C    0.009041
     5  C    0.245653
     6  O   -0.248153
     7  N   -0.277608
     8  C    0.129230
     9  C    0.030116
    10  C   -0.039762
    11  C    0.329122
    12  C   -0.033176
    13  C    0.328482
    14  C   -0.040175
    18  F   -0.289686
    19  F   -0.291174
    32  C   -0.010676
 Electronic spatial extent (au):  <R**2>=           5080.8145
 Charge=              0.0000 electrons
 Dipole moment (field-independent basis, Debye):
    X=             -2.1755    Y=              2.3711    Z=             -0.3536  Tot=              3.2373
 Quadrupole moment (field-independent basis, Debye-Ang):
   XX=            -92.7829   YY=           -108.7059   ZZ=            -98.7518
   XY=              9.1094   XZ=              2.3485   YZ=              0.0008
 Traceless Quadrupole moment (field-independent basis, Debye-Ang):
   XX=              7.2973   YY=             -8.6257   ZZ=              1.3284
   XY=              9.1094   XZ=              2.3485   YZ=              0.0008
 Octapole moment (field-independent basis, Debye-Ang**2):
  XXX=            -81.1347  YYY=             12.9204  ZZZ=              4.7532  XYY=            -28.7176
  XXY=              7.6738  XXZ=            -24.8172  XZZ=              2.2607  YZZ=             -2.1152
  YYZ=              1.3603  XYZ=              3.7271
 Hexadecapole moment (field-independent basis, Debye-Ang**3):
 XXXX=          -4429.0391 YYYY=          -1565.1326 ZZZZ=           -424.5472 XXXY=             59.2130
 XXXZ=             78.9375 YYYX=             68.2032 YYYZ=            -21.6159 ZZZX=            -16.1848
 ZZZY=            -24.3307 XXYY=          -1049.4011 XXZZ=           -841.5445 YYZZ=           -311.2531
 XXYZ=             -4.5267 YYXZ=              6.5259 ZZXY=            -28.0809
 N-N= 1.272750904204D+03 E-N=-4.499317208983D+03  KE= 8.291609841091D+02
 D1PCM: PCM CHGder 1st derivatives, ID1Alg=3 FixD1E=F DoIter=F DoCFld=F I1PDM=0.
 Calling FoFJK, ICntrl=      2127 FMM=F ISym2X=0 I1Cent= 0 IOpClX= 0 NMat=1 NMatS=1 NMatT=0.
 ***** Axes restored to original set *****
 -------------------------------------------------------------------
 Center     Atomic                   Forces (Hartrees/Bohr)
 Number     Number              X              Y              Z
 -------------------------------------------------------------------
      1        6          -0.002672501   -0.001181807   -0.001623322
      2        6          -0.002715445   -0.004107264    0.005310000
      3        6          -0.008761274    0.007116104   -0.006244191
      4        6          -0.002698711   -0.000566839    0.005860248
      5        6           0.006995151   -0.001143653   -0.008486846
      6        8           0.009261093   -0.004242576    0.002669886
      7        7           0.004805408    0.000932472    0.012537277
      8        6          -0.002767308   -0.005620391   -0.005335023
      9        6          -0.004464713   -0.002742176    0.002808986
     10        6           0.005186623    0.001881743    0.006504413
     11        6           0.006946207    0.008188994   -0.020986954
     12        6          -0.006012412   -0.006137733    0.003904484
     13        6           0.021395471    0.011315428    0.005537637
     14        6          -0.002162419    0.000125716   -0.008362592
     15        1          -0.001445616   -0.001006777    0.000818111
     16        1          -0.000998311   -0.000831659    0.000547069
     17        1          -0.001071936   -0.000797334    0.000576284
     18        9          -0.003190794   -0.002572250    0.006776251
     19        9          -0.007703616   -0.004145368   -0.001438270
     20        1          -0.000525486    0.001142403   -0.001557804
     21        1           0.000138452    0.000957045   -0.001158493
     22        1          -0.000506183    0.001240233   -0.001379480
     23        1           0.000608455    0.000430379    0.001294357
     24        1           0.002369941    0.001073261    0.001338546
     25        1           0.001057314    0.000314182   -0.002393277
     26        1          -0.001469716   -0.002522973    0.002076502
     27        1          -0.002549490   -0.000709420   -0.003940292
     28        1          -0.006349223    0.003785429    0.004411616
     29        1          -0.003596645    0.004011933    0.000510473
     30        1           0.002953059   -0.003923976   -0.001753894
     31        1           0.002564338    0.002551729   -0.001178372
     32        6          -0.004340015   -0.002308067   -0.001704424
     33        1           0.000124149    0.000751421    0.000002735
     34        1           0.000899645    0.000087715    0.000122561
     35        1           0.000022979   -0.001197056    0.001154281
     36        1           0.000673530   -0.000148869    0.002781519
 -------------------------------------------------------------------
 Cartesian Forces:  Max     0.021395471 RMS     0.004901607

 GradGradGradGradGradGradGradGradGradGradGradGradGradGradGradGradGradGrad
 Berny optimization.
 FormGI is forming the generalized inverse of G from B-inverse, IUseBI=4.
 Internal  Forces:  Max     0.008594046 RMS     0.002798595
 Search for a local minimum.
 Step number   1 out of a maximum of   50
 All quantities printed in internal units (Hartrees-Bohrs-Radians)
 Mixed Optimization -- RFO/linear search
 Second derivative matrix not updated -- first step.
 ITU=  0
     Eigenvalues ---    0.00230   0.00230   0.00230   0.00290   0.00458
     Eigenvalues ---    0.00733   0.00754   0.00866   0.01404   0.01571
     Eigenvalues ---    0.02148   0.02153   0.02154   0.02159   0.02163
     Eigenvalues ---    0.02165   0.02166   0.02167   0.02624   0.03189
     Eigenvalues ---    0.03418   0.03614   0.04455   0.04661   0.04708
     Eigenvalues ---    0.04737   0.05043   0.05217   0.05365   0.05427
     Eigenvalues ---    0.05493   0.05569   0.05718   0.05995   0.06576
     Eigenvalues ---    0.08885   0.09764   0.11304   0.11726   0.12594
     Eigenvalues ---    0.13132   0.13949   0.16000   0.16000   0.16000
     Eigenvalues ---    0.16000   0.16000   0.16000   0.16000   0.16000
     Eigenvalues ---    0.16000   0.16000   0.16450   0.17112   0.17208
     Eigenvalues ---    0.18276   0.21899   0.21922   0.21975   0.22085
     Eigenvalues ---    0.23325   0.23490   0.24905   0.24991   0.25000
     Eigenvalues ---    0.25000   0.26781   0.27735   0.28293   0.28879
     Eigenvalues ---    0.30054   0.32280   0.33843   0.33949   0.34007
     Eigenvalues ---    0.34057   0.34109   0.34121   0.34177   0.34177
     Eigenvalues ---    0.34193   0.34222   0.34234   0.34362   0.34393
     Eigenvalues ---    0.34423   0.35163   0.35276   0.35289   0.35441
     Eigenvalues ---    0.36665   0.42192   0.42358   0.42486   0.44345
     Eigenvalues ---    0.46379   0.46478   0.46544   0.46600   0.52200
     Eigenvalues ---    0.56927   0.56963
 RFO step:  Lambda=-8.39256952D-03 EMin= 2.30000000D-03
 Linear search not attempted -- first point.
 Iteration  1 RMS(Cart)=  0.10533996 RMS(Int)=  0.00273202
 Iteration  2 RMS(Cart)=  0.00532538 RMS(Int)=  0.00023690
 Iteration  3 RMS(Cart)=  0.00001505 RMS(Int)=  0.00023670
 Iteration  4 RMS(Cart)=  0.00000001 RMS(Int)=  0.00023670
 Variable       Old X    -DE/DX   Delta X   Delta X   Delta X     New X
                                 (Linear)    (Quad)   (Total)
    R1        2.87856   0.00706   0.00000   0.02285   0.02285   2.90141
    R2        2.06673   0.00123   0.00000   0.00349   0.00349   2.07022
    R3        2.06957  -0.00036   0.00000  -0.00103  -0.00103   2.06853
    R4        2.06622   0.00086   0.00000   0.00245   0.00245   2.06866
    R5        2.92721   0.00104   0.00000   0.00365   0.00365   2.93086
    R6        2.07126   0.00029   0.00000   0.00082   0.00082   2.07209
    R7        2.07235   0.00028   0.00000   0.00081   0.00081   2.07315
    R8        2.94882  -0.00636   0.00000  -0.02304  -0.02304   2.92579
    R9        2.78265   0.00222   0.00000   0.00611   0.00611   2.78877
   R10        2.07596  -0.00085   0.00000  -0.00246  -0.00246   2.07350
   R11        2.91502  -0.00171   0.00000  -0.00586  -0.00586   2.90916
   R12        2.07416   0.00140   0.00000   0.00404   0.00404   2.07819
   R13        2.90257   0.00286   0.00000   0.00963   0.00963   2.91220
   R14        2.68679   0.00693   0.00000   0.01611   0.01611   2.70290
   R15        2.07005   0.00007   0.00000   0.00021   0.00021   2.07026
   R16        2.07033   0.00083   0.00000   0.00238   0.00238   2.07270
   R17        1.84408  -0.00859   0.00000  -0.01620  -0.01620   1.82788
   R18        2.76355   0.00582   0.00000   0.01552   0.01552   2.77907
   R19        1.92744  -0.00270   0.00000  -0.00597  -0.00597   1.92147
   R20        2.83635   0.00794   0.00000   0.02398   0.02398   2.86033
   R21        2.07318  -0.00255   0.00000  -0.00733  -0.00733   2.06585
   R22        2.07147   0.00304   0.00000   0.00869   0.00869   2.08016
   R23        2.63465   0.00116   0.00000   0.00263   0.00260   2.63725
   R24        2.63433   0.00118   0.00000   0.00269   0.00267   2.63700
   R25        2.05411  -0.00194   0.00000  -0.00539  -0.00539   2.04872
   R26        2.63545  -0.00336   0.00000  -0.00709  -0.00709   2.62836
   R27        2.05229  -0.00074   0.00000  -0.00205  -0.00205   2.05024
   R28        2.63737  -0.00036   0.00000  -0.00095  -0.00092   2.63645
   R29        2.53428   0.00695   0.00000   0.01202   0.01202   2.54630
   R30        2.63758  -0.00058   0.00000  -0.00143  -0.00140   2.63618
   R31        2.63497  -0.00323   0.00000  -0.00682  -0.00682   2.62815
   R32        2.53459   0.00805   0.00000   0.01394   0.01394   2.54853
   R33        2.05208  -0.00064   0.00000  -0.00178  -0.00178   2.05030
   R34        2.06936  -0.00034   0.00000  -0.00097  -0.00097   2.06839
   R35        2.07032  -0.00033   0.00000  -0.00095  -0.00095   2.06937
   R36        2.06723   0.00016   0.00000   0.00046   0.00046   2.06770
    A1        1.95030   0.00129   0.00000   0.00585   0.00584   1.95614
    A2        1.91500   0.00142   0.00000   0.01004   0.00998   1.92498
    A3        1.94919   0.00153   0.00000   0.00924   0.00920   1.95838
    A4        1.87516  -0.00147   0.00000  -0.00918  -0.00920   1.86596
    A5        1.89640  -0.00194   0.00000  -0.01437  -0.01436   1.88204
    A6        1.87477  -0.00105   0.00000  -0.00277  -0.00286   1.87192
    A7        2.01750   0.00131   0.00000   0.00538   0.00540   2.02290
    A8        1.89557   0.00048   0.00000   0.01241   0.01238   1.90795
    A9        1.89043   0.00121   0.00000   0.00998   0.00996   1.90039
   A10        1.91090  -0.00097   0.00000  -0.00603  -0.00613   1.90477
   A11        1.91308  -0.00261   0.00000  -0.02591  -0.02593   1.88715
   A12        1.82661   0.00055   0.00000   0.00454   0.00430   1.83091
   A13        1.98358  -0.00222   0.00000   0.00545   0.00456   1.98813
   A14        1.96495   0.00515   0.00000   0.04457   0.04430   2.00925
   A15        1.86131   0.00041   0.00000   0.00199   0.00260   1.86391
   A16        1.89167  -0.00043   0.00000   0.00903   0.00798   1.89965
   A17        1.86934   0.00049   0.00000  -0.01510  -0.01526   1.85408
   A18        1.88829  -0.00376   0.00000  -0.05288  -0.05278   1.83551
   A19        1.96786  -0.00611   0.00000  -0.03871  -0.03914   1.92872
   A20        1.91081   0.00081   0.00000  -0.01268  -0.01325   1.89756
   A21        1.94413   0.00107   0.00000   0.01124   0.01173   1.95586
   A22        1.85985   0.00014   0.00000  -0.00721  -0.00816   1.85169
   A23        1.90124   0.00524   0.00000   0.03613   0.03628   1.93753
   A24        1.87588  -0.00099   0.00000   0.01273   0.01274   1.88861
[...]
    29  H    0.000156  -0.002354  -0.003357   0.000286  -0.000115   0.000242
    30  H    0.000722   0.005599  -0.004133  -0.000266   0.000035  -0.000027
    31  H    0.004962  -0.048541   0.386981  -0.042610  -0.003791   0.004396
    32  C    0.000217  -0.003140  -0.040669   0.361965  -0.038635  -0.004038
    33  H   -0.000010   0.000259  -0.007298  -0.038359  -0.008805   0.010689
    34  H    0.000000  -0.000061   0.004108  -0.028544  -0.004165  -0.000021
    35  H    0.000067   0.000529  -0.004177  -0.032498   0.004565  -0.000006
    36  H    0.005534  -0.008176  -0.034994  -0.002672  -0.001529   0.000769
               7          8          9         10         11         12
     1  C   -0.005739  -0.001646   0.000000   0.000000  -0.000002  -0.000028
     2  C   -0.058541  -0.004072   0.000000   0.000000   0.000014   0.000137
     3  C    0.277037  -0.038108   0.000000   0.000005   0.000113   0.004172
     4  C   -0.050127   0.005227   0.000000   0.000000  -0.000038  -0.000132
     5  C    0.004889   0.000225   0.000000   0.000000   0.000028  -0.000021
     6  O   -0.023362  -0.000020   0.000000   0.000000  -0.000020   0.000122
     7  N    6.950207   0.278458   0.000029  -0.000048   0.005498  -0.053363
     8  C    0.278458   4.905053  -0.000635   0.007491  -0.055185   0.323050
     9  C    0.000029  -0.000635   4.859956   0.487530  -0.007371  -0.026932
    10  C   -0.000048   0.007491   0.487530   5.033120   0.488142  -0.080652
    11  C    0.005498  -0.055185  -0.007371   0.488142   4.608454   0.390749
    12  C   -0.053363   0.323050  -0.026932  -0.080652   0.390749   5.308563
    13  C   -0.003074  -0.049230  -0.004312  -0.047757   0.019654   0.408329
    14  C   -0.000102   0.007730   0.484045  -0.037149  -0.046228  -0.075419
    15  H    0.000000   0.000005   0.374099  -0.034482   0.003604   0.000407
    16  H    0.000003  -0.000133  -0.035805   0.361223  -0.031691   0.006116
    17  H    0.000001  -0.000125  -0.036456   0.004444   0.000307   0.006230
    18  F   -0.002034   0.003056   0.002783  -0.045012   0.292886  -0.054555
    19  F   -0.000269  -0.003092   0.002989   0.000001   0.002589  -0.053124
    20  H    0.003664   0.001478   0.000000   0.000000  -0.000006  -0.000440
    21  H    0.000284  -0.000003   0.000000   0.000000   0.000000   0.000002
    22  H   -0.000528   0.000087   0.000000   0.000000   0.000000   0.000003
    23  H    0.004696   0.000048   0.000000   0.000000   0.000000  -0.000001
    24  H   -0.003041   0.002408   0.000000   0.000000  -0.000006   0.000058
    25  H   -0.001020  -0.000133   0.000000   0.000000   0.000000   0.000004
    26  H    0.000240  -0.000007   0.000000   0.000000   0.000000   0.000000
    27  H    0.004528  -0.000160   0.000000  -0.000001   0.000009   0.000041
    28  H    0.038732  -0.000578  -0.000006   0.000050   0.001293  -0.002370
    29  H   -0.047923   0.375476   0.000010   0.000001  -0.009181  -0.024247
    30  H   -0.041897   0.360330  -0.000044  -0.000106   0.006660  -0.036587
    31  H   -0.051916  -0.006471   0.000000  -0.000001  -0.000041   0.000192
    32  C    0.003295  -0.000126   0.000000   0.000000   0.000000   0.000002
    33  H    0.000116  -0.000015   0.000000   0.000000   0.000000   0.000000
    34  H   -0.000116   0.000002   0.000000   0.000000   0.000000   0.000000
    35  H    0.000089  -0.000001   0.000000   0.000000   0.000000   0.000000
    36  H    0.328778  -0.037180  -0.000010  -0.000044  -0.000613  -0.000909
              13         14         15         16         17         18
     1  C   -0.000004   0.000000   0.000000   0.000000   0.000000   0.000000
     2  C   -0.000030   0.000000   0.000000   0.000000   0.000000  -0.000001
     3  C    0.000039   0.000004   0.000000   0.000000   0.000000  -0.000114
     4  C    0.000004   0.000000   0.000000   0.000000   0.000000   0.000013
     5  C   -0.000002   0.000000   0.000000   0.000000   0.000000  -0.000084
     6  O    0.000001   0.000000   0.000000   0.000000   0.000000  -0.000868
     7  N   -0.003074  -0.000102   0.000000   0.000003   0.000001  -0.002034
     8  C   -0.049230   0.007730   0.000005  -0.000133  -0.000125   0.003056
     9  C   -0.004312   0.484045   0.374099  -0.035805  -0.036456   0.002783
    10  C   -0.047757  -0.037149  -0.034482   0.361223   0.004444  -0.045012
    11  C    0.019654  -0.046228   0.003604  -0.031691   0.000307   0.292886
    12  C    0.408329  -0.075419   0.000407   0.006116   0.006230  -0.054555
    13  C    4.618017   0.472169   0.003555   0.000332  -0.032325   0.002643
    14  C    0.472169   5.047090  -0.034173   0.004369   0.362086   0.000000
    15  H    0.003555  -0.034173   0.579696  -0.005654  -0.005668  -0.000025
    16  H    0.000332   0.004369  -0.005654   0.582253  -0.000129  -0.000307
    17  H   -0.032325   0.362086  -0.005668  -0.000129   0.584805   0.000001
    18  F    0.002643   0.000000  -0.000025  -0.000307   0.000001   9.079955
    19  F    0.298140  -0.045095  -0.000025   0.000001  -0.000580  -0.000001
    20  H    0.000234   0.000007   0.000000   0.000000   0.000000   0.000000
    21  H    0.000000   0.000000   0.000000   0.000000   0.000000   0.000000
    22  H    0.000000   0.000000   0.000000   0.000000   0.000000   0.000000
    23  H    0.000000   0.000000   0.000000   0.000000   0.000000   0.000000
    24  H   -0.000001   0.000000   0.000000   0.000000   0.000000   0.000000
    25  H    0.000000   0.000000   0.000000   0.000000   0.000000   0.000000
    26  H    0.000000   0.000000   0.000000   0.000000   0.000000  -0.000001
    27  H   -0.000001   0.000000   0.000000   0.000000   0.000000  -0.000001
    28  H   -0.000052   0.000002   0.000000   0.000003   0.000000   0.011915
    29  H    0.004433  -0.000185   0.000000  -0.000005   0.000002   0.004480
    30  H   -0.010904   0.000277   0.000000   0.000002   0.000000   0.000155
    31  H   -0.000001   0.000000   0.000000   0.000000   0.000000  -0.000006
    32  C    0.000000   0.000000   0.000000   0.000000   0.000000   0.000000
    33  H    0.000000   0.000000   0.000000   0.000000   0.000000   0.000000
    34  H    0.000000   0.000000   0.000000   0.000000   0.000000   0.000000
    35  H    0.000000   0.000000   0.000000   0.000000   0.000000   0.000000
    36  H    0.002881  -0.000066   0.000000   0.000000   0.000000  -0.000001
              19         20         21         22         23         24
     1  C   -0.000122   0.381197   0.382408   0.385989  -0.036099  -0.041583
     2  C   -0.000008  -0.035505  -0.027466  -0.036490   0.373140   0.380006
     3  C    0.000010  -0.005718   0.003961  -0.003738  -0.032540  -0.032400
     4  C    0.000000   0.000033   0.000173   0.001448  -0.004449   0.004521
     5  C    0.000000  -0.000011   0.000003  -0.000269   0.000087  -0.000159
     6  O    0.000000   0.000001   0.000000   0.000001   0.000002   0.000002
     7  N   -0.000269   0.003664   0.000284  -0.000528   0.004696  -0.003041
     8  C   -0.003092   0.001478  -0.000003   0.000087   0.000048   0.002408
     9  C    0.002989   0.000000   0.000000   0.000000   0.000000   0.000000
    10  C    0.000001   0.000000   0.000000   0.000000   0.000000   0.000000
    11  C    0.002589  -0.000006   0.000000   0.000000   0.000000  -0.000006
    12  C   -0.053124  -0.000440   0.000002   0.000003  -0.000001   0.000058
    13  C    0.298140   0.000234   0.000000   0.000000   0.000000  -0.000001
    14  C   -0.045095   0.000007   0.000000   0.000000   0.000000   0.000000
    15  H   -0.000025   0.000000   0.000000   0.000000   0.000000   0.000000
    16  H    0.000001   0.000000   0.000000   0.000000   0.000000   0.000000
    17  H   -0.000580   0.000000   0.000000   0.000000   0.000000   0.000000
    18  F   -0.000001   0.000000   0.000000   0.000000   0.000000   0.000000
    19  F    9.088516   0.000911   0.000000   0.000000   0.000000  -0.000007
    20  H    0.000911   0.609244  -0.030061  -0.033778   0.005409  -0.005675
    21  H    0.000000  -0.030061   0.597393  -0.030141  -0.003717  -0.002655
    22  H    0.000000  -0.033778  -0.030141   0.600544  -0.004115   0.005445
    23  H    0.000000   0.005409  -0.003717  -0.004115   0.629075  -0.036221
    24  H   -0.000007  -0.005675  -0.002655   0.005445  -0.036221   0.635871
    25  H    0.000000   0.000080  -0.000212   0.005131  -0.000043   0.000213
    26  H    0.000000   0.000000   0.000000   0.000014  -0.000008   0.000003
    27  H    0.000000  -0.000029   0.000000   0.000022  -0.000010   0.000000
    28  H    0.000000  -0.000004   0.000000  -0.000001  -0.000023  -0.000002
    29  H    0.000221   0.000030   0.000001  -0.000004   0.000017   0.000420
    30  H    0.009110  -0.000124  -0.000124  -0.000028  -0.000255   0.000391
    31  H    0.000000   0.000082  -0.000139   0.000004  -0.000359  -0.005815
    32  C    0.000000  -0.000013  -0.000013   0.000031   0.000173   0.000042
    33  H    0.000000   0.000001   0.000000   0.000001   0.000002  -0.000004
    34  H    0.000000   0.000000   0.000000   0.000005  -0.000176   0.000006
    35  H    0.000000   0.000001  -0.000001  -0.000023   0.004451  -0.000224
    36  H    0.000262   0.003240  -0.000164   0.000289   0.000067  -0.000011
              25         26         27         28         29         30
     1  C    0.001273  -0.000007  -0.000053  -0.000004   0.000156   0.000722
     2  C   -0.007283  -0.000071   0.000391   0.000507  -0.002354   0.005599
     3  C   -0.044608   0.005059  -0.006775   0.001430  -0.003357  -0.004133
     4  C    0.357434  -0.043082  -0.050514  -0.009428   0.000286  -0.000266
     5  C   -0.034378   0.386273   0.368050  -0.036738  -0.000115   0.000035
     6  O    0.003555  -0.037530  -0.035326   0.277641   0.000242  -0.000027
     7  N   -0.001020   0.000240   0.004528   0.038732  -0.047923  -0.041897
     8  C   -0.000133  -0.000007  -0.000160  -0.000578   0.375476   0.360330
     9  C    0.000000   0.000000   0.000000  -0.000006   0.000010  -0.000044
    10  C    0.000000   0.000000  -0.000001   0.000050   0.000001  -0.000106
    11  C    0.000000   0.000000   0.000009   0.001293  -0.009181   0.006660
    12  C    0.000004   0.000000   0.000041  -0.002370  -0.024247  -0.036587
    13  C    0.000000   0.000000  -0.000001  -0.000052   0.004433  -0.010904
    14  C    0.000000   0.000000   0.000000   0.000002  -0.000185   0.000277
    15  H    0.000000   0.000000   0.000000   0.000000   0.000000   0.000000
    16  H    0.000000   0.000000   0.000000   0.000003  -0.000005   0.000002
    17  H    0.000000   0.000000   0.000000   0.000000   0.000002   0.000000
    18  F    0.000000  -0.000001  -0.000001   0.011915   0.004480   0.000155
    19  F    0.000000   0.000000   0.000000   0.000000   0.000221   0.009110
    20  H    0.000080   0.000000  -0.000029  -0.000004   0.000030  -0.000124
    21  H   -0.000212   0.000000   0.000000   0.000000   0.000001  -0.000124
    22  H    0.005131   0.000014   0.000022  -0.000001  -0.000004  -0.000028
    23  H   -0.000043  -0.000008  -0.000010  -0.000023   0.000017  -0.000255
    24  H    0.000213   0.000003   0.000000  -0.000002   0.000420   0.000391
    25  H    0.669676   0.001154  -0.000854  -0.000141   0.000005  -0.000005
    26  H    0.001154   0.642039  -0.046030   0.006839   0.000000   0.000000
    27  H   -0.000854  -0.046030   0.692349  -0.007191  -0.000014   0.000013
    28  H   -0.000141   0.006839  -0.007191   0.398570  -0.000914   0.000316
    29  H    0.000005   0.000000  -0.000014  -0.000914   0.606377  -0.044850
    30  H   -0.000005   0.000000   0.000013   0.000316  -0.044850   0.653869
    31  H    0.006645  -0.000063  -0.000019  -0.001491   0.008481  -0.001195
    32  C   -0.041759  -0.009274   0.006142   0.000182  -0.000014   0.000004
    33  H    0.006032  -0.000114   0.000497  -0.000149  -0.000006   0.000000
    34  H   -0.004266   0.004133  -0.000044  -0.000021   0.000000   0.000000
    35  H   -0.002648   0.000057  -0.000206   0.000003   0.000000   0.000000
    36  H    0.001974  -0.000044   0.001034  -0.001473   0.006912  -0.005889
              31         32         33         34         35         36
     1  C    0.004962   0.000217  -0.000010   0.000000   0.000067   0.005534
     2  C   -0.048541  -0.003140   0.000259  -0.000061   0.000529  -0.008176
     3  C    0.386981  -0.040669  -0.007298   0.004108  -0.004177  -0.034994
     4  C   -0.042610   0.361965  -0.038359  -0.028544  -0.032498  -0.002672
     5  C   -0.003791  -0.038635  -0.008805  -0.004165   0.004565  -0.001529
     6  O    0.004396  -0.004038   0.010689  -0.000021  -0.000006   0.000769
     7  N   -0.051916   0.003295   0.000116  -0.000116   0.000089   0.328778
     8  C   -0.006471  -0.000126  -0.000015   0.000002  -0.000001  -0.037180
     9  C    0.000000   0.000000   0.000000   0.000000   0.000000  -0.000010
    10  C   -0.000001   0.000000   0.000000   0.000000   0.000000  -0.000044
    11  C   -0.000041   0.000000   0.000000   0.000000   0.000000  -0.000613
    12  C    0.000192   0.000002   0.000000   0.000000   0.000000  -0.000909
    13  C   -0.000001   0.000000   0.000000   0.000000   0.000000   0.002881
    14  C    0.000000   0.000000   0.000000   0.000000   0.000000  -0.000066
    15  H    0.000000   0.000000   0.000000   0.000000   0.000000   0.000000
    16  H    0.000000   0.000000   0.000000   0.000000   0.000000   0.000000
    17  H    0.000000   0.000000   0.000000   0.000000   0.000000   0.000000
    18  F   -0.000006   0.000000   0.000000   0.000000   0.000000  -0.000001
    19  F    0.000000   0.000000   0.000000   0.000000   0.000000   0.000262
    20  H    0.000082  -0.000013   0.000001   0.000000   0.000001   0.003240
    21  H   -0.000139  -0.000013   0.000000   0.000000  -0.000001  -0.000164
    22  H    0.000004   0.000031   0.000001   0.000005  -0.000023   0.000289
    23  H   -0.000359   0.000173   0.000002  -0.000176   0.004451   0.000067
    24  H   -0.005815   0.000042  -0.000004   0.000006  -0.000224  -0.000011
    25  H    0.006645  -0.041759   0.006032  -0.004266  -0.002648   0.001974
    26  H   -0.000063  -0.009274  -0.000114   0.004133   0.000057  -0.000044
    27  H   -0.000019   0.006142   0.000497  -0.000044  -0.000206   0.001034
    28  H   -0.001491   0.000182  -0.000149  -0.000021   0.000003  -0.001473
    29  H    0.008481  -0.000014  -0.000006   0.000000   0.000000   0.006912
    30  H   -0.001195   0.000004   0.000000   0.000000   0.000000  -0.005889
    31  H    0.646758  -0.008286   0.005630   0.000207   0.000037   0.007162
    32  C   -0.008286   4.960559   0.381447   0.377307   0.379579  -0.000052
    33  H    0.005630   0.381447   0.596507  -0.030104  -0.031917   0.000008
    34  H    0.000207   0.377307  -0.030104   0.611764  -0.031089   0.000007
    35  H    0.000037   0.379579  -0.031917  -0.031089   0.612892  -0.000004
    36  H    0.007162  -0.000052   0.000008   0.000007  -0.000004   0.480974
 Mulliken charges:
               1
     1  C   -0.334302
     2  C   -0.186187
     3  C    0.088441
     4  C   -0.085887
     5  C    0.065553
     6  O   -0.586831
     7  N   -0.557446
     8  C   -0.073201
     9  C   -0.099868
    10  C   -0.136757
    11  C    0.330383
    12  C   -0.039397
    13  C    0.317262
    14  C   -0.139363
    15  H    0.118660
    16  H    0.119420
    17  H    0.117409
    18  F   -0.294877
    19  F   -0.300428
    20  H    0.105753
    21  H    0.110472
    22  H    0.110100
    23  H    0.100850
    24  H    0.098419
    25  H    0.084175
    26  H    0.090418
    27  H    0.074153
    28  H    0.323104
    29  H    0.125615
    30  H    0.108951
    31  H    0.099209
    32  C   -0.324927
    33  H    0.115593
    34  H    0.101068
    35  H    0.100523
    36  H    0.253940
 Sum of Mulliken charges =   0.00000
 Mulliken charges with hydrogens summed into heavy atoms:
               1
     1  C   -0.007977
     2  C    0.013081
     3  C    0.187650
     4  C   -0.001712
     5  C    0.230125
     6  O   -0.263726
     7  N   -0.303506
     8  C    0.161365
     9  C    0.018791
    10  C   -0.017337
    11  C    0.330383
    12  C   -0.039397
    13  C    0.317262
    14  C   -0.021954
    18  F   -0.294877
    19  F   -0.300428
    32  C   -0.007742
 Electronic spatial extent (au):  <R**2>=           4933.9906
 Charge=              0.0000 electrons
 Dipole moment (field-independent basis, Debye):
    X=             -1.9702    Y=              3.0338    Z=             -0.5217  Tot=              3.6548
 Quadrupole moment (field-independent basis, Debye-Ang):
   XX=            -88.2459   YY=           -110.6192   ZZ=            -98.9684
   XY=              9.4379   XZ=              2.2444   YZ=              0.1895
 Traceless Quadrupole moment (field-independent basis, Debye-Ang):
   XX=             11.0319   YY=            -11.3414   ZZ=              0.3095
   XY=              9.4379   XZ=              2.2444   YZ=              0.1895
 Octapole moment (field-independent basis, Debye-Ang**2):
  XXX=            -70.8717  YYY=             15.1908  ZZZ=              5.2346  XYY=            -24.7456
  XXY=             -4.3480  XXZ=            -22.1591  XZZ=              1.5349  YZZ=             -0.1467
  YYZ=              2.2926  XYZ=              1.8756
 Hexadecapole moment (field-independent basis, Debye-Ang**3):
 XXXX=          -4207.9785 YYYY=          -1579.8229 ZZZZ=           -386.5436 XXXY=             19.7009
 XXXZ=             73.8301 YYYX=             59.5770 YYYZ=            -16.9666 ZZZX=            -14.7764
 ZZZY=            -16.2111 XXYY=           -988.8526 XXZZ=           -820.1608 YYZZ=           -316.5006
 XXYZ=              1.8131 YYXZ=              6.1967 ZZXY=            -22.8572
 N-N= 1.283067136973D+03 E-N=-4.519907711748D+03  KE= 8.290852244695D+02
 1\1\GINC-SWANNODE-0-15\FOpt\RB3LYP\6-31G(d,p)\C13H19F2N1O1\KE291\06-Ma
 r-2019\0\\# b3lyp/6-31g(d,p) Opt=(maxcycles=50) scrf=(solvent=chlorofo
 rm)\\AT3_1ginp018\\0,1\C,-1.8867916371,0.6381976151,0.2533298631\C,-1.
 3613730456,0.0581884314,1.5724799359\C,-0.5016316105,1.0288633731,2.42
 16701399\C,-1.3598434318,2.1172641359,3.133288889\C,-0.5506264646,3.39
 21692013,3.44963275\O,0.680667821,3.122066098,4.1061511638\N,0.6247429
 122,1.6447600195,1.6889758323\C,1.6215139168,0.6915915602,1.1789709689
 \C,4.9533868333,2.851184641,-0.5597673609\C,4.8065677661,2.80117677,0.
 8282687625\C,3.7307739202,2.0967684763,1.351080718\C,2.7879880998,1.42
 75109639,0.5668722891\C,2.9807272767,1.5213087458,-0.812168676\C,4.038
 7375202,2.2098391696,-1.3951071483\H,5.7860732707,3.3957121379,-0.9923
 531457\H,5.5024936606,3.292905113,1.4979186602\H,4.1294889206,2.237520
 2004,-2.4747272558\F,3.5831999152,2.0419106674,2.6963200254\F,2.086678
 1539,0.9065706993,-1.6237381731\H,-1.0716594296,0.8921035034,-0.433365
 6371\H,-2.5232929,-0.0902618062,-0.258207365\H,-2.4851020206,1.5422168
 129,0.4090820747\H,-2.2056896951,-0.2806096658,2.1842607084\H,-0.77518
 88454,-0.8429891049,1.3555833493\H,-2.1738698473,2.4239221261,2.460920
 7394\H,-1.1365837791,4.0327792696,4.1190324849\H,-0.3806928928,3.96574
 09141,2.5263425186\H,1.2014080847,2.6655545981,3.4184013058\H,1.974625
 8108,0.1015836363,2.0317763774\H,1.2211595762,-0.0136780048,0.43978582
 97\H,-0.0282033893,0.4345102832,3.2147615102\C,-1.979382097,1.54653456
 69,4.4184257211\H,-1.1963708138,1.384054255,5.166623671\H,-2.711391219
 8,2.242546326,4.8414600609\H,-2.4895292348,0.5932937942,4.2471389217\H
 ,0.2751458951,2.2049064768,0.9137814907\\Version=EM64L-G09RevD.01\Stat
 e=1-A\HF=-836.4980796\RMSD=5.591e-09\RMSF=4.357e-06\Dipole=0.0799044,-
 0.348029,-1.3928614\Quadrupole=8.5124178,-0.9433549,-7.5690629,3.04976
 59,-3.7678453,-5.6950322\PG=C01 [X(C13H19F2N1O1)]\\@


 TRUTH, IN SCIENCE, CAN BE DEFINED AS THE WORKING HYPOTHESIS 
 BEST FITTED TO OPEN THE WAY TO THE NEXT BETTER ONE.

                              -- KONRAD LORENZ
 Job cpu time:       0 days  3 hours  1 minutes 23.2 seconds.
 File lengths (MBytes):  RWF=    182 Int=      0 D2E=      0 Chk=     12 Scr=      1
 Normal termination of Gaussian 09 at Wed Mar  6 12:27:48 2019.
