 Entering Gaussian System, Link 0=/usr/local/shared/gaussian/em64t/09-D01/g09/g09
 Initial command:
 /usr/local/shared/gaussian/em64t/09-D01/g09/l1.exe "/scratch/ke291/AT3_1ginp004/Gau-5489.inp" -scrdir="/scratch/ke291/AT3_1ginp004/"
 Entering Link 1 = /usr/local/shared/gaussian/em64t/09-D01/g09/l1.exe PID=      5500.
  
 Copyright (c) 1988,1990,1992,1993,1995,1998,2003,2009,2013,
            Gaussian, Inc.  All Rights Reserved.
  
 This is part of the Gaussian(R) 09 program.  It is based on
 the Gaussian(R) 03 system (copyright 2003, Gaussian, Inc.),
 the Gaussian(R) 98 system (copyright 1998, Gaussian, Inc.),
 the Gaussian(R) 94 system (copyright 1995, Gaussian, Inc.),
 the Gaussian 92(TM) system (copyright 1992, Gaussian, Inc.),
 the Gaussian 90(TM) system (copyright 1990, Gaussian, Inc.),
 the Gaussian 88(TM) system (copyright 1988, Gaussian, Inc.),
 the Gaussian 86(TM) system (copyright 1986, Carnegie Mellon
 University), and the Gaussian 82(TM) system (copyright 1983,
 Carnegie Mellon University). Gaussian is a federally registered
 trademark of Gaussian, Inc.
  
 This software contains proprietary and confidential information,
 including trade secrets, belonging to Gaussian, Inc.
  
 This software is provided under written license and may be
 used, copied, transmitted, or stored only in accord with that
 written license.
  
 The following legend is applicable only to US Government
 contracts under FAR:
  
                    RESTRICTED RIGHTS LEGEND
  
 Use, reproduction and disclosure by the US Government is
 subject to restrictions as set forth in subparagraphs (a)
 and (c) of the Commercial Computer Software - Restricted
 Rights clause in FAR 52.227-19.
  
 Gaussian, Inc.
 340 Quinnipiac St., Bldg. 40, Wallingford CT 06492
  
  
 ---------------------------------------------------------------
 Warning -- This program may not be used in any manner that
 competes with the business of Gaussian, Inc. or will provide
 assistance to any competitor of Gaussian, Inc.  The licensee
 of this program is prohibited from giving any competitor of
 Gaussian, Inc. access to this program.  By using this program,
 the user acknowledges that Gaussian, Inc. is engaged in the
 business of creating and licensing software in the field of
 computational chemistry and represents and warrants to the
 licensee that it is not a competitor of Gaussian, Inc. and that
 it will not use this program in any manner prohibited above.
 ---------------------------------------------------------------
  

 Cite this work as:
 Gaussian 09, Revision D.01,
 M. J. Frisch, G. W. Trucks, H. B. Schlegel, G. E. Scuseria, 
 M. A. Robb, J. R. Cheeseman, G. Scalmani, V. Barone, B. Mennucci, 
 G. A. Petersson, H. Nakatsuji, M. Caricato, X. Li, H. P. Hratchian, 
 A. F. Izmaylov, J. Bloino, G. Zheng, J. L. Sonnenberg, M. Hada, 
 M. Ehara, K. Toyota, R. Fukuda, J. Hasegawa, M. Ishida, T. Nakajima, 
 Y. Honda, O. Kitao, H. Nakai, T. Vreven, J. A. Montgomery, Jr., 
 J. E. Peralta, F. Ogliaro, M. Bearpark, J. J. Heyd, E. Brothers, 
 K. N. Kudin, V. N. Staroverov, T. Keith, R. Kobayashi, J. Normand, 
 K. Raghavachari, A. Rendell, J. C. Burant, S. S. Iyengar, J. Tomasi, 
 M. Cossi, N. Rega, J. M. Millam, M. Klene, J. E. Knox, J. B. Cross, 
 V. Bakken, C. Adamo, J. Jaramillo, R. Gomperts, R. E. Stratmann, 
 O. Yazyev, A. J. Austin, R. Cammi, C. Pomelli, J. W. Ochterski, 
 R. L. Martin, K. Morokuma, V. G. Zakrzewski, G. A. Voth, 
 P. Salvador, J. J. Dannenberg, S. Dapprich, A. D. Daniels, 
 O. Farkas, J. B. Foresman, J. V. Ortiz, J. Cioslowski, 
 and D. J. Fox, Gaussian, Inc., Wallingford CT, 2013.
 
 ******************************************
 Gaussian 09:  EM64L-G09RevD.01 24-Apr-2013
                 6-Mar-2019 
 ******************************************
 %nprocshared=2
 Will use up to    2 processors via shared memory.
 %mem=6000MB
 %chk=AT3_1ginp004.chk
 ---------------------------------------------------------------
 # b3lyp/6-31g(d,p) Opt=(maxcycles=50) scrf=(solvent=chloroform)
 ---------------------------------------------------------------
 1/6=50,14=-1,18=20,19=15,26=3,38=1/1,3;
 2/9=110,12=2,17=6,18=5,40=1/2;
 3/5=1,6=6,7=101,11=2,16=1,25=1,30=1,70=2201,71=1,72=7,74=-5/1,2,3;
 4//1;
 5/5=2,38=5,53=7/2;
 6/7=2,8=2,9=2,10=2,28=1/1;
 7//1,2,3,16;
 1/6=50,14=-1,18=20,19=15,26=3/3(2);
 2/9=110/2;
 99//99;
 2/9=110/2;
 3/5=1,6=6,7=101,11=2,16=1,25=1,30=1,70=2205,71=1,72=7,74=-5/1,2,3;
 4/5=5,16=3,69=1/1;
 5/5=2,38=5,53=7/2;
 7//1,2,3,16;
 1/6=50,14=-1,18=20,19=15,26=3/3(-5);
 2/9=110/2;
 6/7=2,8=2,9=2,10=2,19=2,28=1/1;
 99/9=1/99;
 ------------
 AT3_1ginp004
 ------------
 Symbolic Z-matrix:
 Charge =  0 Multiplicity = 1
 C                    -1.81561   0.32222   0.63407 
 C                    -0.99915   1.58841   0.86212 
 C                     0.11429   1.44347   1.92933 
 C                    -0.43196   0.93272   3.30489 
 C                    -1.46325   1.87216   3.95463 
 O                    -0.91324   3.14755   4.25554 
 N                     0.83902   2.72194   2.11063 
 C                     1.58637   3.19771   0.93607 
 C                     4.86473   0.65219  -0.26841 
 C                     3.78069   0.85217  -1.12149 
 C                     2.72664   1.67474  -0.72451 
 C                     2.72376   2.30941   0.51842 
 C                     3.82142   2.09793   1.35555 
 C                     4.88404   1.27902   0.97607 
 H                     5.68963   0.01261  -0.5721 
 H                     3.74743   0.37376  -2.09603 
 H                     5.7193    1.13687   1.65554 
 F                     1.69878   1.84709  -1.56765 
 F                     3.86203   2.68504   2.56059 
 H                    -2.45642   0.09382   1.49028 
 H                    -2.46932   0.45129  -0.23491 
 H                    -1.16471  -0.53653   0.4425 
 H                    -0.55212   1.84701  -0.10396 
 H                    -1.67598   2.41217   1.11798 
 H                    -0.93381  -0.02705   3.13016 
 H                    -1.83098   1.44105   4.89188 
 H                    -2.33273   2.01896   3.30723 
 H                    -0.41542   3.42355   3.45621 
 H                     0.9104    3.40664   0.10058 
 H                     2.00993   4.1781    1.19084 
 H                     0.81877   0.67955   1.57541 
 C                     0.70461   0.62524   4.29377 
 H                     1.45264  -0.02963   3.83466 
 H                     1.21059   1.52833   4.64797 
 H                     0.30915   0.10771   5.1749 
 H                     1.5237    2.6169    2.86481 
 

 GradGradGradGradGradGradGradGradGradGradGradGradGradGradGradGradGradGrad
 Berny optimization.
 Initialization pass.
                           ----------------------------
                           !    Initial Parameters    !
                           ! (Angstroms and Degrees)  !
 --------------------------                            --------------------------
 ! Name  Definition              Value          Derivative Info.                !
 --------------------------------------------------------------------------------
 ! R1    R(1,2)                  1.5238         estimate D2E/DX2                !
 ! R2    R(1,20)                 1.0936         estimate D2E/DX2                !
 ! R3    R(1,21)                 1.095          estimate D2E/DX2                !
 ! R4    R(1,22)                 1.0944         estimate D2E/DX2                !
 ! R5    R(2,3)                  1.5491         estimate D2E/DX2                !
 ! R6    R(2,23)                 1.0955         estimate D2E/DX2                !
 ! R7    R(2,24)                 1.0964         estimate D2E/DX2                !
 ! R8    R(3,4)                  1.5657         estimate D2E/DX2                !
 ! R9    R(3,7)                  1.4807         estimate D2E/DX2                !
 ! R10   R(3,31)                 1.0978         estimate D2E/DX2                !
 ! R11   R(4,5)                  1.5389         estimate D2E/DX2                !
 ! R12   R(4,25)                 1.0971         estimate D2E/DX2                !
 ! R13   R(4,32)                 1.5376         estimate D2E/DX2                !
 ! R14   R(5,6)                  1.4212         estimate D2E/DX2                !
 ! R15   R(5,26)                 1.0952         estimate D2E/DX2                !
 ! R16   R(5,27)                 1.0939         estimate D2E/DX2                !
 ! R17   R(6,28)                 0.9813         estimate D2E/DX2                !
 ! R18   R(7,8)                  1.4712         estimate D2E/DX2                !
 ! R19   R(7,36)                 1.024          estimate D2E/DX2                !
 ! R20   R(8,12)                 1.5024         estimate D2E/DX2                !
 ! R21   R(8,29)                 1.0948         estimate D2E/DX2                !
 ! R22   R(8,30)                 1.0979         estimate D2E/DX2                !
 ! R23   R(9,10)                 1.3939         estimate D2E/DX2                !
 ! R24   R(9,14)                 1.3936         estimate D2E/DX2                !
 ! R25   R(9,15)                 1.0871         estimate D2E/DX2                !
 ! R26   R(10,11)                1.3947         estimate D2E/DX2                !
 ! R27   R(10,16)                1.0861         estimate D2E/DX2                !
 ! R28   R(11,12)                1.3956         estimate D2E/DX2                !
 ! R29   R(11,18)                1.3406         estimate D2E/DX2                !
 ! R30   R(12,13)                1.3966         estimate D2E/DX2                !
 ! R31   R(13,14)                1.3942         estimate D2E/DX2                !
 ! R32   R(13,19)                1.3411         estimate D2E/DX2                !
 ! R33   R(14,17)                1.0861         estimate D2E/DX2                !
 ! R34   R(32,33)                1.0951         estimate D2E/DX2                !
 ! R35   R(32,34)                1.0941         estimate D2E/DX2                !
 ! R36   R(32,35)                1.0957         estimate D2E/DX2                !
 ! A1    A(2,1,20)             111.7377         estimate D2E/DX2                !
 ! A2    A(2,1,21)             109.9193         estimate D2E/DX2                !
 ! A3    A(2,1,22)             111.0717         estimate D2E/DX2                !
 ! A4    A(20,1,21)            107.2246         estimate D2E/DX2                !
 ! A5    A(20,1,22)            108.7637         estimate D2E/DX2                !
 ! A6    A(21,1,22)            107.9754         estimate D2E/DX2                !
 ! A7    A(1,2,3)              114.2357         estimate D2E/DX2                !
 ! A8    A(1,2,23)             106.4293         estimate D2E/DX2                !
 ! A9    A(1,2,24)             109.1765         estimate D2E/DX2                !
 ! A10   A(3,2,23)             109.654          estimate D2E/DX2                !
 ! A11   A(3,2,24)             110.6848         estimate D2E/DX2                !
 ! A12   A(23,2,24)            106.2805         estimate D2E/DX2                !
 ! A13   A(2,3,4)              112.6445         estimate D2E/DX2                !
 ! A14   A(2,3,7)              110.8155         estimate D2E/DX2                !
 ! A15   A(2,3,31)             107.7131         estimate D2E/DX2                !
 ! A16   A(4,3,7)              110.1722         estimate D2E/DX2                !
 ! A17   A(4,3,31)             106.2682         estimate D2E/DX2                !
 ! A18   A(7,3,31)             109.0388         estimate D2E/DX2                !
 ! A19   A(3,4,5)              113.9286         estimate D2E/DX2                !
 ! A20   A(3,4,25)             107.7616         estimate D2E/DX2                !
 ! A21   A(3,4,32)             111.8616         estimate D2E/DX2                !
 ! A22   A(5,4,25)             107.1427         estimate D2E/DX2                !
 ! A23   A(5,4,32)             110.2366         estimate D2E/DX2                !
 ! A24   A(25,4,32)            105.4042         estimate D2E/DX2                !
 ! A25   A(4,5,6)              112.2027         estimate D2E/DX2                !
 ! A26   A(4,5,26)             110.2438         estimate D2E/DX2                !
 ! A27   A(4,5,27)             111.3884         estimate D2E/DX2                !
 ! A28   A(6,5,26)             107.5779         estimate D2E/DX2                !
 ! A29   A(6,5,27)             108.2095         estimate D2E/DX2                !
 ! A30   A(26,5,27)            107.0025         estimate D2E/DX2                !
 ! A31   A(5,6,28)             106.0378         estimate D2E/DX2                !
 ! A32   A(3,7,8)              115.4732         estimate D2E/DX2                !
 ! A33   A(3,7,36)             109.199          estimate D2E/DX2                !
 ! A34   A(8,7,36)             106.3502         estimate D2E/DX2                !
 ! A35   A(7,8,12)             114.5386         estimate D2E/DX2                !
 ! A36   A(7,8,29)             110.9359         estimate D2E/DX2                !
 ! A37   A(7,8,30)             107.4262         estimate D2E/DX2                !
 ! A38   A(12,8,29)            111.5989         estimate D2E/DX2                !
 ! A39   A(12,8,30)            107.4823         estimate D2E/DX2                !
 ! A40   A(29,8,30)            104.1739         estimate D2E/DX2                !
 ! A41   A(10,9,14)            119.5239         estimate D2E/DX2                !
 ! A42   A(10,9,15)            120.2373         estimate D2E/DX2                !
 ! A43   A(14,9,15)            120.2388         estimate D2E/DX2                !
 ! A44   A(9,10,11)            119.879          estimate D2E/DX2                !
 ! A45   A(9,10,16)            120.6475         estimate D2E/DX2                !
 ! A46   A(11,10,16)           119.4735         estimate D2E/DX2                !
 ! A47   A(10,11,12)           121.5521         estimate D2E/DX2                !
 ! A48   A(10,11,18)           118.4418         estimate D2E/DX2                !
 ! A49   A(12,11,18)           120.0061         estimate D2E/DX2                !
 ! A50   A(8,12,11)            121.2007         estimate D2E/DX2                !
 ! A51   A(8,12,13)            121.1931         estimate D2E/DX2                !
 ! A52   A(11,12,13)           117.6041         estimate D2E/DX2                !
 ! A53   A(12,13,14)           121.6576         estimate D2E/DX2                !
 ! A54   A(12,13,19)           119.7441         estimate D2E/DX2                !
 ! A55   A(14,13,19)           118.5969         estimate D2E/DX2                !
 ! A56   A(9,14,13)            119.7826         estimate D2E/DX2                !
 ! A57   A(9,14,17)            120.6957         estimate D2E/DX2                !
 ! A58   A(13,14,17)           119.5217         estimate D2E/DX2                !
 ! A59   A(4,32,33)            110.7862         estimate D2E/DX2                !
 ! A60   A(4,32,34)            112.6433         estimate D2E/DX2                !
 ! A61   A(4,32,35)            110.1724         estimate D2E/DX2                !
 ! A62   A(33,32,34)           108.2672         estimate D2E/DX2                !
 ! A63   A(33,32,35)           107.5308         estimate D2E/DX2                !
 ! A64   A(34,32,35)           107.2428         estimate D2E/DX2                !
 ! D1    D(20,1,2,3)            69.9943         estimate D2E/DX2                !
 ! D2    D(20,1,2,23)         -168.8551         estimate D2E/DX2                !
 ! D3    D(20,1,2,24)          -54.525          estimate D2E/DX2                !
 ! D4    D(21,1,2,3)          -171.0879         estimate D2E/DX2                !
 ! D5    D(21,1,2,23)          -49.9372         estimate D2E/DX2                !
 ! D6    D(21,1,2,24)           64.3929         estimate D2E/DX2                !
 ! D7    D(22,1,2,3)           -51.6557         estimate D2E/DX2                !
 ! D8    D(22,1,2,23)           69.4949         estimate D2E/DX2                !
 ! D9    D(22,1,2,24)         -176.175          estimate D2E/DX2                !
 ! D10   D(1,2,3,4)            -54.845          estimate D2E/DX2                !
 ! D11   D(1,2,3,7)           -178.7858         estimate D2E/DX2                !
 ! D12   D(1,2,3,31)            62.0194         estimate D2E/DX2                !
 ! D13   D(23,2,3,4)          -174.1943         estimate D2E/DX2                !
 ! D14   D(23,2,3,7)            61.865          estimate D2E/DX2                !
 ! D15   D(23,2,3,31)          -57.3299         estimate D2E/DX2                !
 ! D16   D(24,2,3,4)            68.8668         estimate D2E/DX2                !
 ! D17   D(24,2,3,7)           -55.0739         estimate D2E/DX2                !
 ! D18   D(24,2,3,31)         -174.2688         estimate D2E/DX2                !
 ! D19   D(2,3,4,5)            -61.3798         estimate D2E/DX2                !
 ! D20   D(2,3,4,25)            57.3545         estimate D2E/DX2                !
 ! D21   D(2,3,4,32)           172.7621         estimate D2E/DX2                !
 ! D22   D(7,3,4,5)             62.9159         estimate D2E/DX2                !
 ! D23   D(7,3,4,25)          -178.3499         estimate D2E/DX2                !
 ! D24   D(7,3,4,32)           -62.9423         estimate D2E/DX2                !
 ! D25   D(31,3,4,5)          -179.0999         estimate D2E/DX2                !
 ! D26   D(31,3,4,25)          -60.3656         estimate D2E/DX2                !
 ! D27   D(31,3,4,32)           55.042          estimate D2E/DX2                !
 ! D28   D(2,3,7,8)            -64.1468         estimate D2E/DX2                !
 ! D29   D(2,3,7,36)           176.1125         estimate D2E/DX2                !
 ! D30   D(4,3,7,8)            170.5094         estimate D2E/DX2                !
 ! D31   D(4,3,7,36)            50.7686         estimate D2E/DX2                !
 ! D32   D(31,3,7,8)            54.2467         estimate D2E/DX2                !
 ! D33   D(31,3,7,36)          -65.494          estimate D2E/DX2                !
 ! D34   D(3,4,5,6)            -62.1746         estimate D2E/DX2                !
 ! D35   D(3,4,5,26)           177.9453         estimate D2E/DX2                !
 ! D36   D(3,4,5,27)            59.3147         estimate D2E/DX2                !
 ! D37   D(25,4,5,6)           178.7388         estimate D2E/DX2                !
 ! D38   D(25,4,5,26)           58.8587         estimate D2E/DX2                !
 ! D39   D(25,4,5,27)          -59.7719         estimate D2E/DX2                !
 ! D40   D(32,4,5,6)            64.5354         estimate D2E/DX2                !
 ! D41   D(32,4,5,26)          -55.3447         estimate D2E/DX2                !
 ! D42   D(32,4,5,27)         -173.9753         estimate D2E/DX2                !
 ! D43   D(3,4,32,33)          -51.1976         estimate D2E/DX2                !
 ! D44   D(3,4,32,34)           70.2432         estimate D2E/DX2                !
 ! D45   D(3,4,32,35)         -170.0594         estimate D2E/DX2                !
 ! D46   D(5,4,32,33)         -179.0542         estimate D2E/DX2                !
 ! D47   D(5,4,32,34)          -57.6135         estimate D2E/DX2                !
 ! D48   D(5,4,32,35)           62.084          estimate D2E/DX2                !
 ! D49   D(25,4,32,33)          65.6417         estimate D2E/DX2                !
 ! D50   D(25,4,32,34)        -172.9176         estimate D2E/DX2                !
 ! D51   D(25,4,32,35)         -53.2201         estimate D2E/DX2                !
 ! D52   D(4,5,6,28)            46.1366         estimate D2E/DX2                !
 ! D53   D(26,5,6,28)          167.5581         estimate D2E/DX2                !
 ! D54   D(27,5,6,28)          -77.1569         estimate D2E/DX2                !
 ! D55   D(3,7,8,12)           -64.5725         estimate D2E/DX2                !
 ! D56   D(3,7,8,29)            62.8669         estimate D2E/DX2                !
 ! D57   D(3,7,8,30)           176.1248         estimate D2E/DX2                !
 ! D58   D(36,7,8,12)           56.7179         estimate D2E/DX2                !
 ! D59   D(36,7,8,29)         -175.8428         estimate D2E/DX2                !
 ! D60   D(36,7,8,30)          -62.5848         estimate D2E/DX2                !
 ! D61   D(7,8,12,11)          116.7203         estimate D2E/DX2                !
 ! D62   D(7,8,12,13)          -63.8169         estimate D2E/DX2                !
 ! D63   D(29,8,12,11)         -10.3799         estimate D2E/DX2                !
 ! D64   D(29,8,12,13)         169.083          estimate D2E/DX2                !
 ! D65   D(30,8,12,11)        -124.0084         estimate D2E/DX2                !
 ! D66   D(30,8,12,13)          55.4544         estimate D2E/DX2                !
 ! D67   D(14,9,10,11)          -0.0304         estimate D2E/DX2                !
 ! D68   D(14,9,10,16)         179.9131         estimate D2E/DX2                !
 ! D69   D(15,9,10,11)        -179.9716         estimate D2E/DX2                !
 ! D70   D(15,9,10,16)          -0.0281         estimate D2E/DX2                !
 ! D71   D(10,9,14,13)           0.0202         estimate D2E/DX2                !
 ! D72   D(10,9,14,17)        -179.9729         estimate D2E/DX2                !
 ! D73   D(15,9,14,13)         179.9614         estimate D2E/DX2                !
 ! D74   D(15,9,14,17)          -0.0318         estimate D2E/DX2                !
 ! D75   D(9,10,11,12)          -0.1362         estimate D2E/DX2                !
 ! D76   D(9,10,11,18)         179.9887         estimate D2E/DX2                !
 ! D77   D(16,10,11,12)        179.9197         estimate D2E/DX2                !
 ! D78   D(16,10,11,18)          0.0446         estimate D2E/DX2                !
 ! D79   D(10,11,12,8)         179.7838         estimate D2E/DX2                !
 ! D80   D(10,11,12,13)          0.3023         estimate D2E/DX2                !
 ! D81   D(18,11,12,8)          -0.343          estimate D2E/DX2                !
 ! D82   D(18,11,12,13)       -179.8245         estimate D2E/DX2                !
 ! D83   D(8,12,13,14)        -179.7946         estimate D2E/DX2                !
 ! D84   D(8,12,13,19)           0.6353         estimate D2E/DX2                !
 ! D85   D(11,12,13,14)         -0.3131         estimate D2E/DX2                !
 ! D86   D(11,12,13,19)       -179.8832         estimate D2E/DX2                !
 ! D87   D(12,13,14,9)           0.1571         estimate D2E/DX2                !
 ! D88   D(12,13,14,17)       -179.8497         estimate D2E/DX2                !
 ! D89   D(19,13,14,9)         179.7319         estimate D2E/DX2                !
 ! D90   D(19,13,14,17)         -0.2748         estimate D2E/DX2                !
 --------------------------------------------------------------------------------
 Trust Radius=3.00D-01 FncErr=1.00D-07 GrdErr=1.00D-06
 Number of steps in this run=     50 maximum allowed number of steps=    216.
 GradGradGradGradGradGradGradGradGradGradGradGradGradGradGradGradGradGrad

                          Input orientation:                          
 ---------------------------------------------------------------------
 Center     Atomic      Atomic             Coordinates (Angstroms)
 Number     Number       Type             X           Y           Z
 ---------------------------------------------------------------------
      1          6           0       -1.815607    0.322222    0.634073
      2          6           0       -0.999147    1.588405    0.862123
      3          6           0        0.114291    1.443470    1.929332
      4          6           0       -0.431962    0.932719    3.304891
      5          6           0       -1.463252    1.872162    3.954634
      6          8           0       -0.913242    3.147551    4.255545
      7          7           0        0.839020    2.721944    2.110629
      8          6           0        1.586372    3.197713    0.936074
      9          6           0        4.864733    0.652188   -0.268411
     10          6           0        3.780688    0.852167   -1.121489
     11          6           0        2.726643    1.674740   -0.724506
     12          6           0        2.723757    2.309415    0.518419
     13          6           0        3.821418    2.097934    1.355549
     14          6           0        4.884040    1.279021    0.976068
     15          1           0        5.689631    0.012611   -0.572102
     16          1           0        3.747430    0.373764   -2.096030
     17          1           0        5.719299    1.136869    1.655543
     18          9           0        1.698782    1.847093   -1.567649
     19          9           0        3.862025    2.685042    2.560589
     20          1           0       -2.456419    0.093817    1.490282
     21          1           0       -2.469318    0.451287   -0.234911
     22          1           0       -1.164709   -0.536526    0.442499
     23          1           0       -0.552120    1.847008   -0.103957
     24          1           0       -1.675976    2.412173    1.117982
     25          1           0       -0.933813   -0.027054    3.130160
     26          1           0       -1.830977    1.441049    4.891884
     27          1           0       -2.332729    2.018957    3.307227
     28          1           0       -0.415419    3.423547    3.456208
     29          1           0        0.910401    3.406638    0.100579
     30          1           0        2.009927    4.178100    1.190840
     31          1           0        0.818771    0.679546    1.575406
     32          6           0        0.704612    0.625243    4.293765
     33          1           0        1.452638   -0.029630    3.834656
     34          1           0        1.210585    1.528330    4.647972
     35          1           0        0.309154    0.107712    5.174905
     36          1           0        1.523700    2.616895    2.864805
 ---------------------------------------------------------------------
                    Distance matrix (angstroms):
                    1          2          3          4          5
     1  C    0.000000
     2  C    1.523756   0.000000
     3  C    2.580581   1.549092   0.000000
     4  C    3.069275   2.592053   1.565702   0.000000
     5  C    3.681385   3.139990   2.602742   1.538921   0.000000
     6  O    4.681005   3.735456   3.061206   2.457815   1.421153
     7  N    3.871166   2.494501   1.480742   2.498596   3.069681
     8  C    4.464652   3.046350   2.496188   3.849047   4.490991
     9  C    6.749096   6.044808   5.293666   6.395480   7.704923
    10  C    5.889088   5.227197   4.806206   6.111117   7.369282
    11  C    4.930221   4.050476   3.731049   5.173338   6.283991
    12  C    4.956626   3.807624   3.090283   4.429253   5.434134
    13  C    5.953968   4.872467   3.807931   4.821711   5.893552
    14  C    6.776260   5.892418   4.866853   5.814054   7.036461
    15  H    7.607846   7.019963   6.276061   7.304216   8.666776
    16  H    6.197056   5.723287   5.526980   6.851985   8.124465
    17  H    7.647343   6.780186   5.620060   6.371816   7.577303
    18  F    4.418568   3.639991   3.860363   5.396091   6.363544
    19  F    6.444369   5.264826   3.998187   4.697121   5.564415
    20  H    1.093573   2.179913   2.936474   2.845169   3.197174
    21  H    1.095048   2.158222   3.513319   4.112517   4.536887
    22  H    1.094448   2.172286   2.786915   3.299831   4.269192
    23  H    2.113305   1.095454   2.177432   3.531375   4.159682
    24  H    2.149781   1.096428   2.191285   2.918720   2.895420
    25  H    2.670207   2.785313   2.168629   1.097064   2.137074
    26  H    4.402382   4.117357   3.544120   2.175819   1.095225
    27  H    3.208127   2.818217   2.866651   2.189254   1.093926
    28  H    4.420768   3.230752   2.555905   2.495475   1.937312
    29  H    4.150826   2.744503   2.798599   4.264954   4.779392
    30  H    5.460082   3.983604   3.408373   4.578704   5.001888
    31  H    2.820237   2.153978   1.097787   2.149313   3.505808
    32  C    4.453838   3.950524   2.570704   1.537600   2.523777
    33  H    4.587914   4.179143   2.755260   2.181395   3.483335
    34  H    5.169518   4.383968   2.932587   2.203765   2.783584
    35  H    5.017946   4.743858   3.515105   2.174130   2.782763
    36  H    4.625220   3.381314   2.058754   2.618156   3.265614
                    6          7          8          9         10
     6  O    0.000000
     7  N    2.802183   0.000000
     8  C    4.155656   1.471214   0.000000
     9  C    7.751001   5.113716   4.321821   0.000000
    10  C    7.497617   4.753532   3.814469   1.393875   0.000000
    11  C    6.341833   3.563390   2.525310   2.413517   1.394716
    12  C    5.281699   2.501509   1.502383   2.819447   2.435154
    13  C    5.650547   3.139145   2.526045   2.411625   2.772961
    14  C    6.917720   4.442009   3.815441   1.393564   2.408181
    15  H    8.759678   6.169762   5.408900   1.087080   2.156558
    16  H    8.352141   5.627502   4.673170   2.160110   1.086143
    17  H    7.402260   5.151377   4.673949   2.160277   3.398702
    18  F    6.513329   3.877407   2.847005   3.624785   2.350164
    19  F    5.088218   3.056532   2.842618   3.625074   4.113848
    20  H    4.399246   4.260493   5.126936   7.550102   6.804259
    21  H    5.464010   4.647853   5.036138   7.336879   6.325291
    22  H    5.308011   4.173154   4.664397   6.186486   5.369495
    23  H    4.563669   2.757748   2.734816   5.549499   4.560516
    24  H    3.311623   2.721491   3.360518   6.913791   6.101150
    25  H    3.368239   3.426276   4.643756   6.755353   6.409061
    26  H    2.039440   4.062629   5.514760   8.490199   8.246103
    27  H    2.046454   3.462085   4.729819   8.152098   7.638638
    28  H    0.981296   1.968869   3.226336   7.030876   6.721207
    29  H    4.544947   2.124665   1.094823   4.833207   4.032037
    30  H    4.358826   2.082649   1.097936   4.765646   4.420892
    31  H    4.034112   2.111460   2.709081   4.446371   4.009488
    32  C    2.996823   3.029902   4.320786   6.174203   6.232071
    33  H    3.983593   3.304536   4.339978   5.379817   5.546238
    34  H    2.699355   2.828583   4.087327   6.187992   6.352110
    35  H    3.402954   4.062604   5.398804   7.118950   7.228440
    36  H    2.855598   1.024013   2.015262   4.983936   4.909053
                   11         12         13         14         15
    11  C    0.000000
    12  C    1.395594   0.000000
    13  C    2.388358   1.396557   0.000000
    14  C    2.775411   2.436796   1.394199   0.000000
    15  H    3.400764   3.906527   3.399210   2.156293   0.000000
    16  H    2.148400   3.410278   3.858968   3.398405   2.494982
    17  H    3.861338   3.411918   2.148393   1.086071   2.495444
    18  F    1.340557   2.369809   3.621269   4.115710   4.503700
    19  F    3.619620   2.367954   1.341069   2.352045   4.505084
    20  H    5.853950   5.717308   6.591349   7.453285   8.403461
    21  H    5.360462   5.566702   6.694353   7.498232   8.177688
    22  H    4.625388   4.819265   5.712749   6.337844   6.950751
    23  H    3.341413   3.366384   4.617462   5.571436   6.522548
    24  H    4.829247   4.441586   5.511490   6.658677   7.928836
    25  H    5.581531   5.065382   5.502458   6.339823   7.588038
    26  H    7.236736   6.373920   6.699756   7.775045   9.405058
    27  H    6.478472   5.781857   6.456687   7.619945   9.134160
    28  H    5.514458   4.441432   4.911294   6.231721   8.070527
    29  H    2.641774   2.160266   3.429530   4.591627   5.900251
    30  H    3.232498   2.110376   2.763281   4.087947   5.830908
    31  H    3.149600   2.720784   3.328070   4.152709   5.364874
    32  C    5.511179   4.600719   4.529505   5.376073   6.993025
    33  H    5.031294   4.252564   4.035297   4.653881   6.113380
    34  H    5.584209   4.466877   4.240395   5.199933   7.043325
    35  H    6.565278   5.688644   5.557379   6.319160   7.873161
    36  H    3.901010   2.653339   2.797621   4.080333   5.995799
                   16         17         18         19         20
    16  H    0.000000
    17  H    4.306379   0.000000
    18  F    2.578147   5.201725   0.000000
    19  F    5.199927   2.581746   4.735412   0.000000
    20  H    7.171314   8.243642   5.448909   6.912506   0.000000
    21  H    6.489817   8.431921   4.593204   7.272578   1.761886
    22  H    5.603737   7.187579   4.233428   6.335050   1.778678
    23  H    4.962352   6.552163   2.684950   5.223675   3.040005
    24  H    6.625581   7.523660   4.349818   5.729313   2.474363
    25  H    7.027642   6.913256   5.701964   5.538947   2.241013
    26  H    9.004924   8.220286   7.372221   6.276363   3.711753
    27  H    8.298806   8.266879   6.328273   6.275039   2.650048
    28  H    7.580095   6.790144   5.673993   4.432161   4.372373
    29  H    4.698101   5.540331   2.415928   3.909531   4.923569
    30  H    5.319342   4.819178   3.624868   2.745123   6.059644
    31  H    4.706377   4.922473   3.466465   3.775446   3.328242
    32  C    7.081770   5.689382   6.069388   4.149208   4.258409
    33  H    6.371957   4.930887   5.724297   3.846796   4.559831
    34  H    7.297271   5.425530   6.242907   3.567252   5.047351
    35  H    8.047299   6.535652   7.100602   5.108833   4.607063
    36  H    5.881028   4.610406   4.502210   2.359016   4.908827
                   21         22         23         24         25
    21  H    0.000000
    22  H    1.771063   0.000000
    23  H    2.375044   2.520935   0.000000
    24  H    2.510933   3.067979   1.753738   0.000000
    25  H    3.729650   2.745250   3.757301   3.247999   0.000000
    26  H    5.260336   4.914442   5.172882   3.899929   2.462499
    27  H    3.875950   4.012659   3.851793   2.319210   2.484850
    28  H    5.164997   5.032500   3.896016   2.842390   3.504524
    29  H    4.502128   4.468952   2.147847   2.951850   4.936570
    30  H    5.998795   5.732890   3.697915   4.087748   5.487248
    31  H    3.760436   2.587760   2.462229   3.071644   2.447058
    32  C    5.532901   4.435800   4.734136   4.352691   2.112795
    33  H    5.672248   4.314415   4.801406   4.809464   2.488266
    34  H    6.208402   5.252776   5.078338   4.644808   3.053099
    35  H    6.091310   4.998298   5.624351   5.070494   2.396687
    36  H    5.499299   4.799914   3.703418   3.651195   3.619427
                   26         27         28         29         30
    26  H    0.000000
    27  H    1.759793   0.000000
    28  H    2.827591   2.381417   0.000000
    29  H    5.859633   4.767194   3.608092   0.000000
    30  H    5.995141   5.291470   3.403461   1.729965   0.000000
    31  H    4.312781   3.837340   3.548265   3.101700   3.715727
    32  C    2.729926   3.484413   3.128334   5.036002   4.894362
    33  H    3.750034   4.336346   3.944273   5.103459   5.000533
    34  H    3.052574   3.820129   2.766955   4.929192   4.428543
    35  H    2.537331   3.757742   3.804430   6.082203   5.944196
    36  H    4.092129   3.927507   2.181886   2.939520   2.340072
                   31         32         33         34         35
    31  H    0.000000
    32  C    2.721297   0.000000
    33  H    2.451312   1.095072   0.000000
    34  H    3.211637   1.094092   1.774066   0.000000
    35  H    3.680095   1.095734   1.767112   1.763063   0.000000
    36  H    2.431624   2.584475   2.819531   2.112510   3.620453
                   36
    36  H    0.000000
 Stoichiometry    C13H19F2NO
 Framework group  C1[X(C13H19F2NO)]
 Deg. of freedom   102
 Full point group                 C1      NOp   1
 Largest Abelian subgroup         C1      NOp   1
 Largest concise Abelian subgroup C1      NOp   1
                         Standard orientation:                         
 ---------------------------------------------------------------------
 Center     Atomic      Atomic             Coordinates (Angstroms)
 Number     Number       Type             X           Y           Z
 ---------------------------------------------------------------------
      1          6           0        2.153927    2.744899    0.894962
      2          6           0        1.636401    1.845865   -0.221164
      3          6           0        1.300401    0.402300    0.229291
      4          6           0        2.504967   -0.303937    0.937578
      5          6           0        3.748311   -0.462529    0.044706
      6          8           0        3.492923   -1.276417   -1.091973
      7          7           0        0.833444   -0.411202   -0.916468
      8          6           0       -0.427458    0.029487   -1.533227
      9          6           0       -3.889548   -0.256147    1.037857
     10          6           0       -3.457486    0.986392    0.577089
     11          6           0       -2.338855    1.069485   -0.251761
     12          6           0       -1.628599   -0.068705   -0.636137
     13          6           0       -2.081148   -1.303375   -0.165860
     14          6           0       -3.197081   -1.406107    0.663554
     15          1           0       -4.760996   -0.327711    1.683769
     16          1           0       -3.984343    1.894231    0.856293
     17          1           0       -3.517340   -2.383950    1.011130
     18          9           0       -1.948701    2.279008   -0.678292
     19          9           0       -1.429369   -2.424716   -0.506806
     20          1           0        3.156058    2.451327    1.219696
     21          1           0        2.217664    3.779366    0.541484
     22          1           0        1.483457    2.724171    1.759748
     23          1           0        0.735045    2.328225   -0.614745
     24          1           0        2.363200    1.836151   -1.042031
     25          1           0        2.798974    0.314896    1.794407
     26          1           0        4.563098   -0.928662    0.608940
     27          1           0        4.114949    0.507137   -0.304577
     28          1           0        2.642494   -0.960525   -1.466038
     29          1           0       -0.324460    1.032216   -1.960502
     30          1           0       -0.611373   -0.615550   -2.402460
     31          1           0        0.497740    0.463614    0.975690
     32          6           0        2.101825   -1.662520    1.534188
     33          1           0        1.207468   -1.562931    2.158199
     34          1           0        1.902605   -2.416926    0.767232
     35          1           0        2.906143   -2.049820    2.169565
     36          1           0        0.680820   -1.374784   -0.605312
 ---------------------------------------------------------------------
 Rotational constants (GHZ):      0.6907361      0.3064630      0.2521210
 Standard basis: 6-31G(d,p) (6D, 7F)
 There are   350 symmetry adapted cartesian basis functions of A   symmetry.
 There are   350 symmetry adapted basis functions of A   symmetry.
   350 basis functions,   609 primitive gaussians,   350 cartesian basis functions
    65 alpha electrons       65 beta electrons
       nuclear repulsion energy      1303.6844112593 Hartrees.
 NAtoms=   36 NActive=   36 NUniq=   36 SFac= 1.00D+00 NAtFMM=   60 NAOKFM=F Big=F
 Integral buffers will be    131072 words long.
 Raffenetti 2 integral format.
 Two-electron integral symmetry is turned on.
 ------------------------------------------------------------------------------
 Polarizable Continuum Model (PCM)
 =================================
 Model                : PCM (using non-symmetric T matrix).
 Atomic radii         : UFF (Universal Force Field).
 Polarization charges : Total charges.
 Charge compensation  : None.
 Solution method      : On-the-fly selection.
 Cavity type          : Scaled VdW (van der Waals Surface) (Alpha=1.100).
 Cavity algorithm     : GePol (No added spheres)
                        Default sphere list used, NSphG=   36.
                        Lebedev-Laikov grids with approx.  5.0 points / Ang**2.
                        Smoothing algorithm: Karplus/York (Gamma=1.0000).
                        Polarization charges: spherical gaussians, with
                                              point-specific exponents (IZeta= 3).
                        Self-potential: point-specific (ISelfS= 7).
                        Self-field    : sphere-specific E.n sum rule (ISelfD= 2).
 1st derivatives      : Analytical E(r).r(x)/FMM algorithm (CHGder, D1EAlg=3).
                        Cavity 1st derivative terms included.
 Solvent              : Chloroform, Eps=   4.711300 Eps(inf)=   2.090627
 ------------------------------------------------------------------------------
 One-electron integrals computed using PRISM.
 NBasis=   350 RedAO= T EigKep=  4.13D-04  NBF=   350
 NBsUse=   350 1.00D-06 EigRej= -1.00D+00 NBFU=   350
 ExpMin= 1.61D-01 ExpMax= 7.00D+03 ExpMxC= 1.05D+03 IAcc=1 IRadAn=         1 AccDes= 0.00D+00
 Harris functional with IExCor=  402 and IRadAn=       1 diagonalized for initial guess.
 HarFok:  IExCor=  402 AccDes= 0.00D+00 IRadAn=         1 IDoV= 1 UseB2=F ITyADJ=14
 ICtDFT=  3500011 ScaDFX=  1.000000  1.000000  1.000000  1.000000
 FoFCou: FMM=F IPFlag=           0 FMFlag=      100000 FMFlg1=           0
         NFxFlg=           0 DoJE=T BraDBF=F KetDBF=T FulRan=T
         wScrn=  0.000000 ICntrl=     500 IOpCl=  0 I1Cent=   200000004 NGrid=           0
         NMat0=    1 NMatS0=      1 NMatT0=    0 NMatD0=    1 NMtDS0=    0 NMtDT0=    0
 Petite list used in FoFCou.
 Requested convergence on RMS density matrix=1.00D-08 within 128 cycles.
 Requested convergence on MAX density matrix=1.00D-06.
 Requested convergence on             energy=1.00D-06.
 No special actions if energy rises.
 Inv3:  Mode=1 IEnd=    17860800.
 Iteration    1 A*A^-1 deviation from unit magnitude is 7.55D-15 for   1782.
 Iteration    1 A*A^-1 deviation from orthogonality  is 8.88D-15 for   2121    850.
 Iteration    1 A^-1*A deviation from unit magnitude is 8.33D-15 for    556.
 Iteration    1 A^-1*A deviation from orthogonality  is 5.28D-09 for   2045   2033.
 Iteration    2 A*A^-1 deviation from unit magnitude is 1.13D-14 for    556.
 Iteration    2 A*A^-1 deviation from orthogonality  is 9.49D-15 for   1437     82.
 Iteration    2 A^-1*A deviation from unit magnitude is 2.00D-15 for    595.
 Iteration    2 A^-1*A deviation from orthogonality  is 6.66D-16 for   2211    458.
 Error on total polarization charges =  0.00756
 SCF Done:  E(RB3LYP) =  -836.495984563     A.U. after   12 cycles
            NFock= 12  Conv=0.64D-08     -V/T= 2.0089

 **********************************************************************

            Population analysis using the SCF density.

 **********************************************************************

 Orbital symmetries:
       Occupied  (A) (A) (A) (A) (A) (A) (A) (A) (A) (A) (A) (A)
                 (A) (A) (A) (A) (A) (A) (A) (A) (A) (A) (A) (A)
                 (A) (A) (A) (A) (A) (A) (A) (A) (A) (A) (A) (A)
                 (A) (A) (A) (A) (A) (A) (A) (A) (A) (A) (A) (A)
                 (A) (A) (A) (A) (A) (A) (A) (A) (A) (A) (A) (A)
                 (A) (A) (A) (A) (A)
       Virtual   (A) (A) (A) (A) (A) (A) (A) (A) (A) (A) (A) (A)
                 (A) (A) (A) (A) (A) (A) (A) (A) (A) (A) (A) (A)
                 (A) (A) (A) (A) (A) (A) (A) (A) (A) (A) (A) (A)
                 (A) (A) (A) (A) (A) (A) (A) (A) (A) (A) (A) (A)
                 (A) (A) (A) (A) (A) (A) (A) (A) (A) (A) (A) (A)
                 (A) (A) (A) (A) (A) (A) (A) (A) (A) (A) (A) (A)
                 (A) (A) (A) (A) (A) (A) (A) (A) (A) (A) (A) (A)
                 (A) (A) (A) (A) (A) (A) (A) (A) (A) (A) (A) (A)
                 (A) (A) (A) (A) (A) (A) (A) (A) (A) (A) (A) (A)
                 (A) (A) (A) (A) (A) (A) (A) (A) (A) (A) (A) (A)
                 (A) (A) (A) (A) (A) (A) (A) (A) (A) (A) (A) (A)
                 (A) (A) (A) (A) (A) (A) (A) (A) (A) (A) (A) (A)
                 (A) (A) (A) (A) (A) (A) (A) (A) (A) (A) (A) (A)
                 (A) (A) (A) (A) (A) (A) (A) (A) (A) (A) (A) (A)
                 (A) (A) (A) (A) (A) (A) (A) (A) (A) (A) (A) (A)
                 (A) (A) (A) (A) (A) (A) (A) (A) (A) (A) (A) (A)
                 (A) (A) (A) (A) (A) (A) (A) (A) (A) (A) (A) (A)
                 (A) (A) (A) (A) (A) (A) (A) (A) (A) (A) (A) (A)
                 (A) (A) (A) (A) (A) (A) (A) (A) (A) (A) (A) (A)
                 (A) (A) (A) (A) (A) (A) (A) (A) (A) (A) (A) (A)
                 (A) (A) (A) (A) (A) (A) (A) (A) (A) (A) (A) (A)
                 (A) (A) (A) (A) (A) (A) (A) (A) (A) (A) (A) (A)
                 (A) (A) (A) (A) (A) (A) (A) (A) (A) (A) (A) (A)
                 (A) (A) (A) (A) (A) (A) (A) (A) (A)
 The electronic state is 1-A.
 Alpha  occ. eigenvalues --  -24.72656 -24.72274 -19.11728 -14.33341 -10.28548
 Alpha  occ. eigenvalues --  -10.28454 -10.22211 -10.21640 -10.21553 -10.21038
 Alpha  occ. eigenvalues --  -10.20943 -10.20202 -10.20139 -10.18709 -10.17932
 Alpha  occ. eigenvalues --  -10.17339 -10.17222  -1.23991  -1.23622  -0.99334
 Alpha  occ. eigenvalues --   -0.91654  -0.87182  -0.80147  -0.77242  -0.75683
 Alpha  occ. eigenvalues --   -0.75668  -0.69452  -0.66932  -0.65219  -0.63300
 Alpha  occ. eigenvalues --   -0.61727  -0.59718  -0.56546  -0.55147  -0.53335
 Alpha  occ. eigenvalues --   -0.50086  -0.49657  -0.49421  -0.48390  -0.47658
 Alpha  occ. eigenvalues --   -0.46940  -0.46855  -0.45009  -0.44440  -0.44045
 Alpha  occ. eigenvalues --   -0.43361  -0.42123  -0.40462  -0.39975  -0.39203
 Alpha  occ. eigenvalues --   -0.38543  -0.37481  -0.36671  -0.36289  -0.36095
 Alpha  occ. eigenvalues --   -0.35695  -0.35545  -0.34028  -0.32585  -0.31337
 Alpha  occ. eigenvalues --   -0.30404  -0.25978  -0.25083  -0.24939  -0.23323
 Alpha virt. eigenvalues --   -0.01754  -0.00588   0.07130   0.08560   0.09365
 Alpha virt. eigenvalues --    0.11111   0.12128   0.13495   0.13791   0.14131
 Alpha virt. eigenvalues --    0.14333   0.15364   0.15765   0.16002   0.16492
 Alpha virt. eigenvalues --    0.17206   0.17836   0.18002   0.18969   0.19153
 Alpha virt. eigenvalues --    0.19981   0.20944   0.21768   0.22607   0.22947
 Alpha virt. eigenvalues --    0.23167   0.24957   0.25741   0.25882   0.26868
 Alpha virt. eigenvalues --    0.27437   0.28841   0.29579   0.30220   0.31728
 Alpha virt. eigenvalues --    0.37244   0.38111   0.45654   0.48946   0.49495
 Alpha virt. eigenvalues --    0.50016   0.50645   0.51916   0.52009   0.52307
 Alpha virt. eigenvalues --    0.53669   0.54675   0.55640   0.56757   0.57715
 Alpha virt. eigenvalues --    0.57934   0.58593   0.59192   0.59409   0.61155
 Alpha virt. eigenvalues --    0.62532   0.63323   0.63546   0.64068   0.66724
 Alpha virt. eigenvalues --    0.67022   0.67552   0.68824   0.69142   0.70347
 Alpha virt. eigenvalues --    0.72290   0.73789   0.77314   0.77638   0.78712
 Alpha virt. eigenvalues --    0.79697   0.80271   0.81438   0.82350   0.82993
 Alpha virt. eigenvalues --    0.84040   0.84965   0.85750   0.86485   0.87465
 Alpha virt. eigenvalues --    0.87658   0.88441   0.88780   0.89995   0.90745
 Alpha virt. eigenvalues --    0.91276   0.91804   0.92351   0.93185   0.95088
 Alpha virt. eigenvalues --    0.95469   0.97803   0.97943   0.98411   0.99469
 Alpha virt. eigenvalues --    1.01954   1.03097   1.03704   1.04410   1.06769
 Alpha virt. eigenvalues --    1.08798   1.09455   1.10204   1.14598   1.16177
 Alpha virt. eigenvalues --    1.18577   1.20703   1.21204   1.22023   1.23379
 Alpha virt. eigenvalues --    1.24201   1.25442   1.27837   1.28773   1.31977
 Alpha virt. eigenvalues --    1.34754   1.35574   1.36756   1.38234   1.38980
 Alpha virt. eigenvalues --    1.39663   1.40857   1.41569   1.41899   1.44322
 Alpha virt. eigenvalues --    1.45833   1.50055   1.51314   1.53418   1.53930
 Alpha virt. eigenvalues --    1.55794   1.57942   1.60172   1.63205   1.66771
 Alpha virt. eigenvalues --    1.68081   1.68598   1.72503   1.73926   1.74238
 Alpha virt. eigenvalues --    1.74737   1.76018   1.77704   1.79343   1.80708
 Alpha virt. eigenvalues --    1.82302   1.82924   1.83867   1.84637   1.85242
 Alpha virt. eigenvalues --    1.86654   1.87166   1.88673   1.89049   1.89659
 Alpha virt. eigenvalues --    1.90512   1.91875   1.92971   1.93468   1.94557
 Alpha virt. eigenvalues --    1.96386   1.96832   1.98086   1.99008   1.99557
 Alpha virt. eigenvalues --    2.01647   2.03735   2.04754   2.05159   2.06201
 Alpha virt. eigenvalues --    2.06642   2.07105   2.07956   2.08717   2.12170
 Alpha virt. eigenvalues --    2.13125   2.13347   2.14875   2.16036   2.18100
 Alpha virt. eigenvalues --    2.19667   2.20216   2.20794   2.24176   2.24829
 Alpha virt. eigenvalues --    2.26435   2.27854   2.27965   2.28571   2.30488
 Alpha virt. eigenvalues --    2.30950   2.31531   2.33766   2.34317   2.34990
 Alpha virt. eigenvalues --    2.35908   2.37278   2.37785   2.38882   2.40054
 Alpha virt. eigenvalues --    2.40491   2.40801   2.43737   2.46432   2.47447
 Alpha virt. eigenvalues --    2.51024   2.51548   2.52370   2.53872   2.54717
 Alpha virt. eigenvalues --    2.55374   2.57295   2.57658   2.59981   2.62541
 Alpha virt. eigenvalues --    2.63515   2.65387   2.65948   2.67136   2.68639
 Alpha virt. eigenvalues --    2.69344   2.72324   2.73494   2.73807   2.74898
 Alpha virt. eigenvalues --    2.75231   2.76122   2.77941   2.79613   2.81075
 Alpha virt. eigenvalues --    2.82441   2.85490   2.86752   2.88235   2.89092
 Alpha virt. eigenvalues --    2.90644   2.91369   2.92356   2.93598   2.94529
 Alpha virt. eigenvalues --    2.97267   3.02178   3.05419   3.05591   3.06098
 Alpha virt. eigenvalues --    3.09996   3.14306   3.19913   3.20503   3.21750
 Alpha virt. eigenvalues --    3.25307   3.29994   3.31795   3.33474   3.35312
 Alpha virt. eigenvalues --    3.35722   3.39579   3.39924   3.41412   3.43006
 Alpha virt. eigenvalues --    3.45858   3.47360   3.50065   3.53230   3.56228
 Alpha virt. eigenvalues --    3.57618   3.62500   3.80110   3.92711   4.08310
 Alpha virt. eigenvalues --    4.11075   4.13249   4.18019   4.33732   4.38364
 Alpha virt. eigenvalues --    4.42503   4.44669   4.53219   4.57877   4.63081
 Alpha virt. eigenvalues --    4.68121   4.75379   4.79036   5.53656   5.55283
          Condensed to atoms (all electrons):
               1          2          3          4          5          6
     1  C    4.929908   0.358897  -0.036687  -0.004391  -0.001852   0.000034
     2  C    0.358897   4.963679   0.367184  -0.039742  -0.004980  -0.000520
     3  C   -0.036687   0.367184   4.885241   0.370582  -0.035052  -0.003943
     4  C   -0.004391  -0.039742   0.370582   5.034134   0.348132  -0.046778
     5  C   -0.001852  -0.004980  -0.035052   0.348132   4.723207   0.261035
     6  O    0.000034  -0.000520  -0.003943  -0.046778   0.261035   8.204236
     7  N    0.003419  -0.057625   0.253610  -0.041174  -0.002965  -0.022719
     8  C    0.000031  -0.002199  -0.045253   0.005747   0.000032   0.000191
     9  C    0.000000   0.000000   0.000004   0.000000   0.000000   0.000000
    10  C    0.000000  -0.000007  -0.000043   0.000000   0.000000   0.000000
    11  C   -0.000025   0.000406   0.000465   0.000011   0.000000   0.000000
    12  C    0.000077  -0.001524  -0.006214  -0.000270   0.000000  -0.000013
    13  C    0.000002  -0.000004  -0.001244  -0.000082  -0.000001  -0.000003
    14  C    0.000000   0.000002  -0.000016  -0.000001   0.000000   0.000000
    15  H    0.000000   0.000000   0.000000   0.000000   0.000000   0.000000
    16  H    0.000000   0.000000   0.000000   0.000000   0.000000   0.000000
    17  H    0.000000   0.000000   0.000001   0.000000   0.000000   0.000000
    18  F   -0.000012  -0.002346   0.000158   0.000000   0.000000   0.000000
    19  F    0.000000  -0.000002  -0.000069   0.000006   0.000000   0.000000
    20  H    0.387238  -0.034158  -0.005840   0.001815   0.000315  -0.000020
    21  H    0.381125  -0.027801   0.004104   0.000217   0.000003   0.000000
    22  H    0.385868  -0.036784  -0.004996  -0.001641   0.000162  -0.000001
    23  H   -0.038445   0.372388  -0.030229   0.004835   0.000031  -0.000001
    24  H   -0.037058   0.374749  -0.032291  -0.009911   0.003653   0.000134
    25  H    0.003159  -0.007975  -0.037801   0.363998  -0.032099   0.003525
    26  H    0.000062  -0.000044   0.005558  -0.031987   0.380206  -0.039399
    27  H   -0.000694   0.004747  -0.013595  -0.044631   0.372130  -0.042711
    28  H    0.000086  -0.002321  -0.001371  -0.009134  -0.033982   0.272111
    29  H   -0.000205   0.003492  -0.007237  -0.000002  -0.000007   0.000008
    30  H   -0.000004   0.000094   0.005803  -0.000168  -0.000010   0.000043
    31  H   -0.001734  -0.054304   0.374123  -0.046477   0.005164  -0.000291
    32  C   -0.000010   0.005207  -0.045771   0.352663  -0.050833  -0.002404
    33  H   -0.000008   0.000042  -0.004399  -0.032849   0.004851   0.000131
    34  H   -0.000001  -0.000075  -0.008068  -0.032692  -0.008104   0.011360
    35  H    0.000003  -0.000130   0.004371  -0.027869  -0.003137  -0.000337
    36  H   -0.000167   0.005852  -0.035861  -0.007680  -0.000318   0.001925
               7          8          9         10         11         12
     1  C    0.003419   0.000031   0.000000   0.000000  -0.000025   0.000077
     2  C   -0.057625  -0.002199   0.000000  -0.000007   0.000406  -0.001524
     3  C    0.253610  -0.045253   0.000004  -0.000043   0.000465  -0.006214
     4  C   -0.041174   0.005747   0.000000   0.000000   0.000011  -0.000270
     5  C   -0.002965   0.000032   0.000000   0.000000   0.000000   0.000000
     6  O   -0.022719   0.000191   0.000000   0.000000   0.000000  -0.000013
     7  N    6.912231   0.310010   0.000004  -0.000102   0.000179  -0.057164
     8  C    0.310010   4.939201  -0.000550   0.007481  -0.039797   0.266555
     9  C    0.000004  -0.000550   4.847925   0.491663  -0.010907  -0.027778
    10  C   -0.000102   0.007481   0.491663   5.034107   0.480668  -0.072648
    11  C    0.000179  -0.039797  -0.010907   0.480668   4.594813   0.412885
    12  C   -0.057164   0.266555  -0.027778  -0.072648   0.412885   5.378346
    13  C   -0.004486  -0.056145  -0.011515  -0.044678   0.012324   0.394379
    14  C   -0.000004   0.007870   0.491819  -0.033842  -0.047235  -0.073225
    15  H    0.000000   0.000004   0.375866  -0.034379   0.003673   0.000194
    16  H    0.000002  -0.000131  -0.037278   0.359310  -0.032909   0.006551
    17  H    0.000007  -0.000139  -0.036829   0.004662   0.000497   0.006603
    18  F    0.000038  -0.003999   0.002958  -0.045102   0.300113  -0.051397
    19  F   -0.005844   0.005821   0.002845  -0.000050   0.002304  -0.058717
    20  H   -0.000014   0.000003   0.000000   0.000000   0.000000  -0.000001
    21  H   -0.000088   0.000005   0.000000   0.000000   0.000001  -0.000002
    22  H    0.000046  -0.000030   0.000000  -0.000001   0.000001   0.000013
    23  H   -0.003721   0.002124  -0.000005   0.000042   0.000579  -0.002213
    24  H    0.001523  -0.000891   0.000000   0.000000  -0.000029   0.000293
    25  H    0.004172  -0.000126   0.000000   0.000000   0.000002   0.000011
    26  H   -0.000209   0.000005   0.000000   0.000000   0.000000   0.000000
    27  H    0.000561   0.000009   0.000000   0.000000   0.000000   0.000000
    28  H    0.063112  -0.000063   0.000000   0.000000  -0.000004   0.000373
    29  H   -0.033363   0.387789  -0.000033   0.000436  -0.005057  -0.043364
    30  H   -0.038108   0.383782   0.000007  -0.000265   0.003014  -0.045249
    31  H   -0.054637  -0.013131  -0.000011  -0.000025   0.000585   0.014375
    32  C   -0.004708  -0.000066   0.000000   0.000000   0.000004   0.000021
    33  H   -0.000719  -0.000092  -0.000002  -0.000001  -0.000008   0.000026
    34  H    0.001137  -0.000091   0.000000   0.000000   0.000000   0.000067
    35  H    0.000172   0.000002   0.000000   0.000000   0.000000   0.000000
    36  H    0.322415  -0.030806  -0.000034   0.000030  -0.000099  -0.014575
              13         14         15         16         17         18
     1  C    0.000002   0.000000   0.000000   0.000000   0.000000  -0.000012
     2  C   -0.000004   0.000002   0.000000   0.000000   0.000000  -0.002346
     3  C   -0.001244  -0.000016   0.000000   0.000000   0.000001   0.000158
     4  C   -0.000082  -0.000001   0.000000   0.000000   0.000000   0.000000
     5  C   -0.000001   0.000000   0.000000   0.000000   0.000000   0.000000
     6  O   -0.000003   0.000000   0.000000   0.000000   0.000000   0.000000
     7  N   -0.004486  -0.000004   0.000000   0.000002   0.000007   0.000038
     8  C   -0.056145   0.007870   0.000004  -0.000131  -0.000139  -0.003999
     9  C   -0.011515   0.491819   0.375866  -0.037278  -0.036829   0.002958
    10  C   -0.044678  -0.033842  -0.034379   0.359310   0.004662  -0.045102
    11  C    0.012324  -0.047235   0.003673  -0.032909   0.000497   0.300113
    12  C    0.394379  -0.073225   0.000194   0.006551   0.006603  -0.051397
    13  C    4.619262   0.491180   0.003714   0.000403  -0.033468   0.002456
    14  C    0.491180   5.026540  -0.034975   0.004818   0.359338  -0.000018
    15  H    0.003714  -0.034975   0.578207  -0.005939  -0.005976  -0.000023
    16  H    0.000403   0.004818  -0.005939   0.592024  -0.000147  -0.000432
    17  H   -0.033468   0.359338  -0.005976  -0.000147   0.590726   0.000001
    18  F    0.002456  -0.000018  -0.000023  -0.000432   0.000001   9.068491
    19  F    0.301700  -0.045492  -0.000023   0.000001  -0.000240   0.000000
    20  H    0.000000   0.000000   0.000000   0.000000   0.000000   0.000000
    21  H    0.000000   0.000000   0.000000   0.000000   0.000000  -0.000002
    22  H    0.000001   0.000000   0.000000   0.000000   0.000000   0.000012
    23  H   -0.000029   0.000002   0.000000   0.000000   0.000000   0.008532
    24  H    0.000003   0.000000   0.000000   0.000000   0.000000   0.000023
    25  H   -0.000001   0.000000   0.000000   0.000000   0.000000   0.000000
    26  H    0.000000   0.000000   0.000000   0.000000   0.000000   0.000000
    27  H    0.000000   0.000000   0.000000   0.000000   0.000000   0.000000
    28  H    0.000006   0.000000   0.000000   0.000000   0.000000   0.000000
    29  H    0.004271  -0.000135   0.000000  -0.000004   0.000002   0.007293
    30  H   -0.007663   0.000069   0.000000   0.000003   0.000001   0.000229
    31  H    0.002196  -0.000133   0.000000  -0.000009  -0.000005  -0.000029
    32  C    0.000035  -0.000010   0.000000   0.000000   0.000000   0.000000
    33  H    0.000267   0.000027   0.000000   0.000000   0.000001   0.000000
    34  H   -0.000057  -0.000006   0.000000   0.000000   0.000000   0.000000
    35  H    0.000000   0.000000   0.000000   0.000000   0.000000   0.000000
    36  H    0.003179   0.000157   0.000000   0.000000   0.000006  -0.000008
              19         20         21         22         23         24
     1  C    0.000000   0.387238   0.381125   0.385868  -0.038445  -0.037058
     2  C   -0.000002  -0.034158  -0.027801  -0.036784   0.372388   0.374749
     3  C   -0.000069  -0.005840   0.004104  -0.004996  -0.030229  -0.032291
     4  C    0.000006   0.001815   0.000217  -0.001641   0.004835  -0.009911
     5  C    0.000000   0.000315   0.000003   0.000162   0.000031   0.003653
     6  O    0.000000  -0.000020   0.000000  -0.000001  -0.000001   0.000134
     7  N   -0.005844  -0.000014  -0.000088   0.000046  -0.003721   0.001523
     8  C    0.005821   0.000003   0.000005  -0.000030   0.002124  -0.000891
     9  C    0.002845   0.000000   0.000000   0.000000  -0.000005   0.000000
    10  C   -0.000050   0.000000   0.000000  -0.000001   0.000042   0.000000
    11  C    0.002304   0.000000   0.000001   0.000001   0.000579  -0.000029
    12  C   -0.058717  -0.000001  -0.000002   0.000013  -0.002213   0.000293
    13  C    0.301700   0.000000   0.000000   0.000001  -0.000029   0.000003
    14  C   -0.045492   0.000000   0.000000   0.000000   0.000002   0.000000
    15  H   -0.000023   0.000000   0.000000   0.000000   0.000000   0.000000
    16  H    0.000001   0.000000   0.000000   0.000000   0.000000   0.000000
    17  H   -0.000240   0.000000   0.000000   0.000000   0.000000   0.000000
    18  F    0.000000   0.000000  -0.000002   0.000012   0.008532   0.000023
    19  F    9.067210   0.000000   0.000000   0.000000   0.000000   0.000000
    20  H    0.000000   0.601489  -0.031255  -0.032657   0.005445  -0.006742
    21  H    0.000000  -0.031255   0.607718  -0.030861  -0.005838  -0.002060
    22  H    0.000000  -0.032657  -0.030861   0.605498  -0.003720   0.005626
    23  H    0.000000   0.005445  -0.005838  -0.003720   0.630582  -0.037148
    24  H    0.000000  -0.006742  -0.002060   0.005626  -0.037148   0.627899
    25  H    0.000000   0.001875  -0.000043   0.000889   0.000083  -0.000003
    26  H    0.000000  -0.000114   0.000001  -0.000003   0.000000  -0.000061
    27  H    0.000000   0.002060  -0.000050  -0.000009  -0.000029  -0.000342
    28  H   -0.000005  -0.000002  -0.000001   0.000003  -0.000067   0.002047
    29  H    0.000137   0.000000   0.000010   0.000014   0.001174   0.000563
    30  H    0.001989   0.000000   0.000000   0.000000   0.000002  -0.000062
    31  H    0.000016  -0.000192  -0.000109   0.005559  -0.006098   0.006571
    32  C   -0.000102  -0.000003  -0.000003  -0.000057  -0.000134  -0.000051
    33  H    0.000015   0.000004   0.000000   0.000010  -0.000003   0.000004
    34  H   -0.000033   0.000001   0.000000   0.000000   0.000000  -0.000006
    35  H    0.000000   0.000007   0.000000   0.000001   0.000002   0.000000
    36  H    0.015824  -0.000003   0.000003   0.000000  -0.000197  -0.000046
              25         26         27         28         29         30
     1  C    0.003159   0.000062  -0.000694   0.000086  -0.000205  -0.000004
     2  C   -0.007975  -0.000044   0.004747  -0.002321   0.003492   0.000094
     3  C   -0.037801   0.005558  -0.013595  -0.001371  -0.007237   0.005803
     4  C    0.363998  -0.031987  -0.044631  -0.009134  -0.000002  -0.000168
     5  C   -0.032099   0.380206   0.372130  -0.033982  -0.000007  -0.000010
     6  O    0.003525  -0.039399  -0.042711   0.272111   0.000008   0.000043
     7  N    0.004172  -0.000209   0.000561   0.063112  -0.033363  -0.038108
     8  C   -0.000126   0.000005   0.000009  -0.000063   0.387789   0.383782
     9  C    0.000000   0.000000   0.000000   0.000000  -0.000033   0.000007
    10  C    0.000000   0.000000   0.000000   0.000000   0.000436  -0.000265
    11  C    0.000002   0.000000   0.000000  -0.000004  -0.005057   0.003014
    12  C    0.000011   0.000000   0.000000   0.000373  -0.043364  -0.045249
    13  C   -0.000001   0.000000   0.000000   0.000006   0.004271  -0.007663
    14  C    0.000000   0.000000   0.000000   0.000000  -0.000135   0.000069
    15  H    0.000000   0.000000   0.000000   0.000000   0.000000   0.000000
    16  H    0.000000   0.000000   0.000000   0.000000  -0.000004   0.000003
    17  H    0.000000   0.000000   0.000000   0.000000   0.000002   0.000001
    18  F    0.000000   0.000000   0.000000   0.000000   0.007293   0.000229
    19  F    0.000000   0.000000   0.000000  -0.000005   0.000137   0.001989
    20  H    0.001875  -0.000114   0.002060  -0.000002   0.000000   0.000000
    21  H   -0.000043   0.000001  -0.000050  -0.000001   0.000010   0.000000
    22  H    0.000889  -0.000003  -0.000009   0.000003   0.000014   0.000000
    23  H    0.000083   0.000000  -0.000029  -0.000067   0.001174   0.000002
    24  H   -0.000003  -0.000061  -0.000342   0.002047   0.000563  -0.000062
    25  H    0.648580  -0.001814   0.000292  -0.000056  -0.000004   0.000003
    26  H   -0.001814   0.645680  -0.050940   0.005870   0.000000   0.000000
    27  H    0.000292  -0.050940   0.691101  -0.003935  -0.000007   0.000000
    28  H   -0.000056   0.005870  -0.003935   0.398225  -0.000194  -0.000407
    29  H   -0.000004   0.000000  -0.000007  -0.000194   0.577904  -0.031130
    30  H    0.000003   0.000000   0.000000  -0.000407  -0.031130   0.603468
    31  H   -0.003094  -0.000183  -0.000096   0.001211  -0.000418  -0.000077
    32  C   -0.039363  -0.009328   0.006769  -0.000770  -0.000004   0.000012
    33  H   -0.003255  -0.000065  -0.000163  -0.000004   0.000000   0.000000
    34  H    0.005899  -0.000706   0.000393  -0.000235  -0.000005   0.000008
    35  H   -0.005579   0.004449  -0.000102  -0.000017   0.000000   0.000000
    36  H    0.000073  -0.000039   0.000073  -0.005149   0.005510  -0.004398
              31         32         33         34         35         36
     1  C   -0.001734  -0.000010  -0.000008  -0.000001   0.000003  -0.000167
     2  C   -0.054304   0.005207   0.000042  -0.000075  -0.000130   0.005852
     3  C    0.374123  -0.045771  -0.004399  -0.008068   0.004371  -0.035861
     4  C   -0.046477   0.352663  -0.032849  -0.032692  -0.027869  -0.007680
     5  C    0.005164  -0.050833   0.004851  -0.008104  -0.003137  -0.000318
     6  O   -0.000291  -0.002404   0.000131   0.011360  -0.000337   0.001925
     7  N   -0.054637  -0.004708  -0.000719   0.001137   0.000172   0.322415
     8  C   -0.013131  -0.000066  -0.000092  -0.000091   0.000002  -0.030806
     9  C   -0.000011   0.000000  -0.000002   0.000000   0.000000  -0.000034
    10  C   -0.000025   0.000000  -0.000001   0.000000   0.000000   0.000030
    11  C    0.000585   0.000004  -0.000008   0.000000   0.000000  -0.000099
    12  C    0.014375   0.000021   0.000026   0.000067   0.000000  -0.014575
    13  C    0.002196   0.000035   0.000267  -0.000057   0.000000   0.003179
    14  C   -0.000133  -0.000010   0.000027  -0.000006   0.000000   0.000157
    15  H    0.000000   0.000000   0.000000   0.000000   0.000000   0.000000
    16  H   -0.000009   0.000000   0.000000   0.000000   0.000000   0.000000
    17  H   -0.000005   0.000000   0.000001   0.000000   0.000000   0.000006
    18  F   -0.000029   0.000000   0.000000   0.000000   0.000000  -0.000008
    19  F    0.000016  -0.000102   0.000015  -0.000033   0.000000   0.015824
    20  H   -0.000192  -0.000003   0.000004   0.000001   0.000007  -0.000003
    21  H   -0.000109  -0.000003   0.000000   0.000000   0.000000   0.000003
    22  H    0.005559  -0.000057   0.000010   0.000000   0.000001   0.000000
    23  H   -0.006098  -0.000134  -0.000003   0.000000   0.000002  -0.000197
    24  H    0.006571  -0.000051   0.000004  -0.000006   0.000000  -0.000046
    25  H   -0.003094  -0.039363  -0.003255   0.005899  -0.005579   0.000073
    26  H   -0.000183  -0.009328  -0.000065  -0.000706   0.004449  -0.000039
    27  H   -0.000096   0.006769  -0.000163   0.000393  -0.000102   0.000073
    28  H    0.001211  -0.000770  -0.000004  -0.000235  -0.000017  -0.005149
    29  H   -0.000418  -0.000004   0.000000  -0.000005   0.000000   0.005510
    30  H   -0.000077   0.000012   0.000000   0.000008   0.000000  -0.004398
    31  H    0.697874  -0.008335   0.006119  -0.000247  -0.000115  -0.003287
    32  C   -0.008335   4.986285   0.377086   0.379654   0.378031   0.006254
    33  H    0.006119   0.377086   0.613917  -0.032935  -0.030306   0.000106
    34  H   -0.000247   0.379654  -0.032935   0.597181  -0.029316   0.004855
    35  H   -0.000115   0.378031  -0.030306  -0.029316   0.604293  -0.000334
    36  H   -0.003287   0.006254   0.000106   0.004855  -0.000334   0.472685
 Mulliken charges:
               1
     1  C   -0.328617
     2  C   -0.184197
     3  C    0.084776
     4  C   -0.104660
     5  C    0.074419
     6  O   -0.595594
     7  N   -0.544985
     8  C   -0.123155
     9  C   -0.088150
    10  C   -0.147260
    11  C    0.323546
    12  C   -0.026415
    13  C    0.323998
    14  C   -0.146730
    15  H    0.119654
    16  H    0.113737
    17  H    0.114960
    18  F   -0.286935
    19  F   -0.287291
    20  H    0.110747
    21  H    0.104926
    22  H    0.107060
    23  H    0.102053
    24  H    0.103613
    25  H    0.098654
    26  H    0.093060
    27  H    0.079170
    28  H    0.314673
    29  H    0.132565
    30  H    0.129012
    31  H    0.079243
    32  C   -0.330069
    33  H    0.102204
    34  H    0.112022
    35  H    0.105911
    36  H    0.264054
 Sum of Mulliken charges =   0.00000
 Mulliken charges with hydrogens summed into heavy atoms:
               1
     1  C   -0.005885
     2  C    0.021469
     3  C    0.164019
     4  C   -0.006006
     5  C    0.246649
     6  O   -0.280922
     7  N   -0.280931
     8  C    0.138422
     9  C    0.031505
    10  C   -0.033523
    11  C    0.323546
    12  C   -0.026415
    13  C    0.323998
    14  C   -0.031770
    18  F   -0.286935
    19  F   -0.287291
    32  C   -0.009932
 Electronic spatial extent (au):  <R**2>=           4545.7242
 Charge=              0.0000 electrons
 Dipole moment (field-independent basis, Debye):
    X=             -3.9411    Y=              1.3902    Z=              2.3008  Tot=              4.7706
 Quadrupole moment (field-independent basis, Debye-Ang):
   XX=           -101.9112   YY=           -103.6318   ZZ=           -100.2271
   XY=              7.9377   XZ=              2.7915   YZ=             -2.9079
 Traceless Quadrupole moment (field-independent basis, Debye-Ang):
   XX=              0.0122   YY=             -1.7084   ZZ=              1.6962
   XY=              7.9377   XZ=              2.7915   YZ=             -2.9079
 Octapole moment (field-independent basis, Debye-Ang**2):
  XXX=            -85.9730  YYY=             -2.4245  ZZZ=            -17.8578  XYY=            -15.6567
  XXY=             21.4580  XXZ=             49.0935  XZZ=            -12.8001  YZZ=             -1.2564
  YYZ=              2.5857  XYZ=            -10.2360
 Hexadecapole moment (field-independent basis, Debye-Ang**3):
 XXXX=          -3809.6901 YYYY=          -1381.8229 ZZZZ=           -612.5993 XXXY=             68.0708
 XXXZ=             -2.5306 YYYX=              6.2069 YYYZ=             -8.2462 ZZZX=              8.2322
 ZZZY=              1.3584 XXYY=           -881.4895 XXZZ=           -746.6250 YYZZ=           -334.0180
 XXYZ=            -50.7280 YYXZ=             -8.1516 ZZXY=              2.9951
 N-N= 1.303684411259D+03 E-N=-4.560816941217D+03  KE= 8.291450014537D+02
 D1PCM: PCM CHGder 1st derivatives, ID1Alg=3 FixD1E=F DoIter=F DoCFld=F I1PDM=0.
 Calling FoFJK, ICntrl=      2127 FMM=F ISym2X=0 I1Cent= 0 IOpClX= 0 NMat=1 NMatS=1 NMatT=0.
 ***** Axes restored to original set *****
 -------------------------------------------------------------------
 Center     Atomic                   Forces (Hartrees/Bohr)
 Number     Number              X              Y              Z
 -------------------------------------------------------------------
      1        6          -0.003568438   -0.001651417    0.000265722
      2        6           0.003698501    0.001804791   -0.001530143
      3        6          -0.007785146   -0.001922637    0.003687602
      4        6           0.002978750   -0.000077068    0.002731871
      5        6           0.003528181    0.006888229   -0.005999664
      6        8           0.003643473    0.005097098    0.004197079
      7        7          -0.002199450    0.003361862    0.004122198
      8        6          -0.001494343    0.014964985    0.004249145
      9        6          -0.004571380    0.003224778    0.000294139
     10        6          -0.001525660   -0.003093697   -0.008100298
     11        6           0.021930506   -0.009361201    0.008626401
     12        6          -0.008151769    0.003755900   -0.004321394
     13        6           0.008187137   -0.015428690   -0.020089470
     14        6           0.004568583    0.000991435    0.007617904
     15        1          -0.001576196    0.001167888    0.000603959
     16        1          -0.001064321    0.000843558    0.000503344
     17        1          -0.001209611    0.001006373    0.000424129
     18        9          -0.007700221    0.002851977   -0.003179376
     19        9          -0.003299194    0.006126550    0.007763188
     20        1           0.000026730   -0.002235080   -0.000215753
     21        1           0.000273123   -0.000998078    0.000082730
     22        1          -0.000697552   -0.001607245    0.000149990
     23        1           0.002587016    0.001920788    0.001834586
     24        1           0.002107397    0.001467617    0.001699737
     25        1          -0.000719209    0.001333907   -0.003761986
     26        1           0.001081414   -0.000597605    0.000784654
     27        1          -0.004438669   -0.005106976   -0.003902948
     28        1          -0.002044906   -0.002024960    0.001685919
     29        1           0.001341080   -0.005427734    0.002426883
     30        1          -0.001303788   -0.000736801    0.003132842
     31        1           0.000152922   -0.005107550   -0.002463300
     32        6           0.001868256   -0.001332410   -0.000250468
     33        1           0.000747842   -0.000147936    0.000177184
     34        1          -0.000928210    0.000230348    0.000578725
     35        1           0.000378927    0.000812490   -0.000087893
     36        1          -0.004821775   -0.000993489   -0.003737235
 -------------------------------------------------------------------
 Cartesian Forces:  Max     0.021930506 RMS     0.004948638

 GradGradGradGradGradGradGradGradGradGradGradGradGradGradGradGradGradGrad
 Berny optimization.
 FormGI is forming the generalized inverse of G from B-inverse, IUseBI=4.
 Internal  Forces:  Max     0.011658729 RMS     0.002815651
 Search for a local minimum.
 Step number   1 out of a maximum of   50
 All quantities printed in internal units (Hartrees-Bohrs-Radians)
 Mixed Optimization -- RFO/linear search
 Second derivative matrix not updated -- first step.
 ITU=  0
     Eigenvalues ---    0.00230   0.00230   0.00251   0.00269   0.00452
     Eigenvalues ---    0.00624   0.00734   0.00750   0.01412   0.01558
     Eigenvalues ---    0.02143   0.02150   0.02153   0.02160   0.02164
     Eigenvalues ---    0.02169   0.02170   0.02172   0.02616   0.03117
     Eigenvalues ---    0.03347   0.03726   0.04558   0.04565   0.04731
     Eigenvalues ---    0.04735   0.04769   0.05092   0.05277   0.05479
     Eigenvalues ---    0.05559   0.05588   0.05711   0.05795   0.06452
     Eigenvalues ---    0.08606   0.10410   0.11289   0.11759   0.12399
     Eigenvalues ---    0.13568   0.13969   0.16000   0.16000   0.16000
     Eigenvalues ---    0.16000   0.16000   0.16000   0.16000   0.16000
     Eigenvalues ---    0.16000   0.16000   0.16985   0.17073   0.17597
     Eigenvalues ---    0.18071   0.21924   0.21931   0.21999   0.22085
     Eigenvalues ---    0.23491   0.23514   0.24907   0.24999   0.24999
     Eigenvalues ---    0.25000   0.26358   0.27728   0.28615   0.28733
     Eigenvalues ---    0.30008   0.32129   0.33911   0.33928   0.34009
     Eigenvalues ---    0.34080   0.34158   0.34190   0.34216   0.34233
     Eigenvalues ---    0.34236   0.34261   0.34304   0.34344   0.34363
     Eigenvalues ---    0.34403   0.34485   0.35152   0.35262   0.35271
     Eigenvalues ---    0.35595   0.42287   0.42346   0.42496   0.43704
     Eigenvalues ---    0.46314   0.46496   0.46552   0.46659   0.51134
     Eigenvalues ---    0.56966   0.57080
 RFO step:  Lambda=-7.66580734D-03 EMin= 2.30000000D-03
 Linear search not attempted -- first point.
 Iteration  1 RMS(Cart)=  0.11247695 RMS(Int)=  0.00215938
 Iteration  2 RMS(Cart)=  0.00474499 RMS(Int)=  0.00018607
 Iteration  3 RMS(Cart)=  0.00000822 RMS(Int)=  0.00018603
 Iteration  4 RMS(Cart)=  0.00000000 RMS(Int)=  0.00018603
 Variable       Old X    -DE/DX   Delta X   Delta X   Delta X     New X
                                 (Linear)    (Quad)   (Total)
    R1        2.87948   0.00749   0.00000   0.02434   0.02434   2.90382
    R2        2.06655   0.00029   0.00000   0.00081   0.00081   2.06737
    R3        2.06934  -0.00035   0.00000  -0.00100  -0.00100   2.06834
    R4        2.06821   0.00082   0.00000   0.00235   0.00235   2.07055
    R5        2.92736  -0.00490   0.00000  -0.01718  -0.01718   2.91018
    R6        2.07011  -0.00011   0.00000  -0.00032  -0.00032   2.06979
    R7        2.07195   0.00020   0.00000   0.00056   0.00056   2.07251
    R8        2.95875  -0.00717   0.00000  -0.02645  -0.02645   2.93230
    R9        2.79820   0.00141   0.00000   0.00399   0.00399   2.80219
   R10        2.07452   0.00445   0.00000   0.01282   0.01282   2.08733
   R11        2.90814   0.00005   0.00000   0.00019   0.00019   2.90832
   R12        2.07315  -0.00024   0.00000  -0.00070  -0.00070   2.07245
   R13        2.90564   0.00189   0.00000   0.00641   0.00641   2.91205
   R14        2.68559   0.00463   0.00000   0.01075   0.01075   2.69634
   R15        2.06968   0.00054   0.00000   0.00155   0.00155   2.07123
   R16        2.06722   0.00515   0.00000   0.01467   0.01467   2.08189
   R17        1.85438  -0.00298   0.00000  -0.00573  -0.00573   1.84865
   R18        2.78019   0.00243   0.00000   0.00669   0.00669   2.78688
   R19        1.93510  -0.00588   0.00000  -0.01322  -0.01322   1.92189
   R20        2.83909   0.01166   0.00000   0.03544   0.03544   2.87453
   R21        2.06892  -0.00371   0.00000  -0.01060  -0.01060   2.05832
   R22        2.07480  -0.00044   0.00000  -0.00126  -0.00126   2.07354
   R23        2.63404   0.00059   0.00000   0.00143   0.00140   2.63544
   R24        2.63345   0.00208   0.00000   0.00447   0.00444   2.63789
   R25        2.05428  -0.00205   0.00000  -0.00571  -0.00571   2.04857
   R26        2.63563  -0.00264   0.00000  -0.00547  -0.00548   2.63015
   R27        2.05251  -0.00079   0.00000  -0.00219  -0.00219   2.05032
   R28        2.63729   0.00113   0.00000   0.00231   0.00234   2.63963
   R29        2.53329   0.00827   0.00000   0.01430   0.01430   2.54759
   R30        2.63911  -0.00045   0.00000  -0.00115  -0.00111   2.63800
   R31        2.63465  -0.00418   0.00000  -0.00894  -0.00893   2.62572
   R32        2.53425   0.00956   0.00000   0.01655   0.01655   2.55081
   R33        2.05238  -0.00080   0.00000  -0.00221  -0.00221   2.05016
   R34        2.06939   0.00052   0.00000   0.00149   0.00149   2.07088
   R35        2.06753  -0.00004   0.00000  -0.00013  -0.00013   2.06741
   R36        2.07064  -0.00059   0.00000  -0.00170  -0.00170   2.06894
    A1        1.95019   0.00224   0.00000   0.01405   0.01400   1.96419
    A2        1.91845   0.00065   0.00000   0.00529   0.00524   1.92369
    A3        1.93857   0.00126   0.00000   0.00536   0.00536   1.94392
    A4        1.87142  -0.00094   0.00000  -0.00149  -0.00158   1.86984
    A5        1.89828  -0.00224   0.00000  -0.01595  -0.01596   1.88232
    A6        1.88453  -0.00117   0.00000  -0.00841  -0.00842   1.87611
    A7        1.99379   0.00076   0.00000   0.00466   0.00478   1.99857
    A8        1.85754   0.00212   0.00000   0.02549   0.02549   1.88303
    A9        1.90549   0.00158   0.00000   0.01796   0.01794   1.92343
   A10        1.91382  -0.00235   0.00000  -0.02219  -0.02237   1.89145
   A11        1.93181  -0.00218   0.00000  -0.02315  -0.02328   1.90853
   A12        1.85494   0.00019   0.00000  -0.00144  -0.00218   1.85276
   A13        1.96602   0.00388   0.00000   0.01079   0.01044   1.97646
   A14        1.93410  -0.00053   0.00000  -0.01069  -0.01079   1.92331
   A15        1.87995  -0.00224   0.00000  -0.01186  -0.01186   1.86809
   A16        1.92287  -0.00440   0.00000  -0.03031  -0.03027   1.89260
   A17        1.85473   0.00038   0.00000   0.01029   0.01051   1.86523
   A18        1.90309   0.00306   0.00000   0.03460   0.03474   1.93783
   A19        1.98843  -0.00320   0.00000  -0.02418  -0.02434   1.96409
   A20        1.88080  -0.00103   0.00000  -0.02512  -0.02535   1.85544
   A21        1.95235   0.00146   0.00000   0.00897   0.00917   1.96153
   A22        1.86999   0.00078   0.00000   0.00328   0.00250   1.87250
   A23        1.92399   0.00161   0.00000   0.01432   0.01431   1.93830
   A24        1.83965   0.00056   0.00000   0.02526   0.02524   1.86489
[...]
    29  H   -0.000154   0.004182  -0.006749  -0.000048  -0.000009   0.000032
    30  H   -0.000004   0.000069   0.005611  -0.000158  -0.000015   0.000045
    31  H   -0.002311  -0.054821   0.371423  -0.048828   0.005240  -0.000279
    32  C   -0.000001   0.005170  -0.045326   0.355157  -0.049415  -0.003540
    33  H   -0.000006   0.000045  -0.004106  -0.032819   0.004674   0.000107
    34  H   -0.000001  -0.000097  -0.008386  -0.033420  -0.008746   0.012697
    35  H    0.000002  -0.000126   0.004361  -0.027493  -0.002398  -0.000238
    36  H   -0.000170   0.006113  -0.034848  -0.008430  -0.000223   0.001200
               7          8          9         10         11         12
     1  C    0.003457  -0.000018   0.000000  -0.000001  -0.000023   0.000059
     2  C   -0.059092  -0.000333   0.000002   0.000001   0.000440  -0.001610
     3  C    0.252780  -0.042182   0.000000   0.000006   0.001027  -0.005531
     4  C   -0.045263   0.005994   0.000000   0.000000   0.000004  -0.000224
     5  C   -0.003373   0.000033   0.000000   0.000000   0.000000   0.000002
     6  O   -0.025505   0.000106   0.000000   0.000000   0.000000  -0.000016
     7  N    6.914863   0.307315   0.000000  -0.000066  -0.000224  -0.056232
     8  C    0.307315   4.934871  -0.000590   0.006442  -0.041767   0.265282
     9  C    0.000000  -0.000590   4.857396   0.492294  -0.008402  -0.027143
    10  C   -0.000066   0.006442   0.492294   5.011487   0.491449  -0.076075
    11  C   -0.000224  -0.041767  -0.008402   0.491449   4.602892   0.417628
    12  C   -0.056232   0.265282  -0.027143  -0.076075   0.417628   5.374766
    13  C   -0.002539  -0.054818  -0.006970  -0.043157   0.017692   0.386056
    14  C    0.000027   0.007373   0.487396  -0.039411  -0.045763  -0.080302
    15  H    0.000000   0.000005   0.374137  -0.033872   0.003660   0.000414
    16  H    0.000001  -0.000099  -0.036192   0.361905  -0.032471   0.006287
    17  H    0.000007  -0.000115  -0.036008   0.004371   0.000322   0.006328
    18  F    0.000087  -0.006499   0.002840  -0.041758   0.276095  -0.046380
    19  F   -0.005512   0.005318   0.002735   0.000013   0.002448  -0.057745
    20  H   -0.000019   0.000007   0.000000   0.000000   0.000000  -0.000001
    21  H   -0.000086   0.000006   0.000000   0.000000   0.000000  -0.000002
    22  H    0.000046  -0.000034   0.000000   0.000000   0.000013   0.000017
    23  H   -0.004282   0.003779  -0.000013  -0.000013   0.000109  -0.003834
    24  H    0.001621  -0.001599   0.000000  -0.000001  -0.000038   0.000492
    25  H    0.004636  -0.000146   0.000000   0.000000   0.000001   0.000011
    26  H   -0.000257   0.000006   0.000000   0.000000   0.000000   0.000000
    27  H    0.000575   0.000014   0.000000   0.000000   0.000000  -0.000001
    28  H    0.065065  -0.000303   0.000000   0.000000  -0.000002   0.000419
    29  H   -0.036325   0.387085  -0.000036   0.000376  -0.005772  -0.047067
    30  H   -0.037273   0.385261   0.000012  -0.000199   0.002830  -0.040574
    31  H   -0.049519  -0.011767   0.000010  -0.000077   0.000749   0.012432
    32  C   -0.005989  -0.000049   0.000000   0.000000   0.000001   0.000000
    33  H   -0.001000  -0.000087  -0.000001   0.000000  -0.000002  -0.000006
    34  H    0.002002  -0.000070   0.000000   0.000000   0.000000   0.000049
    35  H    0.000184   0.000002   0.000000   0.000000   0.000000   0.000000
    36  H    0.322167  -0.029249  -0.000024   0.000020  -0.000245  -0.013235
              13         14         15         16         17         18
     1  C    0.000002   0.000000   0.000000   0.000000   0.000000   0.000018
     2  C    0.000007   0.000000   0.000000   0.000001   0.000000  -0.004535
     3  C   -0.001744  -0.000043   0.000000   0.000000   0.000001   0.000084
     4  C   -0.000042   0.000000   0.000000   0.000000   0.000000  -0.000001
     5  C   -0.000001   0.000000   0.000000   0.000000   0.000000   0.000000
     6  O   -0.000001   0.000000   0.000000   0.000000   0.000000   0.000000
     7  N   -0.002539   0.000027   0.000000   0.000001   0.000007   0.000087
     8  C   -0.054818   0.007373   0.000005  -0.000099  -0.000115  -0.006499
     9  C   -0.006970   0.487396   0.374137  -0.036192  -0.036008   0.002840
    10  C   -0.043157  -0.039411  -0.033872   0.361905   0.004371  -0.041758
    11  C    0.017692  -0.045763   0.003660  -0.032471   0.000322   0.276095
    12  C    0.386056  -0.080302   0.000414   0.006287   0.006328  -0.046380
    13  C    4.627861   0.491930   0.003579   0.000240  -0.032879   0.002719
    14  C    0.491930   5.026070  -0.034693   0.004544   0.361825   0.000046
    15  H    0.003579  -0.034693   0.578306  -0.005665  -0.005632  -0.000025
    16  H    0.000240   0.004544  -0.005665   0.582972  -0.000127  -0.000407
    17  H   -0.032879   0.361825  -0.005632  -0.000127   0.582761   0.000001
    18  F    0.002719   0.000046  -0.000025  -0.000407   0.000001   9.091339
    19  F    0.293214  -0.044561  -0.000024   0.000001  -0.000311  -0.000001
    20  H    0.000000   0.000000   0.000000   0.000000   0.000000   0.000000
    21  H    0.000000   0.000000   0.000000   0.000000   0.000000  -0.000002
    22  H    0.000000   0.000000   0.000000   0.000000   0.000000   0.000004
    23  H   -0.000006   0.000008   0.000000  -0.000001   0.000000   0.015678
    24  H    0.000002   0.000000   0.000000   0.000000   0.000000   0.000036
    25  H   -0.000001   0.000000   0.000000   0.000000   0.000000   0.000000
    26  H    0.000000   0.000000   0.000000   0.000000   0.000000   0.000000
    27  H    0.000000   0.000000   0.000000   0.000000   0.000000   0.000000
    28  H   -0.000001   0.000000   0.000000   0.000000   0.000000   0.000000
    29  H    0.004925  -0.000124   0.000000  -0.000002   0.000002   0.009037
    30  H   -0.007332  -0.000009   0.000000   0.000002   0.000001   0.000185
    31  H    0.002234  -0.000138   0.000000  -0.000006  -0.000007  -0.000037
    32  C    0.000002  -0.000003   0.000000   0.000000   0.000000   0.000000
    33  H    0.000141   0.000002   0.000000   0.000000   0.000001   0.000000
    34  H   -0.000031  -0.000001   0.000000   0.000000   0.000000   0.000000
    35  H    0.000000   0.000000   0.000000   0.000000   0.000000   0.000000
    36  H    0.003647   0.000194   0.000000   0.000000   0.000005  -0.000006
              19         20         21         22         23         24
     1  C    0.000000   0.386990   0.381303   0.384900  -0.034815  -0.035419
     2  C   -0.000001  -0.032911  -0.027207  -0.035654   0.365382   0.374145
     3  C   -0.000101  -0.005681   0.003982  -0.004918  -0.029804  -0.034224
     4  C    0.000008   0.001892   0.000197  -0.001534   0.004932  -0.010799
     5  C    0.000000   0.000148   0.000005   0.000161   0.000056   0.004051
     6  O    0.000000  -0.000016   0.000000  -0.000001   0.000000   0.000295
     7  N   -0.005512  -0.000019  -0.000086   0.000046  -0.004282   0.001621
     8  C    0.005318   0.000007   0.000006  -0.000034   0.003779  -0.001599
     9  C    0.002735   0.000000   0.000000   0.000000  -0.000013   0.000000
    10  C    0.000013   0.000000   0.000000   0.000000  -0.000013  -0.000001
    11  C    0.002448   0.000000   0.000000   0.000013   0.000109  -0.000038
    12  C   -0.057745  -0.000001  -0.000002   0.000017  -0.003834   0.000492
    13  C    0.293214   0.000000   0.000000   0.000000  -0.000006   0.000002
    14  C   -0.044561   0.000000   0.000000   0.000000   0.000008   0.000000
    15  H   -0.000024   0.000000   0.000000   0.000000   0.000000   0.000000
    16  H    0.000001   0.000000   0.000000   0.000000  -0.000001   0.000000
    17  H   -0.000311   0.000000   0.000000   0.000000   0.000000   0.000000
    18  F   -0.000001   0.000000  -0.000002   0.000004   0.015678   0.000036
    19  F    9.088088   0.000000   0.000000   0.000000  -0.000001   0.000000
    20  H    0.000000   0.599775  -0.030923  -0.033655   0.004946  -0.006104
    21  H    0.000000  -0.030923   0.604927  -0.031299  -0.005051  -0.002044
    22  H    0.000000  -0.033655  -0.031299   0.606904  -0.003641   0.005335
    23  H   -0.000001   0.004946  -0.005051  -0.003641   0.627008  -0.037118
    24  H    0.000000  -0.006104  -0.002044   0.005335  -0.037118   0.628645
    25  H    0.000000   0.001972  -0.000063   0.000896   0.000063   0.000040
    26  H    0.000000  -0.000108   0.000001  -0.000003  -0.000001  -0.000059
    27  H    0.000000   0.002306  -0.000052  -0.000018  -0.000012  -0.001171
    28  H   -0.000001  -0.000001   0.000000   0.000002  -0.000075   0.002135
    29  H    0.000166  -0.000002   0.000010   0.000010  -0.000414   0.000742
    30  H    0.001876   0.000000   0.000000   0.000000   0.000064  -0.000056
    31  H    0.000024  -0.000213  -0.000110   0.005632  -0.006661   0.007024
    32  C   -0.000118  -0.000006  -0.000003  -0.000047  -0.000140  -0.000059
    33  H    0.000117   0.000003   0.000000   0.000006  -0.000004   0.000005
    34  H   -0.000081   0.000001   0.000000   0.000000   0.000001  -0.000008
    35  H    0.000000   0.000007   0.000000   0.000000   0.000002   0.000000
    36  H    0.014543  -0.000003   0.000003   0.000000  -0.000216  -0.000045
              25         26         27         28         29         30
     1  C    0.003315   0.000070  -0.000763   0.000063  -0.000154  -0.000004
     2  C   -0.008339  -0.000032   0.005170  -0.002204   0.004182   0.000069
     3  C   -0.040677   0.006010  -0.014511  -0.001607  -0.006749   0.005611
     4  C    0.365237  -0.033176  -0.045746  -0.009580  -0.000048  -0.000158
     5  C   -0.031841   0.379879   0.367819  -0.036665  -0.000009  -0.000015
     6  O    0.003291  -0.040922  -0.040309   0.274020   0.000032   0.000045
     7  N    0.004636  -0.000257   0.000575   0.065065  -0.036325  -0.037273
     8  C   -0.000146   0.000006   0.000014  -0.000303   0.387085   0.385261
     9  C    0.000000   0.000000   0.000000   0.000000  -0.000036   0.000012
    10  C    0.000000   0.000000   0.000000   0.000000   0.000376  -0.000199
    11  C    0.000001   0.000000   0.000000  -0.000002  -0.005772   0.002830
    12  C    0.000011   0.000000  -0.000001   0.000419  -0.047067  -0.040574
    13  C   -0.000001   0.000000   0.000000  -0.000001   0.004925  -0.007332
    14  C    0.000000   0.000000   0.000000   0.000000  -0.000124  -0.000009
    15  H    0.000000   0.000000   0.000000   0.000000   0.000000   0.000000
    16  H    0.000000   0.000000   0.000000   0.000000  -0.000002   0.000002
    17  H    0.000000   0.000000   0.000000   0.000000   0.000002   0.000001
    18  F    0.000000   0.000000   0.000000   0.000000   0.009037   0.000185
    19  F    0.000000   0.000000   0.000000  -0.000001   0.000166   0.001876
    20  H    0.001972  -0.000108   0.002306  -0.000001  -0.000002   0.000000
    21  H   -0.000063   0.000001  -0.000052   0.000000   0.000010   0.000000
    22  H    0.000896  -0.000003  -0.000018   0.000002   0.000010   0.000000
    23  H    0.000063  -0.000001  -0.000012  -0.000075  -0.000414   0.000064
    24  H    0.000040  -0.000059  -0.001171   0.002135   0.000742  -0.000056
    25  H    0.650060  -0.002284   0.000166   0.000026  -0.000004   0.000004
    26  H   -0.002284   0.651966  -0.051547   0.006125   0.000000   0.000000
    27  H    0.000166  -0.051547   0.697438  -0.003294  -0.000013   0.000001
    28  H    0.000026   0.006125  -0.003294   0.394272  -0.000367  -0.000335
    29  H   -0.000004   0.000000  -0.000013  -0.000367   0.581449  -0.028792
    30  H    0.000004   0.000000   0.000001  -0.000335  -0.028792   0.591765
    31  H   -0.002799  -0.000198  -0.000101   0.001101  -0.000434  -0.000070
    32  C   -0.037798  -0.008685   0.006631  -0.000890  -0.000002   0.000009
    33  H   -0.002182  -0.000069  -0.000167  -0.000003  -0.000001   0.000000
    34  H    0.005767  -0.000925   0.000504  -0.000075  -0.000007   0.000013
    35  H   -0.006216   0.004034  -0.000101  -0.000019   0.000000   0.000000
    36  H    0.000055  -0.000018   0.000010  -0.004186   0.005723  -0.005742
              31         32         33         34         35         36
     1  C   -0.002311  -0.000001  -0.000006  -0.000001   0.000002  -0.000170
     2  C   -0.054821   0.005170   0.000045  -0.000097  -0.000126   0.006113
     3  C    0.371423  -0.045326  -0.004106  -0.008386   0.004361  -0.034848
     4  C   -0.048828   0.355157  -0.032819  -0.033420  -0.027493  -0.008430
     5  C    0.005240  -0.049415   0.004674  -0.008746  -0.002398  -0.000223
     6  O   -0.000279  -0.003540   0.000107   0.012697  -0.000238   0.001200
     7  N   -0.049519  -0.005989  -0.001000   0.002002   0.000184   0.322167
     8  C   -0.011767  -0.000049  -0.000087  -0.000070   0.000002  -0.029249
     9  C    0.000010   0.000000  -0.000001   0.000000   0.000000  -0.000024
    10  C   -0.000077   0.000000   0.000000   0.000000   0.000000   0.000020
    11  C    0.000749   0.000001  -0.000002   0.000000   0.000000  -0.000245
    12  C    0.012432   0.000000  -0.000006   0.000049   0.000000  -0.013235
    13  C    0.002234   0.000002   0.000141  -0.000031   0.000000   0.003647
    14  C   -0.000138  -0.000003   0.000002  -0.000001   0.000000   0.000194
    15  H    0.000000   0.000000   0.000000   0.000000   0.000000   0.000000
    16  H   -0.000006   0.000000   0.000000   0.000000   0.000000   0.000000
    17  H   -0.000007   0.000000   0.000001   0.000000   0.000000   0.000005
    18  F   -0.000037   0.000000   0.000000   0.000000   0.000000  -0.000006
    19  F    0.000024  -0.000118   0.000117  -0.000081   0.000000   0.014543
    20  H   -0.000213  -0.000006   0.000003   0.000001   0.000007  -0.000003
    21  H   -0.000110  -0.000003   0.000000   0.000000   0.000000   0.000003
    22  H    0.005632  -0.000047   0.000006   0.000000   0.000000   0.000000
    23  H   -0.006661  -0.000140  -0.000004   0.000001   0.000002  -0.000216
    24  H    0.007024  -0.000059   0.000005  -0.000008   0.000000  -0.000045
    25  H   -0.002799  -0.037798  -0.002182   0.005767  -0.006216   0.000055
    26  H   -0.000198  -0.008685  -0.000069  -0.000925   0.004034  -0.000018
    27  H   -0.000101   0.006631  -0.000167   0.000504  -0.000101   0.000010
    28  H    0.001101  -0.000890  -0.000003  -0.000075  -0.000019  -0.004186
    29  H   -0.000434  -0.000002  -0.000001  -0.000007   0.000000   0.005723
    30  H   -0.000070   0.000009   0.000000   0.000013   0.000000  -0.005742
    31  H    0.702217  -0.008044   0.005935  -0.000138  -0.000096  -0.004191
    32  C   -0.008044   4.985041   0.377019   0.378640   0.378703   0.007292
    33  H    0.005935   0.377019   0.611948  -0.032753  -0.030053   0.000585
    34  H   -0.000138   0.378640  -0.032753   0.597395  -0.029711   0.003347
    35  H   -0.000096   0.378703  -0.030053  -0.029711   0.602381  -0.000338
    36  H   -0.004191   0.007292   0.000585   0.003347  -0.000338   0.471403
 Mulliken charges:
               1
     1  C   -0.330604
     2  C   -0.189688
     3  C    0.081607
     4  C   -0.099496
     5  C    0.073146
     6  O   -0.593005
     7  N   -0.542275
     8  C   -0.119173
     9  C   -0.101445
    10  C   -0.133736
    11  C    0.317346
    12  C   -0.014263
    13  C    0.315271
    14  C   -0.134366
    15  H    0.119811
    16  H    0.119018
    17  H    0.119456
    18  F   -0.298519
    19  F   -0.300094
    20  H    0.111597
    21  H    0.106406
    22  H    0.106875
    23  H    0.104073
    24  H    0.104175
    25  H    0.096809
    26  H    0.090193
    27  H    0.077168
    28  H    0.316378
    29  H    0.132579
    30  H    0.132810
    31  H    0.076823
    32  C   -0.333550
    33  H    0.102673
    34  H    0.114031
    35  H    0.107114
    36  H    0.264858
 Sum of Mulliken charges =   0.00000
 Mulliken charges with hydrogens summed into heavy atoms:
               1
     1  C   -0.005727
     2  C    0.018560
     3  C    0.158430
     4  C   -0.002687
     5  C    0.240506
     6  O   -0.276627
     7  N   -0.277417
     8  C    0.146216
     9  C    0.018367
    10  C   -0.014718
    11  C    0.317346
    12  C   -0.014263
    13  C    0.315271
    14  C   -0.014910
    18  F   -0.298519
    19  F   -0.300094
    32  C   -0.009733
 Electronic spatial extent (au):  <R**2>=           4576.3761
 Charge=              0.0000 electrons
 Dipole moment (field-independent basis, Debye):
    X=             -4.3210    Y=              0.9237    Z=              2.5741  Tot=              5.1138
 Quadrupole moment (field-independent basis, Debye-Ang):
   XX=           -102.9124   YY=           -102.3307   ZZ=           -101.0045
   XY=              6.2770   XZ=              3.7686   YZ=             -1.9706
 Traceless Quadrupole moment (field-independent basis, Debye-Ang):
   XX=             -0.8299   YY=             -0.2482   ZZ=              1.0780
   XY=              6.2770   XZ=              3.7686   YZ=             -1.9706
 Octapole moment (field-independent basis, Debye-Ang**2):
  XXX=           -101.2938  YYY=             -4.2056  ZZZ=            -17.2681  XYY=            -10.6937
  XXY=             18.6515  XXZ=             55.3225  XZZ=            -15.0999  YZZ=             -2.9746
  YYZ=              1.8210  XYZ=             -7.7901
 Hexadecapole moment (field-independent basis, Debye-Ang**3):
 XXXX=          -3908.5805 YYYY=          -1334.2584 ZZZZ=           -620.1006 XXXY=             50.6969
 XXXZ=             23.7856 YYYX=             -4.1061 YYYZ=             -8.9697 ZZZX=             11.0323
 ZZZY=             -5.6202 XXYY=           -867.4864 XXZZ=           -780.8459 YYZZ=           -326.4205
 XXYZ=            -48.7749 YYXZ=            -14.3723 ZZXY=              9.6391
 N-N= 1.302094506046D+03 E-N=-4.557656466606D+03  KE= 8.290799185248D+02
 1\1\GINC-SWANNODE-0-2\FOpt\RB3LYP\6-31G(d,p)\C13H19F2N1O1\KE291\06-Mar
 -2019\0\\# b3lyp/6-31g(d,p) Opt=(maxcycles=50) scrf=(solvent=chlorofor
 m)\\AT3_1ginp004\\0,1\C,-1.6343351227,0.2003273695,0.6214867908\C,-0.8
 23656397,1.478325362,0.8680336081\C,0.1786512957,1.380995139,2.0340226
 295\C,-0.4680068332,0.9687866912,3.3861492894\C,-1.5662709514,1.945706
 2195,3.8491032553\O,-1.0802257935,3.2524419605,4.1323842292\N,0.877103
 3515,2.6781245092,2.2243504283\C,1.6339223545,3.2219203542,1.083585869
 1\C,4.7756852802,0.6595776631,-0.4963366916\C,3.6869849433,0.986213490
 1,-1.3046436549\C,2.6930760366,1.8041131655,-0.778568615\C,2.719509062
 7,2.3200278757,0.5178197386\C,3.8346550526,1.9552130641,1.2761122198\C
 ,4.8594985029,1.1437021475,0.8111838415\H,5.5632497875,0.0230984872,-0
 .8855143532\H,3.598185205,0.623592424,-2.3221567532\H,5.6940798566,0.9
 060731042,1.4605010264\F,1.6379141921,2.119383905,-1.5713315718\F,3.90
 5875347,2.4308063526,2.5464730525\H,-2.33969505,-0.0095603967,1.431005
 8275\H,-2.2145194303,0.2896221627,-0.3020991217\H,-0.9787032987,-0.671
 7615992,0.5160840069\H,-0.2684641987,1.7051063161,-0.047133199\H,-1.49
 82594454,2.327163444,1.0347284641\H,-0.9581891493,0.0032710573,3.20924
 08635\H,-2.0171879328,1.5650992861,4.7739990025\H,-2.3716018188,1.9802
 994225,3.0978546437\H,-0.472503622,3.4600822139,3.3922596112\H,0.94551
 06427,3.4938293424,0.2838487481\H,2.096294503,4.1504746819,1.433085322
 8\H,0.9013983426,0.5870548175,1.770597969\C,0.5787162996,0.7533067388,
 4.4926315647\H,1.4142977836,0.1363677616,4.1439171777\H,0.9768423342,1
 .7036582323,4.8610926769\H,0.1253450117,0.2466548416,5.3507916728\H,1.
 5380508581,2.5650243931,2.9890244303\\Version=EM64L-G09RevD.01\State=1
 -A\HF=-836.5004419\RMSD=7.243e-09\RMSF=6.199e-06\Dipole=1.2397197,-1.1
 183941,-1.1225202\Quadrupole=3.7241919,0.0036623,-3.7278542,1.9305913,
 1.5732049,-3.4956326\PG=C01 [X(C13H19F2N1O1)]\\@


 ONE THORN OF EXPERIENCE IS WORTH A WHOLE WILDERNESS OF
 WARNING....  LOWELL - AMONG MY BOOKS
 Job cpu time:       0 days  2 hours 25 minutes  4.3 seconds.
 File lengths (MBytes):  RWF=    271 Int=      0 D2E=      0 Chk=     13 Scr=      1
 Normal termination of Gaussian 09 at Wed Mar  6 12:06:25 2019.
