 Entering Gaussian System, Link 0=/usr/local/shared/gaussian/em64t/09-D01/g09/g09
 Initial command:
 /usr/local/shared/gaussian/em64t/09-D01/g09/l1.exe "/scratch/ke291/AT3_1ginp007/Gau-23549.inp" -scrdir="/scratch/ke291/AT3_1ginp007/"
 Entering Link 1 = /usr/local/shared/gaussian/em64t/09-D01/g09/l1.exe PID=     23553.
  
 Copyright (c) 1988,1990,1992,1993,1995,1998,2003,2009,2013,
            Gaussian, Inc.  All Rights Reserved.
  
 This is part of the Gaussian(R) 09 program.  It is based on
 the Gaussian(R) 03 system (copyright 2003, Gaussian, Inc.),
 the Gaussian(R) 98 system (copyright 1998, Gaussian, Inc.),
 the Gaussian(R) 94 system (copyright 1995, Gaussian, Inc.),
 the Gaussian 92(TM) system (copyright 1992, Gaussian, Inc.),
 the Gaussian 90(TM) system (copyright 1990, Gaussian, Inc.),
 the Gaussian 88(TM) system (copyright 1988, Gaussian, Inc.),
 the Gaussian 86(TM) system (copyright 1986, Carnegie Mellon
 University), and the Gaussian 82(TM) system (copyright 1983,
 Carnegie Mellon University). Gaussian is a federally registered
 trademark of Gaussian, Inc.
  
 This software contains proprietary and confidential information,
 including trade secrets, belonging to Gaussian, Inc.
  
 This software is provided under written license and may be
 used, copied, transmitted, or stored only in accord with that
 written license.
  
 The following legend is applicable only to US Government
 contracts under FAR:
  
                    RESTRICTED RIGHTS LEGEND
  
 Use, reproduction and disclosure by the US Government is
 subject to restrictions as set forth in subparagraphs (a)
 and (c) of the Commercial Computer Software - Restricted
 Rights clause in FAR 52.227-19.
  
 Gaussian, Inc.
 340 Quinnipiac St., Bldg. 40, Wallingford CT 06492
  
  
 ---------------------------------------------------------------
 Warning -- This program may not be used in any manner that
 competes with the business of Gaussian, Inc. or will provide
 assistance to any competitor of Gaussian, Inc.  The licensee
 of this program is prohibited from giving any competitor of
 Gaussian, Inc. access to this program.  By using this program,
 the user acknowledges that Gaussian, Inc. is engaged in the
 business of creating and licensing software in the field of
 computational chemistry and represents and warrants to the
 licensee that it is not a competitor of Gaussian, Inc. and that
 it will not use this program in any manner prohibited above.
 ---------------------------------------------------------------
  

 Cite this work as:
 Gaussian 09, Revision D.01,
 M. J. Frisch, G. W. Trucks, H. B. Schlegel, G. E. Scuseria, 
 M. A. Robb, J. R. Cheeseman, G. Scalmani, V. Barone, B. Mennucci, 
 G. A. Petersson, H. Nakatsuji, M. Caricato, X. Li, H. P. Hratchian, 
 A. F. Izmaylov, J. Bloino, G. Zheng, J. L. Sonnenberg, M. Hada, 
 M. Ehara, K. Toyota, R. Fukuda, J. Hasegawa, M. Ishida, T. Nakajima, 
 Y. Honda, O. Kitao, H. Nakai, T. Vreven, J. A. Montgomery, Jr., 
 J. E. Peralta, F. Ogliaro, M. Bearpark, J. J. Heyd, E. Brothers, 
 K. N. Kudin, V. N. Staroverov, T. Keith, R. Kobayashi, J. Normand, 
 K. Raghavachari, A. Rendell, J. C. Burant, S. S. Iyengar, J. Tomasi, 
 M. Cossi, N. Rega, J. M. Millam, M. Klene, J. E. Knox, J. B. Cross, 
 V. Bakken, C. Adamo, J. Jaramillo, R. Gomperts, R. E. Stratmann, 
 O. Yazyev, A. J. Austin, R. Cammi, C. Pomelli, J. W. Ochterski, 
 R. L. Martin, K. Morokuma, V. G. Zakrzewski, G. A. Voth, 
 P. Salvador, J. J. Dannenberg, S. Dapprich, A. D. Daniels, 
 O. Farkas, J. B. Foresman, J. V. Ortiz, J. Cioslowski, 
 and D. J. Fox, Gaussian, Inc., Wallingford CT, 2013.
 
 ******************************************
 Gaussian 09:  EM64L-G09RevD.01 24-Apr-2013
                 6-Mar-2019 
 ******************************************
 %nprocshared=2
 Will use up to    2 processors via shared memory.
 %mem=6000MB
 %chk=AT3_1ginp007.chk
 ---------------------------------------------------------------
 # b3lyp/6-31g(d,p) Opt=(maxcycles=50) scrf=(solvent=chloroform)
 ---------------------------------------------------------------
 1/6=50,14=-1,18=20,19=15,26=3,38=1/1,3;
 2/9=110,12=2,17=6,18=5,40=1/2;
 3/5=1,6=6,7=101,11=2,16=1,25=1,30=1,70=2201,71=1,72=7,74=-5/1,2,3;
 4//1;
 5/5=2,38=5,53=7/2;
 6/7=2,8=2,9=2,10=2,28=1/1;
 7//1,2,3,16;
 1/6=50,14=-1,18=20,19=15,26=3/3(2);
 2/9=110/2;
 99//99;
 2/9=110/2;
 3/5=1,6=6,7=101,11=2,16=1,25=1,30=1,70=2205,71=1,72=7,74=-5/1,2,3;
 4/5=5,16=3,69=1/1;
 5/5=2,38=5,53=7/2;
 7//1,2,3,16;
 1/6=50,14=-1,18=20,19=15,26=3/3(-5);
 2/9=110/2;
 6/7=2,8=2,9=2,10=2,19=2,28=1/1;
 99/9=1/99;
 ------------
 AT3_1ginp007
 ------------
 Symbolic Z-matrix:
 Charge =  0 Multiplicity = 1
 C                    -1.3619   -0.26185   0.22784 
 C                    -1.76731   0.7036    1.33445 
 C                    -0.62991   1.08311   2.31605 
 C                    -1.1461    2.06332   3.42443 
 C                    -0.01892   2.51602   4.37481 
 O                     0.86617   3.42165   3.72693 
 N                     0.49485   1.72322   1.60222 
 C                     1.63229   0.81276   1.41433 
 C                     4.90281   2.83941  -0.54966 
 C                     4.97178   2.55456   0.81325 
 C                     3.9139    1.89655   1.44022 
 C                     2.77398   1.51079   0.73377 
 C                     2.72586   1.80478  -0.63043 
 C                     3.77393   2.46123  -1.27433 
 H                     5.72325   3.35448  -1.04269 
 H                     5.84195   2.84153   1.39639 
 H                     3.70001   2.67553  -2.33628 
 F                     4.01538   1.62561   2.74922 
 F                     1.64853   1.45429  -1.34858 
 H                    -0.6642    0.19955  -0.47659 
 H                    -0.90123  -1.16377   0.64256 
 H                    -2.24538  -0.56746  -0.34243 
 H                    -2.18867   1.60903   0.87985 
 H                    -2.58088   0.22196   1.88705 
 H                    -1.55033   2.95765   2.92985 
 H                     0.56089   1.66149   4.74006 
 H                    -0.42619   3.04173   5.24437 
 H                     1.03724   3.0268    2.84411 
 H                     1.96552   0.43392   2.38833 
 H                     1.3516   -0.06394   0.82023 
 H                    -0.29078   0.16665   2.81818 
 C                    -2.26484   1.43673   4.26721 
 H                    -1.94893   0.48012   4.69656 
 H                    -2.55027   2.09894   5.09212 
 H                    -3.16967   1.26896   3.67647 
 H                     0.18202   2.04866   0.68441 
 

 GradGradGradGradGradGradGradGradGradGradGradGradGradGradGradGradGradGrad
 Berny optimization.
 Initialization pass.
                           ----------------------------
                           !    Initial Parameters    !
                           ! (Angstroms and Degrees)  !
 --------------------------                            --------------------------
 ! Name  Definition              Value          Derivative Info.                !
 --------------------------------------------------------------------------------
 ! R1    R(1,2)                  1.5235         estimate D2E/DX2                !
 ! R2    R(1,20)                 1.0936         estimate D2E/DX2                !
 ! R3    R(1,21)                 1.0944         estimate D2E/DX2                !
 ! R4    R(1,22)                 1.0951         estimate D2E/DX2                !
 ! R5    R(2,3)                  1.5496         estimate D2E/DX2                !
 ! R6    R(2,23)                 1.0973         estimate D2E/DX2                !
 ! R7    R(2,24)                 1.0951         estimate D2E/DX2                !
 ! R8    R(3,4)                  1.5671         estimate D2E/DX2                !
 ! R9    R(3,7)                  1.478          estimate D2E/DX2                !
 ! R10   R(3,31)                 1.0987         estimate D2E/DX2                !
 ! R11   R(4,5)                  1.5423         estimate D2E/DX2                !
 ! R12   R(4,25)                 1.099          estimate D2E/DX2                !
 ! R13   R(4,32)                 1.5344         estimate D2E/DX2                !
 ! R14   R(5,6)                  1.4224         estimate D2E/DX2                !
 ! R15   R(5,26)                 1.0954         estimate D2E/DX2                !
 ! R16   R(5,27)                 1.0947         estimate D2E/DX2                !
 ! R17   R(6,28)                 0.9821         estimate D2E/DX2                !
 ! R18   R(7,8)                  1.469          estimate D2E/DX2                !
 ! R19   R(7,36)                 1.0228         estimate D2E/DX2                !
 ! R20   R(8,12)                 1.5013         estimate D2E/DX2                !
 ! R21   R(8,29)                 1.0969         estimate D2E/DX2                !
 ! R22   R(8,30)                 1.0956         estimate D2E/DX2                !
 ! R23   R(9,10)                 1.3941         estimate D2E/DX2                !
 ! R24   R(9,14)                 1.3937         estimate D2E/DX2                !
 ! R25   R(9,15)                 1.087          estimate D2E/DX2                !
 ! R26   R(10,11)                1.3947         estimate D2E/DX2                !
 ! R27   R(10,16)                1.0861         estimate D2E/DX2                !
 ! R28   R(11,12)                1.3955         estimate D2E/DX2                !
 ! R29   R(11,18)                1.3406         estimate D2E/DX2                !
 ! R30   R(12,13)                1.3963         estimate D2E/DX2                !
 ! R31   R(13,14)                1.3943         estimate D2E/DX2                !
 ! R32   R(13,19)                1.3414         estimate D2E/DX2                !
 ! R33   R(14,17)                1.0859         estimate D2E/DX2                !
 ! R34   R(32,33)                1.0951         estimate D2E/DX2                !
 ! R35   R(32,34)                1.0957         estimate D2E/DX2                !
 ! R36   R(32,35)                1.0935         estimate D2E/DX2                !
 ! A1    A(2,1,20)             111.7332         estimate D2E/DX2                !
 ! A2    A(2,1,21)             111.0402         estimate D2E/DX2                !
 ! A3    A(2,1,22)             109.9027         estimate D2E/DX2                !
 ! A4    A(20,1,21)            108.861          estimate D2E/DX2                !
 ! A5    A(20,1,22)            107.2791         estimate D2E/DX2                !
 ! A6    A(21,1,22)            107.8763         estimate D2E/DX2                !
 ! A7    A(1,2,3)              114.8342         estimate D2E/DX2                !
 ! A8    A(1,2,23)             108.9155         estimate D2E/DX2                !
 ! A9    A(1,2,24)             106.5894         estimate D2E/DX2                !
 ! A10   A(3,2,23)             110.0116         estimate D2E/DX2                !
 ! A11   A(3,2,24)             109.4729         estimate D2E/DX2                !
 ! A12   A(23,2,24)            106.6605         estimate D2E/DX2                !
 ! A13   A(2,3,4)              111.0664         estimate D2E/DX2                !
 ! A14   A(2,3,7)              111.0206         estimate D2E/DX2                !
 ! A15   A(2,3,31)             108.1669         estimate D2E/DX2                !
 ! A16   A(4,3,7)              108.7466         estimate D2E/DX2                !
 ! A17   A(4,3,31)             107.4689         estimate D2E/DX2                !
 ! A18   A(7,3,31)             110.311          estimate D2E/DX2                !
 ! A19   A(3,4,5)              112.253          estimate D2E/DX2                !
 ! A20   A(3,4,25)             108.1715         estimate D2E/DX2                !
 ! A21   A(3,4,32)             111.9137         estimate D2E/DX2                !
 ! A22   A(5,4,25)             107.8947         estimate D2E/DX2                !
 ! A23   A(5,4,32)             108.3161         estimate D2E/DX2                !
 ! A24   A(25,4,32)            108.1377         estimate D2E/DX2                !
 ! A25   A(4,5,6)              111.1599         estimate D2E/DX2                !
 ! A26   A(4,5,26)             111.3062         estimate D2E/DX2                !
 ! A27   A(4,5,27)             111.0101         estimate D2E/DX2                !
 ! A28   A(6,5,26)             108.6151         estimate D2E/DX2                !
 ! A29   A(6,5,27)             106.7107         estimate D2E/DX2                !
 ! A30   A(26,5,27)            107.8606         estimate D2E/DX2                !
 ! A31   A(5,6,28)             105.1791         estimate D2E/DX2                !
 ! A32   A(3,7,8)              112.4946         estimate D2E/DX2                !
 ! A33   A(3,7,36)             109.7823         estimate D2E/DX2                !
 ! A34   A(8,7,36)             108.6175         estimate D2E/DX2                !
 ! A35   A(7,8,12)             111.0166         estimate D2E/DX2                !
 ! A36   A(7,8,29)             109.6149         estimate D2E/DX2                !
 ! A37   A(7,8,30)             111.5262         estimate D2E/DX2                !
 ! A38   A(12,8,29)            109.395          estimate D2E/DX2                !
 ! A39   A(12,8,30)            108.728          estimate D2E/DX2                !
 ! A40   A(29,8,30)            106.4369         estimate D2E/DX2                !
 ! A41   A(10,9,14)            119.5346         estimate D2E/DX2                !
 ! A42   A(10,9,15)            120.194          estimate D2E/DX2                !
 ! A43   A(14,9,15)            120.2713         estimate D2E/DX2                !
 ! A44   A(9,10,11)            119.8921         estimate D2E/DX2                !
 ! A45   A(9,10,16)            120.7013         estimate D2E/DX2                !
 ! A46   A(11,10,16)           119.4065         estimate D2E/DX2                !
 ! A47   A(10,11,12)           121.4966         estimate D2E/DX2                !
 ! A48   A(10,11,18)           118.4817         estimate D2E/DX2                !
 ! A49   A(12,11,18)           120.0191         estimate D2E/DX2                !
 ! A50   A(8,12,11)            121.3493         estimate D2E/DX2                !
 ! A51   A(8,12,13)            120.9688         estimate D2E/DX2                !
 ! A52   A(11,12,13)           117.6804         estimate D2E/DX2                !
 ! A53   A(12,13,14)           121.6289         estimate D2E/DX2                !
 ! A54   A(12,13,19)           119.7177         estimate D2E/DX2                !
 ! A55   A(14,13,19)           118.6533         estimate D2E/DX2                !
 ! A56   A(9,14,13)            119.7673         estimate D2E/DX2                !
 ! A57   A(9,14,17)            120.6687         estimate D2E/DX2                !
 ! A58   A(13,14,17)           119.5636         estimate D2E/DX2                !
 ! A59   A(4,32,33)            111.2062         estimate D2E/DX2                !
 ! A60   A(4,32,34)            110.8945         estimate D2E/DX2                !
 ! A61   A(4,32,35)            111.6671         estimate D2E/DX2                !
 ! A62   A(33,32,34)           107.9351         estimate D2E/DX2                !
 ! A63   A(33,32,35)           108.4498         estimate D2E/DX2                !
 ! A64   A(34,32,35)           106.4921         estimate D2E/DX2                !
 ! D1    D(20,1,2,3)           -67.7581         estimate D2E/DX2                !
 ! D2    D(20,1,2,23)           56.1038         estimate D2E/DX2                !
 ! D3    D(20,1,2,24)          170.8322         estimate D2E/DX2                !
 ! D4    D(21,1,2,3)            53.9914         estimate D2E/DX2                !
 ! D5    D(21,1,2,23)          177.8533         estimate D2E/DX2                !
 ! D6    D(21,1,2,24)          -67.4183         estimate D2E/DX2                !
 ! D7    D(22,1,2,3)           173.2697         estimate D2E/DX2                !
 ! D8    D(22,1,2,23)          -62.8685         estimate D2E/DX2                !
 ! D9    D(22,1,2,24)           51.86           estimate D2E/DX2                !
 ! D10   D(1,2,3,4)           -179.3373         estimate D2E/DX2                !
 ! D11   D(1,2,3,7)             59.5332         estimate D2E/DX2                !
 ! D12   D(1,2,3,31)           -61.6295         estimate D2E/DX2                !
 ! D13   D(23,2,3,4)            57.3845         estimate D2E/DX2                !
 ! D14   D(23,2,3,7)           -63.745          estimate D2E/DX2                !
 ! D15   D(23,2,3,31)          175.0924         estimate D2E/DX2                !
 ! D16   D(24,2,3,4)           -59.514          estimate D2E/DX2                !
 ! D17   D(24,2,3,7)           179.3565         estimate D2E/DX2                !
 ! D18   D(24,2,3,31)           58.1939         estimate D2E/DX2                !
 ! D19   D(2,3,4,5)           -177.0806         estimate D2E/DX2                !
 ! D20   D(2,3,4,25)           -58.1516         estimate D2E/DX2                !
 ! D21   D(2,3,4,32)            60.8739         estimate D2E/DX2                !
 ! D22   D(7,3,4,5)            -54.6242         estimate D2E/DX2                !
 ! D23   D(7,3,4,25)            64.3048         estimate D2E/DX2                !
 ! D24   D(7,3,4,32)          -176.6697         estimate D2E/DX2                !
 ! D25   D(31,3,4,5)            64.7882         estimate D2E/DX2                !
 ! D26   D(31,3,4,25)         -176.2828         estimate D2E/DX2                !
 ! D27   D(31,3,4,32)          -57.2573         estimate D2E/DX2                !
 ! D28   D(2,3,7,8)           -103.2917         estimate D2E/DX2                !
 ! D29   D(2,3,7,36)            17.7828         estimate D2E/DX2                !
 ! D30   D(4,3,7,8)            134.2242         estimate D2E/DX2                !
 ! D31   D(4,3,7,36)          -104.7013         estimate D2E/DX2                !
 ! D32   D(31,3,7,8)            16.6019         estimate D2E/DX2                !
 ! D33   D(31,3,7,36)          137.6764         estimate D2E/DX2                !
 ! D34   D(3,4,5,6)             72.0804         estimate D2E/DX2                !
 ! D35   D(3,4,5,26)           -49.1417         estimate D2E/DX2                !
 ! D36   D(3,4,5,27)          -169.303          estimate D2E/DX2                !
 ! D37   D(25,4,5,6)           -47.011          estimate D2E/DX2                !
 ! D38   D(25,4,5,26)         -168.2332         estimate D2E/DX2                !
 ! D39   D(25,4,5,27)           71.6055         estimate D2E/DX2                !
 ! D40   D(32,4,5,6)          -163.8492         estimate D2E/DX2                !
 ! D41   D(32,4,5,26)           74.9286         estimate D2E/DX2                !
 ! D42   D(32,4,5,27)          -45.2326         estimate D2E/DX2                !
 ! D43   D(3,4,32,33)           54.7556         estimate D2E/DX2                !
 ! D44   D(3,4,32,34)          174.8666         estimate D2E/DX2                !
 ! D45   D(3,4,32,35)          -66.5374         estimate D2E/DX2                !
 ! D46   D(5,4,32,33)          -69.5175         estimate D2E/DX2                !
 ! D47   D(5,4,32,34)           50.5934         estimate D2E/DX2                !
 ! D48   D(5,4,32,35)          169.1895         estimate D2E/DX2                !
 ! D49   D(25,4,32,33)         173.801          estimate D2E/DX2                !
 ! D50   D(25,4,32,34)         -66.088          estimate D2E/DX2                !
 ! D51   D(25,4,32,35)          52.508          estimate D2E/DX2                !
 ! D52   D(4,5,6,28)           -44.7557         estimate D2E/DX2                !
 ! D53   D(26,5,6,28)           78.0305         estimate D2E/DX2                !
 ! D54   D(27,5,6,28)         -165.9278         estimate D2E/DX2                !
 ! D55   D(3,7,8,12)          -177.8363         estimate D2E/DX2                !
 ! D56   D(3,7,8,29)           -56.867          estimate D2E/DX2                !
 ! D57   D(3,7,8,30)            60.745          estimate D2E/DX2                !
 ! D58   D(36,7,8,12)           60.4249         estimate D2E/DX2                !
 ! D59   D(36,7,8,29)         -178.6059         estimate D2E/DX2                !
 ! D60   D(36,7,8,30)          -60.9938         estimate D2E/DX2                !
 ! D61   D(7,8,12,11)          105.2607         estimate D2E/DX2                !
 ! D62   D(7,8,12,13)          -74.2874         estimate D2E/DX2                !
 ! D63   D(29,8,12,11)         -15.838          estimate D2E/DX2                !
 ! D64   D(29,8,12,13)         164.6139         estimate D2E/DX2                !
 ! D65   D(30,8,12,11)        -131.6939         estimate D2E/DX2                !
 ! D66   D(30,8,12,13)          48.758          estimate D2E/DX2                !
 ! D67   D(14,9,10,11)          -0.058          estimate D2E/DX2                !
 ! D68   D(14,9,10,16)        -179.9355         estimate D2E/DX2                !
 ! D69   D(15,9,10,11)         179.8298         estimate D2E/DX2                !
 ! D70   D(15,9,10,16)          -0.0477         estimate D2E/DX2                !
 ! D71   D(10,9,14,13)           0.0892         estimate D2E/DX2                !
 ! D72   D(10,9,14,17)         179.8847         estimate D2E/DX2                !
 ! D73   D(15,9,14,13)        -179.7984         estimate D2E/DX2                !
 ! D74   D(15,9,14,17)          -0.003          estimate D2E/DX2                !
 ! D75   D(9,10,11,12)          -0.0257         estimate D2E/DX2                !
 ! D76   D(9,10,11,18)         179.3829         estimate D2E/DX2                !
 ! D77   D(16,10,11,12)        179.8534         estimate D2E/DX2                !
 ! D78   D(16,10,11,18)         -0.7381         estimate D2E/DX2                !
 ! D79   D(10,11,12,8)        -179.4871         estimate D2E/DX2                !
 ! D80   D(10,11,12,13)          0.0754         estimate D2E/DX2                !
 ! D81   D(18,11,12,8)           1.1134         estimate D2E/DX2                !
 ! D82   D(18,11,12,13)       -179.3242         estimate D2E/DX2                !
 ! D83   D(8,12,13,14)         179.5209         estimate D2E/DX2                !
 ! D84   D(8,12,13,19)          -0.3334         estimate D2E/DX2                !
 ! D85   D(11,12,13,14)         -0.0433         estimate D2E/DX2                !
 ! D86   D(11,12,13,19)       -179.8976         estimate D2E/DX2                !
 ! D87   D(12,13,14,9)          -0.0384         estimate D2E/DX2                !
 ! D88   D(12,13,14,17)       -179.8361         estimate D2E/DX2                !
 ! D89   D(19,13,14,9)         179.8174         estimate D2E/DX2                !
 ! D90   D(19,13,14,17)          0.0197         estimate D2E/DX2                !
 --------------------------------------------------------------------------------
 Trust Radius=3.00D-01 FncErr=1.00D-07 GrdErr=1.00D-06
 Number of steps in this run=     50 maximum allowed number of steps=    216.
 GradGradGradGradGradGradGradGradGradGradGradGradGradGradGradGradGradGrad

                          Input orientation:                          
 ---------------------------------------------------------------------
 Center     Atomic      Atomic             Coordinates (Angstroms)
 Number     Number       Type             X           Y           Z
 ---------------------------------------------------------------------
      1          6           0       -1.361895   -0.261854    0.227839
      2          6           0       -1.767314    0.703603    1.334448
      3          6           0       -0.629907    1.083114    2.316055
      4          6           0       -1.146095    2.063318    3.424429
      5          6           0       -0.018916    2.516015    4.374808
      6          8           0        0.866172    3.421651    3.726931
      7          7           0        0.494847    1.723220    1.602217
      8          6           0        1.632294    0.812758    1.414328
      9          6           0        4.902810    2.839408   -0.549659
     10          6           0        4.971778    2.554563    0.813251
     11          6           0        3.913898    1.896552    1.440222
     12          6           0        2.773978    1.510785    0.733769
     13          6           0        2.725863    1.804779   -0.630426
     14          6           0        3.773926    2.461232   -1.274325
     15          1           0        5.723249    3.354481   -1.042692
     16          1           0        5.841950    2.841533    1.396387
     17          1           0        3.700006    2.675528   -2.336284
     18          9           0        4.015381    1.625614    2.749216
     19          9           0        1.648525    1.454291   -1.348578
     20          1           0       -0.664201    0.199552   -0.476586
     21          1           0       -0.901229   -1.163771    0.642559
     22          1           0       -2.245376   -0.567456   -0.342432
     23          1           0       -2.188673    1.609033    0.879850
     24          1           0       -2.580877    0.221959    1.887050
     25          1           0       -1.550332    2.957650    2.929845
     26          1           0        0.560892    1.661489    4.740060
     27          1           0       -0.426189    3.041728    5.244375
     28          1           0        1.037241    3.026802    2.844106
     29          1           0        1.965521    0.433922    2.388327
     30          1           0        1.351601   -0.063944    0.820233
     31          1           0       -0.290780    0.166650    2.818183
     32          6           0       -2.264835    1.436726    4.267213
     33          1           0       -1.948925    0.480120    4.696558
     34          1           0       -2.550267    2.098943    5.092121
     35          1           0       -3.169668    1.268958    3.676474
     36          1           0        0.182015    2.048660    0.684408
 ---------------------------------------------------------------------
                    Distance matrix (angstroms):
                    1          2          3          4          5
     1  C    0.000000
     2  C    1.523501   0.000000
     3  C    2.589477   1.549605   0.000000
     4  C    3.958684   2.569583   1.567081   0.000000
     5  C    5.168897   3.947850   2.581662   1.542299   0.000000
     6  O    5.547624   4.477389   3.114094   2.446588   1.422428
     7  N    3.045804   2.495735   1.477962   2.475644   2.929119
     8  C    3.395249   3.402298   2.450257   3.650185   3.793682
     9  C    7.033410   7.252729   6.473627   7.279076   6.969817
    10  C    6.956316   7.008071   5.983515   6.669928   6.131329
    11  C    5.827742   5.806073   4.698396   5.437685   4.945964
    12  C    4.528097   4.651418   3.777958   4.786639   4.697649
    13  C    4.660188   5.026128   4.523687   5.612553   5.752568
    14  C    6.004028   6.371836   5.846690   6.814927   6.804510
    15  H    8.055519   8.293762   7.536769   8.295189   7.938815
    16  H    7.930441   7.904143   6.769251   7.317879   6.582302
    17  H    6.389506   6.874180   6.551961   7.552835   7.674280
    18  F    6.231771   6.024221   4.696875   5.223823   4.439698
    19  F    3.806951   4.407961   4.331115   5.564388   6.055144
    20  H    1.093566   2.179626   2.929283   4.350145   5.414648
    21  H    1.094377   2.171612   2.814729   4.267653   5.314977
    22  H    1.095053   2.157791   3.521601   4.724260   6.059478
    23  H    2.146835   1.097272   2.183810   2.787154   4.212504
    24  H    2.114940   1.095096   2.175297   2.795127   4.244441
    25  H    4.207321   2.770036   2.176650   1.099023   2.151324
    26  H    5.268443   4.235125   2.761941   2.192295   1.095354
    27  H    6.079049   4.748997   3.528842   2.188094   1.094711
    28  H    4.839005   3.942315   2.614602   2.456020   1.928580
    29  H    4.027842   3.888116   2.676363   3.662048   3.495598
    30  H    2.784450   3.252872   2.734886   4.188743   4.601033
    31  H    2.835628   2.161005   1.098656   2.167129   2.831344
    32  C    4.474038   3.063675   2.570029   1.534432   2.494112
    33  H    4.567776   3.374420   2.787509   2.183887   2.823708
    34  H    5.535958   4.084127   3.525086   2.180405   2.663874
    35  H    4.183839   2.787707   2.887155   2.188466   3.459777
    36  H    2.816130   2.455934   2.062467   3.044964   3.725298
                    6          7          8          9         10
     6  O    0.000000
     7  N    2.745352   0.000000
     8  C    3.569510   1.469023   0.000000
     9  C    5.909541   5.030565   4.319818   0.000000
    10  C    5.108559   4.621310   3.814096   1.394065   0.000000
    11  C    4.104095   3.427272   2.526063   2.413825   1.394698
    12  C    4.031148   2.448217   1.501281   2.818573   2.434361
    13  C    5.005925   3.157337   2.522106   2.411655   2.773178
    14  C    5.864299   4.423970   3.812205   1.393749   2.408637
    15  H    6.807717   6.082166   5.406775   1.086969   2.156178
    16  H    5.525065   5.466672   4.673056   2.160806   1.086093
    17  H    6.734233   5.166403   4.670379   2.160005   3.398766
    18  F    3.754889   3.703956   2.849871   3.625383   2.350660
    19  F    5.499398   3.179699   2.836455   3.625906   4.114379
    20  H    5.513032   2.826018   3.037345   6.161639   6.242917
    21  H    5.801996   3.347341   3.304699   7.150783   6.953226
    22  H    6.492644   4.066654   4.475212   7.921252   7.947951
    23  H    4.552311   2.781390   3.939481   7.338014   7.222916
    24  H    5.050281   3.434384   4.280575   8.294225   7.977260
    25  H    2.586529   2.732978   4.126313   7.332392   6.868797
    26  H    2.053727   3.139145   3.595656   6.944125   5.972715
    27  H    2.029082   3.981468   4.886197   7.874642   7.000731
    28  H    0.982115   1.880374   2.701915   5.147366   4.452860
    29  H    3.453542   2.107876   1.096919   4.800603   4.001945
    30  H    4.564417   2.130606   1.095602   4.787185   4.467920
    31  H    3.572029   2.125722   2.467079   6.742357   6.116894
    32  C    3.746336   3.847093   4.869898   8.748995   8.096171
    33  H    4.185398   4.134279   4.869169   8.946245   8.202409
    34  H    3.909649   4.646861   5.716139   9.376904   8.665880
    35  H    4.574346   4.235276   5.327688   9.246157   8.725478
    36  H    3.407363   1.022814   2.040477   4.943087   4.818129
                   11         12         13         14         15
    11  C    0.000000
    12  C    1.395460   0.000000
    13  C    2.389023   1.396344   0.000000
    14  C    2.776188   2.436327   1.394264   0.000000
    15  H    3.400613   3.905538   3.399391   2.156712   0.000000
    16  H    2.147625   3.409165   3.859123   3.399126   2.495258
    17  H    3.861936   3.411653   2.148746   1.085884   2.495570
    18  F    1.340586   2.369872   3.621731   4.116484   4.503816
    19  F    3.620071   2.367700   1.341358   2.353035   4.506403
    20  H    5.245279   3.873676   3.754058   5.044656   7.146578
    21  H    5.760841   4.546286   4.856807   6.218695   8.193801
    22  H    6.869196   5.538159   5.515764   6.802453   8.909037
    23  H    6.134986   4.965773   5.145086   6.396820   8.327140
    24  H    6.722055   5.627220   6.083132   7.442591   9.346368
    25  H    5.762180   5.061208   5.682472   6.802147   8.297199
    26  H    4.710290   4.579392   5.792215   6.865566   7.934505
    27  H    5.883822   5.738503   6.780764   7.776335   8.800035
    28  H    3.394630   3.125394   4.051809   4.977026   6.096986
    29  H    2.614261   2.133260   3.401505   4.560190   5.867033
    30  H    3.285315   2.123771   2.735897   4.078155   5.853839
    31  H    4.750858   3.942616   4.865851   6.207702   7.825418
    32  C    6.810291   6.154701   7.002099   8.259836   9.781736
    33  H    6.854393   6.250742   7.210071   8.504544  10.003159
    34  H    7.427163   6.905704   7.789199   8.980997  10.376096
    35  H    7.454636   6.636635   7.320777   8.610774  10.281241
    36  H    3.810688   2.647644   2.873922   4.112016   5.949228
                   16         17         18         19         20
    16  H    0.000000
    17  H    4.306775   0.000000
    18  F    2.577782   5.202316   0.000000
    19  F    5.200393   2.583710   4.735322   0.000000
    20  H    7.267606   5.351190   5.859858   2.771902   0.000000
    21  H    7.879161   6.692166   6.032556   4.161745   1.779696
    22  H    8.947041   7.059742   7.318806   4.501362   1.762502
    23  H    8.141055   6.793929   6.479590   4.440037   2.480034
    24  H    8.834418   7.956509   6.798838   5.465873   3.043177
    25  H    7.550550   7.441623   5.725741   5.549566   4.471700
    26  H    6.360993   7.807494   3.987260   6.188488   5.554413
    27  H    7.357762   8.638633   5.287603   7.091645   6.392496
    28  H    5.021498   5.835251   3.292666   4.519409   4.681372
    29  H    4.669822   5.509554   2.398395   3.886656   3.895907
    30  H    5.379311   4.794091   3.697473   2.664009   2.411354
    31  H    6.840094   6.984939   4.547126   4.772926   3.316026
    32  C    8.714074   8.984438   6.463831   6.844838   5.157156
    33  H    8.784369   9.283916   6.377871   7.101713   5.337664
    34  H    9.199956   9.725203   6.987201   7.715441   6.178627
    35  H    9.427675   9.237106   7.253409   6.964229   4.966780
    36  H    5.759377   4.679082   4.374597   2.576229   2.341621
                   21         22         23         24         25
    21  H    0.000000
    22  H    1.769895   0.000000
    23  H    3.066311   2.496857   0.000000
    24  H    2.508032   2.388792   1.758479   0.000000
    25  H    4.758059   4.859759   2.535493   3.103780   0.000000
    26  H    5.187428   6.218928   4.739629   4.481364   3.068253
    27  H    6.252087   6.895510   4.920167   4.885224   2.574454
    28  H    5.115210   5.817928   4.034215   4.676952   2.589916
    29  H    3.717336   5.117759   4.573152   4.578858   4.361613
    30  H    2.513251   3.813602   3.916114   4.084632   4.690598
    31  H    2.622214   3.787987   3.072393   2.472774   3.064086
    32  C    4.664775   5.026525   3.392598   2.690858   2.147621
    33  H    4.498328   5.155261   3.987378   2.891253   3.068926
    34  H    5.758753   6.061106   4.256053   3.714362   2.532328
    35  H    4.502069   4.514237   2.983137   2.155208   2.455888
    36  H    3.390410   3.713582   2.419014   3.523742   2.978133
                   26         27         28         29         30
    26  H    0.000000
    27  H    1.770232   0.000000
    28  H    2.384456   2.811253   0.000000
    29  H    3.001758   4.547300   2.791499   0.000000
    30  H    4.355156   5.690234   3.707775   1.756043   0.000000
    31  H    2.579438   3.764415   3.153535   2.312381   2.596612
    32  C    2.873819   2.628972   3.931575   4.736216   5.216540
    33  H    2.774294   3.029961   4.339857   4.544552   5.120095
    34  H    3.161427   2.328891   4.334133   5.520429   6.176705
    35  H    3.899022   3.623217   4.634753   5.359736   5.511498
    36  H    4.091670   4.706314   2.520410   2.948154   2.418569
                   31         32         33         34         35
    31  H    0.000000
    32  C    2.758564   0.000000
    33  H    2.525074   1.095094   0.000000
    34  H    3.742971   1.095662   1.771629   0.000000
    35  H    3.199960   1.093545   1.775683   1.754021   0.000000
    36  H    2.884180   4.381556   4.806097   5.186119   4.560063
                   36
    36  H    0.000000
 Stoichiometry    C13H19F2NO
 Framework group  C1[X(C13H19F2NO)]
 Deg. of freedom   102
 Full point group                 C1      NOp   1
 Largest Abelian subgroup         C1      NOp   1
 Largest concise Abelian subgroup C1      NOp   1
                         Standard orientation:                         
 ---------------------------------------------------------------------
 Center     Atomic      Atomic             Coordinates (Angstroms)
 Number     Number       Type             X           Y           Z
 ---------------------------------------------------------------------
      1          6           0        1.893902    2.934058    0.637143
      2          6           0        2.669022    1.813640   -0.044699
      3          6           0        2.127036    0.387755    0.228024
      4          6           0        2.996555   -0.694069   -0.499531
      5          6           0        2.438877   -2.118859   -0.305476
      6          8           0        1.244774   -2.309305   -1.054577
      7          7           0        0.727040    0.256688   -0.227174
      8          6           0       -0.231805    0.298218    0.884995
      9          6           0       -4.268092   -0.239618   -0.557208
     10          6           0       -3.619625   -1.275178    0.114002
     11          6           0       -2.317837   -1.093424    0.580365
     12          6           0       -1.637149    0.110046    0.391595
     13          6           0       -2.305338    1.134434   -0.282146
     14          6           0       -3.606834    0.971254   -0.754855
     15          1           0       -5.281632   -0.376874   -0.925173
     16          1           0       -4.116665   -2.226917    0.277534
     17          1           0       -4.093786    1.789507   -1.276854
     18          9           0       -1.725691   -2.103641    1.233049
     19          9           0       -1.688680    2.307738   -0.487892
     20          1           0        0.888395    3.042265    0.221048
     21          1           0        1.813958    2.757539    1.714227
     22          1           0        2.411061    3.888068    0.490339
     23          1           0        2.695014    2.005253   -1.124798
     24          1           0        3.701882    1.885998    0.311950
     25          1           0        2.989456   -0.472349   -1.575932
     26          1           0        2.226072   -2.322703    0.749495
     27          1           0        3.153249   -2.870979   -0.655303
     28          1           0        0.710953   -1.500002   -0.897687
     29          1           0        0.008948   -0.490433    1.608390
     30          1           0       -0.174406    1.246882    1.430050
     31          1           0        2.196658    0.195488    1.307483
     32          6           0        4.453317   -0.676676   -0.017844
     33          1           0        4.512000   -0.783792    1.070418
     34          1           0        5.023810   -1.496226   -0.468790
     35          1           0        4.961641    0.248780   -0.302415
     36          1           0        0.503085    1.011758   -0.879755
 ---------------------------------------------------------------------
 Rotational constants (GHZ):      0.6995448      0.2912884      0.2255609
 Standard basis: 6-31G(d,p) (6D, 7F)
 There are   350 symmetry adapted cartesian basis functions of A   symmetry.
 There are   350 symmetry adapted basis functions of A   symmetry.
   350 basis functions,   609 primitive gaussians,   350 cartesian basis functions
    65 alpha electrons       65 beta electrons
       nuclear repulsion energy      1285.4468314878 Hartrees.
 NAtoms=   36 NActive=   36 NUniq=   36 SFac= 1.00D+00 NAtFMM=   60 NAOKFM=F Big=F
 Integral buffers will be    131072 words long.
 Raffenetti 2 integral format.
 Two-electron integral symmetry is turned on.
 ------------------------------------------------------------------------------
 Polarizable Continuum Model (PCM)
 =================================
 Model                : PCM (using non-symmetric T matrix).
 Atomic radii         : UFF (Universal Force Field).
 Polarization charges : Total charges.
 Charge compensation  : None.
 Solution method      : On-the-fly selection.
 Cavity type          : Scaled VdW (van der Waals Surface) (Alpha=1.100).
 Cavity algorithm     : GePol (No added spheres)
                        Default sphere list used, NSphG=   36.
                        Lebedev-Laikov grids with approx.  5.0 points / Ang**2.
                        Smoothing algorithm: Karplus/York (Gamma=1.0000).
                        Polarization charges: spherical gaussians, with
                                              point-specific exponents (IZeta= 3).
                        Self-potential: point-specific (ISelfS= 7).
                        Self-field    : sphere-specific E.n sum rule (ISelfD= 2).
 1st derivatives      : Analytical E(r).r(x)/FMM algorithm (CHGder, D1EAlg=3).
                        Cavity 1st derivative terms included.
 Solvent              : Chloroform, Eps=   4.711300 Eps(inf)=   2.090627
 ------------------------------------------------------------------------------
 One-electron integrals computed using PRISM.
 NBasis=   350 RedAO= T EigKep=  4.08D-04  NBF=   350
 NBsUse=   350 1.00D-06 EigRej= -1.00D+00 NBFU=   350
 ExpMin= 1.61D-01 ExpMax= 7.00D+03 ExpMxC= 1.05D+03 IAcc=1 IRadAn=         1 AccDes= 0.00D+00
 Harris functional with IExCor=  402 and IRadAn=       1 diagonalized for initial guess.
 HarFok:  IExCor=  402 AccDes= 0.00D+00 IRadAn=         1 IDoV= 1 UseB2=F ITyADJ=14
 ICtDFT=  3500011 ScaDFX=  1.000000  1.000000  1.000000  1.000000
 FoFCou: FMM=F IPFlag=           0 FMFlag=      100000 FMFlg1=           0
         NFxFlg=           0 DoJE=T BraDBF=F KetDBF=T FulRan=T
         wScrn=  0.000000 ICntrl=     500 IOpCl=  0 I1Cent=   200000004 NGrid=           0
         NMat0=    1 NMatS0=      1 NMatT0=    0 NMatD0=    1 NMtDS0=    0 NMtDT0=    0
 Petite list used in FoFCou.
 Requested convergence on RMS density matrix=1.00D-08 within 128 cycles.
 Requested convergence on MAX density matrix=1.00D-06.
 Requested convergence on             energy=1.00D-06.
 No special actions if energy rises.
 Inv3:  Mode=1 IEnd=    18287883.
 Iteration    1 A*A^-1 deviation from unit magnitude is 7.66D-15 for   1060.
 Iteration    1 A*A^-1 deviation from orthogonality  is 5.55D-15 for   2167    876.
 Iteration    1 A^-1*A deviation from unit magnitude is 6.99D-15 for   1810.
 Iteration    1 A^-1*A deviation from orthogonality  is 2.82D-14 for   2059   2057.
 Error on total polarization charges =  0.00787
 SCF Done:  E(RB3LYP) =  -836.494630620     A.U. after   12 cycles
            NFock= 12  Conv=0.58D-08     -V/T= 2.0088

 **********************************************************************

            Population analysis using the SCF density.

 **********************************************************************

 Orbital symmetries:
       Occupied  (A) (A) (A) (A) (A) (A) (A) (A) (A) (A) (A) (A)
                 (A) (A) (A) (A) (A) (A) (A) (A) (A) (A) (A) (A)
                 (A) (A) (A) (A) (A) (A) (A) (A) (A) (A) (A) (A)
                 (A) (A) (A) (A) (A) (A) (A) (A) (A) (A) (A) (A)
                 (A) (A) (A) (A) (A) (A) (A) (A) (A) (A) (A) (A)
                 (A) (A) (A) (A) (A)
       Virtual   (A) (A) (A) (A) (A) (A) (A) (A) (A) (A) (A) (A)
                 (A) (A) (A) (A) (A) (A) (A) (A) (A) (A) (A) (A)
                 (A) (A) (A) (A) (A) (A) (A) (A) (A) (A) (A) (A)
                 (A) (A) (A) (A) (A) (A) (A) (A) (A) (A) (A) (A)
                 (A) (A) (A) (A) (A) (A) (A) (A) (A) (A) (A) (A)
                 (A) (A) (A) (A) (A) (A) (A) (A) (A) (A) (A) (A)
                 (A) (A) (A) (A) (A) (A) (A) (A) (A) (A) (A) (A)
                 (A) (A) (A) (A) (A) (A) (A) (A) (A) (A) (A) (A)
                 (A) (A) (A) (A) (A) (A) (A) (A) (A) (A) (A) (A)
                 (A) (A) (A) (A) (A) (A) (A) (A) (A) (A) (A) (A)
                 (A) (A) (A) (A) (A) (A) (A) (A) (A) (A) (A) (A)
                 (A) (A) (A) (A) (A) (A) (A) (A) (A) (A) (A) (A)
                 (A) (A) (A) (A) (A) (A) (A) (A) (A) (A) (A) (A)
                 (A) (A) (A) (A) (A) (A) (A) (A) (A) (A) (A) (A)
                 (A) (A) (A) (A) (A) (A) (A) (A) (A) (A) (A) (A)
                 (A) (A) (A) (A) (A) (A) (A) (A) (A) (A) (A) (A)
                 (A) (A) (A) (A) (A) (A) (A) (A) (A) (A) (A) (A)
                 (A) (A) (A) (A) (A) (A) (A) (A) (A) (A) (A) (A)
                 (A) (A) (A) (A) (A) (A) (A) (A) (A) (A) (A) (A)
                 (A) (A) (A) (A) (A) (A) (A) (A) (A) (A) (A) (A)
                 (A) (A) (A) (A) (A) (A) (A) (A) (A) (A) (A) (A)
                 (A) (A) (A) (A) (A) (A) (A) (A) (A) (A) (A) (A)
                 (A) (A) (A) (A) (A) (A) (A) (A) (A) (A) (A) (A)
                 (A) (A) (A) (A) (A) (A) (A) (A) (A)
 The electronic state is 1-A.
 Alpha  occ. eigenvalues --  -24.72634 -24.71925 -19.10477 -14.33451 -10.28474
 Alpha  occ. eigenvalues --  -10.28371 -10.22302 -10.21723 -10.21193 -10.21091
 Alpha  occ. eigenvalues --  -10.20865 -10.20096 -10.19999 -10.18268 -10.18149
 Alpha  occ. eigenvalues --  -10.17546 -10.17145  -1.23922  -1.23285  -0.98329
 Alpha  occ. eigenvalues --   -0.91989  -0.87178  -0.80282  -0.77233  -0.75722
 Alpha  occ. eigenvalues --   -0.75554  -0.69443  -0.65766  -0.65354  -0.63240
 Alpha  occ. eigenvalues --   -0.61399  -0.59669  -0.57014  -0.56111  -0.53395
 Alpha  occ. eigenvalues --   -0.49982  -0.49693  -0.49520  -0.48220  -0.47017
 Alpha  occ. eigenvalues --   -0.46769  -0.46528  -0.45117  -0.44420  -0.42928
 Alpha  occ. eigenvalues --   -0.42704  -0.41593  -0.40838  -0.40171  -0.39133
 Alpha  occ. eigenvalues --   -0.38588  -0.37601  -0.37363  -0.36990  -0.35674
 Alpha  occ. eigenvalues --   -0.35562  -0.34517  -0.33772  -0.33330  -0.31686
 Alpha  occ. eigenvalues --   -0.30676  -0.25838  -0.24926  -0.23970  -0.22918
 Alpha virt. eigenvalues --   -0.01658  -0.00458   0.06950   0.08877   0.09526
 Alpha virt. eigenvalues --    0.10319   0.11328   0.12897   0.13797   0.14325
 Alpha virt. eigenvalues --    0.14837   0.15019   0.15333   0.15874   0.16958
 Alpha virt. eigenvalues --    0.17431   0.17846   0.18317   0.19066   0.19634
 Alpha virt. eigenvalues --    0.19726   0.20017   0.20729   0.21400   0.22982
 Alpha virt. eigenvalues --    0.23952   0.25004   0.25660   0.26581   0.27284
 Alpha virt. eigenvalues --    0.28430   0.29211   0.29648   0.30226   0.32049
 Alpha virt. eigenvalues --    0.37153   0.38301   0.46377   0.48932   0.49547
 Alpha virt. eigenvalues --    0.49834   0.50900   0.51388   0.52115   0.52964
 Alpha virt. eigenvalues --    0.54350   0.55351   0.55570   0.57250   0.57899
 Alpha virt. eigenvalues --    0.58001   0.58733   0.59424   0.59900   0.60910
 Alpha virt. eigenvalues --    0.62010   0.62504   0.63571   0.65054   0.65903
 Alpha virt. eigenvalues --    0.67408   0.67598   0.68488   0.69129   0.71763
 Alpha virt. eigenvalues --    0.73242   0.74833   0.76939   0.77605   0.79119
 Alpha virt. eigenvalues --    0.79356   0.79989   0.80090   0.81539   0.82797
 Alpha virt. eigenvalues --    0.83806   0.84331   0.85406   0.85980   0.87133
 Alpha virt. eigenvalues --    0.87613   0.88559   0.89002   0.89611   0.89667
 Alpha virt. eigenvalues --    0.90618   0.92491   0.92783   0.92919   0.93618
 Alpha virt. eigenvalues --    0.94174   0.94853   0.96470   0.97019   0.97355
 Alpha virt. eigenvalues --    1.01443   1.02089   1.02696   1.04213   1.04752
 Alpha virt. eigenvalues --    1.09600   1.11205   1.11435   1.12730   1.17476
 Alpha virt. eigenvalues --    1.20530   1.21154   1.22083   1.23151   1.23932
 Alpha virt. eigenvalues --    1.25153   1.27083   1.28355   1.31295   1.32223
 Alpha virt. eigenvalues --    1.35109   1.35744   1.38258   1.39054   1.39873
 Alpha virt. eigenvalues --    1.40386   1.42424   1.43207   1.43599   1.44263
 Alpha virt. eigenvalues --    1.45612   1.47180   1.51427   1.52418   1.53234
 Alpha virt. eigenvalues --    1.56650   1.58368   1.59889   1.63044   1.66344
 Alpha virt. eigenvalues --    1.67212   1.69868   1.71880   1.73065   1.75086
 Alpha virt. eigenvalues --    1.76166   1.76998   1.77941   1.79549   1.80919
 Alpha virt. eigenvalues --    1.81448   1.81895   1.82469   1.84371   1.85325
 Alpha virt. eigenvalues --    1.86519   1.86703   1.88166   1.89158   1.89817
 Alpha virt. eigenvalues --    1.90692   1.91360   1.92497   1.93860   1.94139
 Alpha virt. eigenvalues --    1.95469   1.97510   1.98224   1.98751   1.99816
 Alpha virt. eigenvalues --    2.00979   2.04366   2.04635   2.05121   2.05644
 Alpha virt. eigenvalues --    2.06011   2.07403   2.08519   2.09126   2.10638
 Alpha virt. eigenvalues --    2.11779   2.13983   2.17368   2.17775   2.17853
 Alpha virt. eigenvalues --    2.19659   2.20674   2.21594   2.22745   2.25228
 Alpha virt. eigenvalues --    2.26667   2.27604   2.28113   2.29566   2.30564
 Alpha virt. eigenvalues --    2.30824   2.31774   2.32578   2.34794   2.35957
 Alpha virt. eigenvalues --    2.37482   2.37839   2.38963   2.39764   2.40459
 Alpha virt. eigenvalues --    2.40753   2.44649   2.45660   2.47825   2.48264
 Alpha virt. eigenvalues --    2.51374   2.52221   2.52751   2.53541   2.55351
 Alpha virt. eigenvalues --    2.56306   2.57697   2.59631   2.60946   2.61947
 Alpha virt. eigenvalues --    2.63125   2.65335   2.66153   2.67124   2.68813
 Alpha virt. eigenvalues --    2.70048   2.72632   2.73672   2.73977   2.75564
 Alpha virt. eigenvalues --    2.76139   2.77013   2.78941   2.81377   2.83315
 Alpha virt. eigenvalues --    2.84386   2.85032   2.87230   2.88435   2.90400
 Alpha virt. eigenvalues --    2.91070   2.91733   2.92957   2.93816   2.95379
 Alpha virt. eigenvalues --    2.98135   3.01403   3.04556   3.05430   3.06378
 Alpha virt. eigenvalues --    3.10220   3.14470   3.19832   3.20435   3.21507
 Alpha virt. eigenvalues --    3.25189   3.27858   3.30895   3.31289   3.33136
 Alpha virt. eigenvalues --    3.35188   3.37954   3.39711   3.41883   3.43714
 Alpha virt. eigenvalues --    3.46819   3.48100   3.49388   3.51756   3.54095
 Alpha virt. eigenvalues --    3.57036   3.63253   3.80221   3.98633   4.10105
 Alpha virt. eigenvalues --    4.10707   4.14110   4.18571   4.33669   4.38424
 Alpha virt. eigenvalues --    4.42489   4.45585   4.53334   4.55697   4.59430
 Alpha virt. eigenvalues --    4.65591   4.77771   4.78180   5.52749   5.61055
          Condensed to atoms (all electrons):
               1          2          3          4          5          6
     1  C    4.962097   0.354064  -0.040897   0.004648  -0.000115   0.000001
     2  C    0.354064   4.949220   0.379209  -0.046885   0.003695  -0.000061
     3  C   -0.040897   0.379209   4.850035   0.375217  -0.031728  -0.004868
     4  C    0.004648  -0.046885   0.375217   5.014933   0.364394  -0.039590
     5  C   -0.000115   0.003695  -0.031728   0.364394   4.723216   0.263268
     6  O    0.000001  -0.000061  -0.004868  -0.039590   0.263268   8.216806
     7  N   -0.002106  -0.049133   0.248563  -0.059166  -0.000809  -0.033316
     8  C   -0.001099  -0.001308  -0.033030   0.003958   0.000072   0.001559
     9  C    0.000000   0.000000   0.000000   0.000000   0.000000   0.000000
    10  C    0.000000   0.000000   0.000004   0.000000   0.000001   0.000014
    11  C   -0.000003  -0.000002   0.000007  -0.000014   0.000028   0.000347
    12  C    0.000056  -0.000166   0.004773  -0.000264  -0.000146  -0.000375
    13  C   -0.000037  -0.000045   0.000091   0.000010  -0.000002   0.000010
    14  C   -0.000004   0.000000   0.000005   0.000000   0.000000   0.000000
    15  H    0.000000   0.000000   0.000000   0.000000   0.000000   0.000000
    16  H    0.000000   0.000000   0.000000   0.000000   0.000000   0.000000
    17  H    0.000000   0.000000   0.000000   0.000000   0.000000   0.000000
    18  F    0.000000   0.000000  -0.000004   0.000001  -0.000021  -0.000100
    19  F   -0.001436  -0.000013   0.000026   0.000000   0.000000   0.000000
    20  H    0.377170  -0.034165  -0.005748   0.000051   0.000000   0.000001
    21  H    0.385795  -0.035605  -0.004790   0.000046   0.000001   0.000000
    22  H    0.379266  -0.026841   0.004127  -0.000122   0.000001   0.000000
    23  H   -0.043762   0.382614  -0.034746  -0.006825   0.000056  -0.000024
    24  H   -0.037663   0.376513  -0.031314  -0.003061   0.000097   0.000004
    25  H   -0.000019  -0.006451  -0.044286   0.369287  -0.044773   0.004191
    26  H   -0.000003   0.000187  -0.011568  -0.047860   0.357184  -0.044046
    27  H    0.000002  -0.000163   0.004539  -0.030939   0.381172  -0.039366
    28  H    0.000003   0.000367  -0.003885  -0.008665  -0.041382   0.282283
    29  H    0.000078  -0.000156  -0.004134   0.000421   0.000232   0.000701
    30  H    0.001631   0.001414  -0.002761  -0.000377   0.000017  -0.000066
    31  H   -0.006185  -0.037815   0.383461  -0.047980  -0.005941  -0.000424
    32  C    0.000196  -0.003680  -0.042844   0.322688  -0.042724   0.003489
    33  H   -0.000041  -0.000791  -0.007568  -0.034884  -0.004711  -0.000009
    34  H   -0.000001   0.000150   0.004272  -0.030467  -0.006336   0.000070
    35  H   -0.000126   0.000840  -0.004192  -0.022895   0.003999  -0.000088
    36  H    0.000363  -0.007528  -0.035958   0.001448  -0.000042   0.000626
               7          8          9         10         11         12
     1  C   -0.002106  -0.001099   0.000000   0.000000  -0.000003   0.000056
     2  C   -0.049133  -0.001308   0.000000   0.000000  -0.000002  -0.000166
     3  C    0.248563  -0.033030   0.000000   0.000004   0.000007   0.004773
     4  C   -0.059166   0.003958   0.000000   0.000000  -0.000014  -0.000264
     5  C   -0.000809   0.000072   0.000000   0.000001   0.000028  -0.000146
     6  O   -0.033316   0.001559   0.000000   0.000014   0.000347  -0.000375
     7  N    6.973778   0.260660   0.000029  -0.000152   0.002177  -0.043945
     8  C    0.260660   4.955925  -0.000628   0.008656  -0.046356   0.293781
     9  C    0.000029  -0.000628   4.850715   0.484447  -0.007218  -0.027964
    10  C   -0.000152   0.008656   0.484447   5.053963   0.468233  -0.069116
    11  C    0.002177  -0.046356  -0.007218   0.468233   4.586925   0.418111
    12  C   -0.043945   0.293781  -0.027964  -0.069116   0.418111   5.315250
    13  C   -0.006064  -0.051259  -0.009576  -0.049640   0.019415   0.390072
    14  C   -0.000149   0.008677   0.488544  -0.030571  -0.050037  -0.074917
    15  H    0.000000   0.000004   0.375884  -0.034349   0.003680   0.000187
    16  H    0.000001  -0.000144  -0.037291   0.359727  -0.032296   0.006407
    17  H    0.000001  -0.000156  -0.036772   0.004647   0.000495   0.006412
    18  F   -0.000200  -0.004247   0.003070  -0.046496   0.306540  -0.051813
    19  F   -0.002587   0.004164   0.002913  -0.000061   0.002345  -0.057980
    20  H    0.004636  -0.000349  -0.000001   0.000000  -0.000014  -0.000772
    21  H   -0.000853  -0.000703   0.000000   0.000000   0.000000   0.000042
    22  H    0.000071   0.000104   0.000000   0.000000   0.000000   0.000002
    23  H   -0.006579  -0.000105   0.000000   0.000000   0.000000   0.000037
    24  H    0.004921  -0.000107   0.000000   0.000000   0.000000   0.000002
    25  H   -0.000793  -0.000048   0.000000   0.000000   0.000000   0.000027
    26  H    0.000468  -0.000104   0.000000  -0.000001  -0.000064   0.000101
    27  H   -0.000310   0.000013   0.000000   0.000000   0.000001  -0.000001
    28  H    0.062739  -0.004421  -0.000009  -0.000031   0.001802  -0.000307
    29  H   -0.041474   0.382144  -0.000037   0.000590  -0.006934  -0.031653
    30  H   -0.047606   0.357663   0.000009  -0.000252   0.004411  -0.029202
    31  H   -0.046206  -0.006810   0.000000   0.000000   0.000023   0.000784
    32  C    0.004446  -0.000121   0.000000   0.000000   0.000000   0.000004
    33  H    0.000047   0.000001   0.000000   0.000000   0.000000   0.000000
    34  H   -0.000106   0.000002   0.000000   0.000000   0.000000   0.000000
    35  H   -0.000063  -0.000003   0.000000   0.000000   0.000000   0.000000
    36  H    0.335113  -0.033848  -0.000016   0.000018  -0.000179  -0.008834
              13         14         15         16         17         18
     1  C   -0.000037  -0.000004   0.000000   0.000000   0.000000   0.000000
     2  C   -0.000045   0.000000   0.000000   0.000000   0.000000   0.000000
     3  C    0.000091   0.000005   0.000000   0.000000   0.000000  -0.000004
     4  C    0.000010   0.000000   0.000000   0.000000   0.000000   0.000001
     5  C   -0.000002   0.000000   0.000000   0.000000   0.000000  -0.000021
     6  O    0.000010   0.000000   0.000000   0.000000   0.000000  -0.000100
     7  N   -0.006064  -0.000149   0.000000   0.000001   0.000001  -0.000200
     8  C   -0.051259   0.008677   0.000004  -0.000144  -0.000156  -0.004247
     9  C   -0.009576   0.488544   0.375884  -0.037291  -0.036772   0.003070
    10  C   -0.049640  -0.030571  -0.034349   0.359727   0.004647  -0.046496
    11  C    0.019415  -0.050037   0.003680  -0.032296   0.000495   0.306540
    12  C    0.390072  -0.074917   0.000187   0.006407   0.006412  -0.051813
    13  C    4.620466   0.480335   0.003689   0.000479  -0.032716   0.002574
    14  C    0.480335   5.045537  -0.034891   0.004705   0.359129  -0.000054
    15  H    0.003689  -0.034891   0.577954  -0.005886  -0.005930  -0.000022
    16  H    0.000479   0.004705  -0.005886   0.589869  -0.000149  -0.000572
    17  H   -0.032716   0.359129  -0.005930  -0.000149   0.591271   0.000001
    18  F    0.002574  -0.000054  -0.000022  -0.000572   0.000001   9.067314
    19  F    0.304081  -0.046736  -0.000022   0.000001  -0.000393   0.000000
    20  H    0.000640   0.000044   0.000000   0.000000   0.000000   0.000000
    21  H   -0.000005   0.000000   0.000000   0.000000   0.000000   0.000000
    22  H   -0.000002   0.000000   0.000000   0.000000   0.000000   0.000000
    23  H   -0.000013   0.000000   0.000000   0.000000   0.000000   0.000000
    24  H    0.000001   0.000000   0.000000   0.000000   0.000000   0.000000
    25  H   -0.000001   0.000000   0.000000   0.000000   0.000000   0.000000
    26  H    0.000001   0.000000   0.000000   0.000000   0.000000   0.000045
    27  H    0.000000   0.000000   0.000000   0.000000   0.000000   0.000000
    28  H   -0.000188  -0.000010   0.000000   0.000001   0.000000   0.000839
    29  H    0.005128  -0.000158   0.000000  -0.000007   0.000002   0.010064
    30  H   -0.010743  -0.000147   0.000000   0.000003   0.000000   0.000229
    31  H   -0.000042   0.000000   0.000000   0.000000   0.000000  -0.000009
    32  C    0.000000   0.000000   0.000000   0.000000   0.000000   0.000000
    33  H    0.000000   0.000000   0.000000   0.000000   0.000000   0.000000
    34  H    0.000000   0.000000   0.000000   0.000000   0.000000   0.000000
    35  H    0.000000   0.000000   0.000000   0.000000   0.000000   0.000000
    36  H    0.004076  -0.000091   0.000000   0.000000   0.000004  -0.000012
              19         20         21         22         23         24
     1  C   -0.001436   0.377170   0.385795   0.379266  -0.043762  -0.037663
     2  C   -0.000013  -0.034165  -0.035605  -0.026841   0.382614   0.376513
     3  C    0.000026  -0.005748  -0.004790   0.004127  -0.034746  -0.031314
     4  C    0.000000   0.000051   0.000046  -0.000122  -0.006825  -0.003061
     5  C    0.000000   0.000000   0.000001   0.000001   0.000056   0.000097
     6  O    0.000000   0.000001   0.000000   0.000000  -0.000024   0.000004
     7  N   -0.002587   0.004636  -0.000853   0.000071  -0.006579   0.004921
     8  C    0.004164  -0.000349  -0.000703   0.000104  -0.000105  -0.000107
     9  C    0.002913  -0.000001   0.000000   0.000000   0.000000   0.000000
    10  C   -0.000061   0.000000   0.000000   0.000000   0.000000   0.000000
    11  C    0.002345  -0.000014   0.000000   0.000000   0.000000   0.000000
    12  C   -0.057980  -0.000772   0.000042   0.000002   0.000037   0.000002
    13  C    0.304081   0.000640  -0.000005  -0.000002  -0.000013   0.000001
    14  C   -0.046736   0.000044   0.000000   0.000000   0.000000   0.000000
    15  H   -0.000022   0.000000   0.000000   0.000000   0.000000   0.000000
    16  H    0.000001   0.000000   0.000000   0.000000   0.000000   0.000000
    17  H   -0.000393   0.000000   0.000000   0.000000   0.000000   0.000000
    18  F    0.000000   0.000000   0.000000   0.000000   0.000000   0.000000
    19  F    9.067061   0.006664  -0.000006   0.000003  -0.000006   0.000000
    20  H    0.006664   0.609475  -0.033475  -0.030117  -0.006509   0.005775
    21  H   -0.000006  -0.033475   0.603009  -0.030268   0.005675  -0.004170
    22  H    0.000003  -0.030117  -0.030268   0.604369  -0.002352  -0.005507
    23  H   -0.000006  -0.006509   0.005675  -0.002352   0.631540  -0.035746
    24  H    0.000000   0.005775  -0.004170  -0.005507  -0.035746   0.624028
    25  H    0.000000  -0.000009   0.000011  -0.000002   0.005765  -0.000219
    26  H    0.000000   0.000000  -0.000001   0.000000   0.000003  -0.000009
    27  H    0.000000   0.000000   0.000000   0.000000   0.000000   0.000004
    28  H   -0.000002  -0.000010  -0.000001   0.000000   0.000027  -0.000028
    29  H    0.000147   0.000142   0.000040  -0.000005  -0.000013   0.000035
    30  H    0.002503  -0.001265   0.001984  -0.000043   0.000152  -0.000190
    31  H   -0.000002  -0.000502   0.004950  -0.000024   0.005961  -0.004773
    32  C    0.000000  -0.000004  -0.000022   0.000002  -0.000732   0.000089
    33  H    0.000000   0.000000   0.000003   0.000000   0.000111   0.000820
    34  H    0.000000   0.000000   0.000000   0.000000  -0.000049  -0.000006
    35  H    0.000000  -0.000001   0.000016   0.000009   0.000849   0.002480
    36  H    0.007201   0.003120   0.000199  -0.000186   0.003966   0.000140
              25         26         27         28         29         30
     1  C   -0.000019  -0.000003   0.000002   0.000003   0.000078   0.001631
     2  C   -0.006451   0.000187  -0.000163   0.000367  -0.000156   0.001414
     3  C   -0.044286  -0.011568   0.004539  -0.003885  -0.004134  -0.002761
     4  C    0.369287  -0.047860  -0.030939  -0.008665   0.000421  -0.000377
     5  C   -0.044773   0.357184   0.381172  -0.041382   0.000232   0.000017
     6  O    0.004191  -0.044046  -0.039366   0.282283   0.000701  -0.000066
     7  N   -0.000793   0.000468  -0.000310   0.062739  -0.041474  -0.047606
     8  C   -0.000048  -0.000104   0.000013  -0.004421   0.382144   0.357663
     9  C    0.000000   0.000000   0.000000  -0.000009  -0.000037   0.000009
    10  C    0.000000  -0.000001   0.000000  -0.000031   0.000590  -0.000252
    11  C    0.000000  -0.000064   0.000001   0.001802  -0.006934   0.004411
    12  C    0.000027   0.000101  -0.000001  -0.000307  -0.031653  -0.029202
    13  C   -0.000001   0.000001   0.000000  -0.000188   0.005128  -0.010743
    14  C    0.000000   0.000000   0.000000  -0.000010  -0.000158  -0.000147
    15  H    0.000000   0.000000   0.000000   0.000000   0.000000   0.000000
    16  H    0.000000   0.000000   0.000000   0.000001  -0.000007   0.000003
    17  H    0.000000   0.000000   0.000000   0.000000   0.000002   0.000000
    18  F    0.000000   0.000045   0.000000   0.000839   0.010064   0.000229
    19  F    0.000000   0.000000   0.000000  -0.000002   0.000147   0.002503
    20  H   -0.000009   0.000000   0.000000  -0.000010   0.000142  -0.001265
    21  H    0.000011  -0.000001   0.000000  -0.000001   0.000040   0.001984
    22  H   -0.000002   0.000000   0.000000   0.000000  -0.000005  -0.000043
    23  H    0.005765   0.000003   0.000000   0.000027  -0.000013   0.000152
    24  H   -0.000219  -0.000009   0.000004  -0.000028   0.000035  -0.000190
    25  H    0.656788   0.007447  -0.005437   0.000339  -0.000008   0.000002
    26  H    0.007447   0.713931  -0.054142  -0.001239   0.000442  -0.000020
    27  H   -0.005437  -0.054142   0.651786   0.005530   0.000008  -0.000001
    28  H    0.000339  -0.001239   0.005530   0.381683  -0.001665   0.000830
    29  H   -0.000008   0.000442   0.000008  -0.001665   0.592771  -0.044197
    30  H    0.000002  -0.000020  -0.000001   0.000830  -0.044197   0.655532
    31  H    0.006197   0.004615  -0.000113   0.000704   0.001790   0.002778
    32  C   -0.035265   0.002221  -0.007043   0.000241  -0.000039   0.000015
    33  H    0.005856   0.003360  -0.000436   0.000013  -0.000008   0.000000
    34  H   -0.002895  -0.000227   0.006376  -0.000021   0.000001   0.000000
    35  H   -0.005762  -0.000284   0.000023   0.000007   0.000000   0.000000
    36  H    0.000794  -0.000033   0.000015  -0.001388   0.005701  -0.005731
              31         32         33         34         35         36
     1  C   -0.006185   0.000196  -0.000041  -0.000001  -0.000126   0.000363
     2  C   -0.037815  -0.003680  -0.000791   0.000150   0.000840  -0.007528
     3  C    0.383461  -0.042844  -0.007568   0.004272  -0.004192  -0.035958
     4  C   -0.047980   0.322688  -0.034884  -0.030467  -0.022895   0.001448
     5  C   -0.005941  -0.042724  -0.004711  -0.006336   0.003999  -0.000042
     6  O   -0.000424   0.003489  -0.000009   0.000070  -0.000088   0.000626
     7  N   -0.046206   0.004446   0.000047  -0.000106  -0.000063   0.335113
     8  C   -0.006810  -0.000121   0.000001   0.000002  -0.000003  -0.033848
     9  C    0.000000   0.000000   0.000000   0.000000   0.000000  -0.000016
    10  C    0.000000   0.000000   0.000000   0.000000   0.000000   0.000018
    11  C    0.000023   0.000000   0.000000   0.000000   0.000000  -0.000179
    12  C    0.000784   0.000004   0.000000   0.000000   0.000000  -0.008834
    13  C   -0.000042   0.000000   0.000000   0.000000   0.000000   0.004076
    14  C    0.000000   0.000000   0.000000   0.000000   0.000000  -0.000091
    15  H    0.000000   0.000000   0.000000   0.000000   0.000000   0.000000
    16  H    0.000000   0.000000   0.000000   0.000000   0.000000   0.000000
    17  H    0.000000   0.000000   0.000000   0.000000   0.000000   0.000004
    18  F   -0.000009   0.000000   0.000000   0.000000   0.000000  -0.000012
    19  F   -0.000002   0.000000   0.000000   0.000000   0.000000   0.007201
    20  H   -0.000502  -0.000004   0.000000   0.000000  -0.000001   0.003120
    21  H    0.004950  -0.000022   0.000003   0.000000   0.000016   0.000199
    22  H   -0.000024   0.000002   0.000000   0.000000   0.000009  -0.000186
    23  H    0.005961  -0.000732   0.000111  -0.000049   0.000849   0.003966
    24  H   -0.004773   0.000089   0.000820  -0.000006   0.002480   0.000140
    25  H    0.006197  -0.035265   0.005856  -0.002895  -0.005762   0.000794
    26  H    0.004615   0.002221   0.003360  -0.000227  -0.000284  -0.000033
    27  H   -0.000113  -0.007043  -0.000436   0.006376   0.000023   0.000015
    28  H    0.000704   0.000241   0.000013  -0.000021   0.000007  -0.001388
    29  H    0.001790  -0.000039  -0.000008   0.000001   0.000000   0.005701
    30  H    0.002778   0.000015   0.000000   0.000000   0.000000  -0.005731
    31  H    0.641739  -0.004687   0.006073  -0.000125  -0.000038   0.005356
    32  C   -0.004687   5.000143   0.382710   0.379117   0.374305  -0.000152
    33  H    0.006073   0.382710   0.610064  -0.031980  -0.032503   0.000001
    34  H   -0.000125   0.379117  -0.031980   0.609003  -0.030498   0.000005
    35  H   -0.000038   0.374305  -0.032503  -0.030498   0.607071   0.000002
    36  H    0.005356  -0.000152   0.000001   0.000005   0.000002   0.464873
 Mulliken charges:
               1
     1  C   -0.331872
     2  C   -0.197465
     3  C    0.089992
     4  C   -0.077108
     5  C    0.081297
     6  O   -0.611038
     7  N   -0.556036
     8  C   -0.092537
     9  C   -0.086099
    10  C   -0.149629
    11  C    0.328579
    12  C   -0.038591
    13  C    0.329268
    14  C   -0.149212
    15  H    0.119704
    16  H    0.115152
    17  H    0.114155
    18  F   -0.287124
    19  F   -0.287864
    20  H    0.105221
    21  H    0.108128
    22  H    0.107515
    23  H    0.100704
    24  H    0.107884
    25  H    0.089266
    26  H    0.069594
    27  H    0.088484
    28  H    0.325845
    29  H    0.130049
    30  H    0.113430
    31  H    0.097245
    32  C   -0.332353
    33  H    0.103871
    34  H    0.103717
    35  H    0.106853
    36  H    0.260977
 Sum of Mulliken charges =   0.00000
 Mulliken charges with hydrogens summed into heavy atoms:
               1
     1  C   -0.011007
     2  C    0.011123
     3  C    0.187237
     4  C    0.012158
     5  C    0.239375
     6  O   -0.285193
     7  N   -0.295059
     8  C    0.150942
     9  C    0.033604
    10  C   -0.034477
    11  C    0.328579
    12  C   -0.038591
    13  C    0.329268
    14  C   -0.035057
    18  F   -0.287124
    19  F   -0.287864
    32  C   -0.017913
 Electronic spatial extent (au):  <R**2>=           4888.1982
 Charge=              0.0000 electrons
 Dipole moment (field-independent basis, Debye):
    X=             -0.9944    Y=              3.5182    Z=              1.2040  Tot=              3.8492
 Quadrupole moment (field-independent basis, Debye-Ang):
   XX=            -84.3622   YY=           -109.0565   ZZ=           -102.2237
   XY=              4.4759   XZ=              5.2102   YZ=             -4.9171
 Traceless Quadrupole moment (field-independent basis, Debye-Ang):
   XX=             14.1852   YY=            -10.5091   ZZ=             -3.6762
   XY=              4.4759   XZ=              5.2102   YZ=             -4.9171
 Octapole moment (field-independent basis, Debye-Ang**2):
  XXX=            -66.9821  YYY=             14.7459  ZZZ=              5.5892  XYY=             -9.6192
  XXY=             -8.8718  XXZ=            -17.2870  XZZ=             -3.6199  YZZ=              8.3527
  YYZ=              7.9693  XYZ=             -2.0179
 Hexadecapole moment (field-independent basis, Debye-Ang**3):
 XXXX=          -4109.2325 YYYY=          -1622.1007 ZZZZ=           -369.1081 XXXY=             21.1639
 XXXZ=             69.4094 YYYX=             23.3552 YYYZ=            -51.1022 ZZZX=             -7.1896
 ZZZY=            -32.8256 XXYY=           -944.9142 XXZZ=           -808.6995 YYZZ=           -338.4639
 XXYZ=            -23.0209 YYXZ=             10.4617 ZZXY=             -5.1600
 N-N= 1.285446831488D+03 E-N=-4.524671834861D+03  KE= 8.291913250552D+02
 D1PCM: PCM CHGder 1st derivatives, ID1Alg=3 FixD1E=F DoIter=F DoCFld=F I1PDM=0.
 Calling FoFJK, ICntrl=      2127 FMM=F ISym2X=0 I1Cent= 0 IOpClX= 0 NMat=1 NMatS=1 NMatT=0.
 ***** Axes restored to original set *****
 -------------------------------------------------------------------
 Center     Atomic                   Forces (Hartrees/Bohr)
 Number     Number              X              Y              Z
 -------------------------------------------------------------------
      1        6           0.000491353   -0.000628761   -0.004389685
      2        6          -0.000730745   -0.005313513    0.005030767
      3        6          -0.020801542    0.014609619    0.001498074
      4        6          -0.002513417   -0.009983953    0.008181629
      5        6           0.007704418    0.008673774   -0.016961453
      6        8           0.004759958    0.007598732    0.002032639
      7        7           0.006266912   -0.004441797    0.000791247
      8        6           0.001839451   -0.005217449   -0.002397779
      9        6          -0.004054638   -0.002633704    0.003758695
     10        6           0.005822489    0.001415466    0.005621022
     11        6           0.007042639    0.008155422   -0.019100925
     12        6          -0.005948774   -0.005501893    0.004699872
     13        6           0.024179245    0.010092335    0.005428562
     14        6          -0.003646592    0.000375354   -0.008278793
     15        1          -0.001524886   -0.000984056    0.000802051
     16        1          -0.001167868   -0.000854194    0.000491069
     17        1          -0.001175050   -0.000832642    0.000606396
     18        9          -0.002695109   -0.002089831    0.005727733
     19        9          -0.009833678   -0.003764335   -0.001752490
     20        1           0.001868197   -0.001905643   -0.000882244
     21        1           0.000543272   -0.000988878   -0.001176324
     22        1           0.000865014   -0.000431474   -0.000624519
     23        1           0.000312589    0.002326943    0.002124762
     24        1          -0.000064381    0.003023379    0.002268510
     25        1           0.002974556    0.000755109    0.000269671
     26        1          -0.003138775   -0.007778840    0.003944910
     27        1          -0.001967779   -0.000837812    0.000427570
     28        1          -0.004129051   -0.001460918    0.002090761
     29        1          -0.002182486    0.003918891   -0.001682290
     30        1           0.000190338   -0.002961556   -0.001027526
     31        1           0.003532898    0.001230247   -0.001723394
     32        6          -0.004952956    0.000529914   -0.002234355
     33        1          -0.000604330   -0.001031568    0.000785561
     34        1           0.001245929   -0.000283810    0.000128121
     35        1          -0.000023627   -0.002053328    0.000942675
     36        1           0.001516423   -0.000725231    0.004579479
 -------------------------------------------------------------------
 Cartesian Forces:  Max     0.024179245 RMS     0.005618217

 GradGradGradGradGradGradGradGradGradGradGradGradGradGradGradGradGradGrad
 Berny optimization.
 FormGI is forming the generalized inverse of G from B-inverse, IUseBI=4.
 Internal  Forces:  Max     0.011554651 RMS     0.002928252
 Search for a local minimum.
 Step number   1 out of a maximum of   50
 All quantities printed in internal units (Hartrees-Bohrs-Radians)
 Mixed Optimization -- RFO/linear search
 Second derivative matrix not updated -- first step.
 ITU=  0
     Eigenvalues ---    0.00230   0.00230   0.00230   0.00310   0.00455
     Eigenvalues ---    0.00660   0.00749   0.00779   0.01395   0.01566
     Eigenvalues ---    0.02145   0.02151   0.02154   0.02159   0.02163
     Eigenvalues ---    0.02168   0.02168   0.02170   0.02735   0.03319
     Eigenvalues ---    0.03487   0.04055   0.04506   0.04718   0.04769
     Eigenvalues ---    0.04856   0.04965   0.05131   0.05374   0.05481
     Eigenvalues ---    0.05502   0.05523   0.05659   0.05719   0.06539
     Eigenvalues ---    0.08685   0.09813   0.10988   0.11679   0.12454
     Eigenvalues ---    0.13169   0.13883   0.16000   0.16000   0.16000
     Eigenvalues ---    0.16000   0.16000   0.16000   0.16000   0.16000
     Eigenvalues ---    0.16000   0.16000   0.16322   0.16507   0.17054
     Eigenvalues ---    0.17775   0.21930   0.21961   0.22008   0.22085
     Eigenvalues ---    0.23413   0.23491   0.24908   0.24999   0.24999
     Eigenvalues ---    0.25000   0.26249   0.27685   0.28316   0.29018
     Eigenvalues ---    0.30032   0.32243   0.33790   0.33831   0.33986
     Eigenvalues ---    0.34025   0.34166   0.34173   0.34201   0.34230
     Eigenvalues ---    0.34231   0.34235   0.34274   0.34312   0.34404
     Eigenvalues ---    0.34406   0.34804   0.35165   0.35268   0.35293
     Eigenvalues ---    0.35857   0.42097   0.42348   0.42494   0.43892
     Eigenvalues ---    0.46336   0.46493   0.46547   0.46632   0.50976
     Eigenvalues ---    0.56902   0.57074
 RFO step:  Lambda=-9.21597584D-03 EMin= 2.30000000D-03
 Linear search not attempted -- first point.
 Iteration  1 RMS(Cart)=  0.05216958 RMS(Int)=  0.00098460
 Iteration  2 RMS(Cart)=  0.00172302 RMS(Int)=  0.00028603
 Iteration  3 RMS(Cart)=  0.00000221 RMS(Int)=  0.00028603
 Iteration  4 RMS(Cart)=  0.00000000 RMS(Int)=  0.00028603
 Variable       Old X    -DE/DX   Delta X   Delta X   Delta X     New X
                                 (Linear)    (Quad)   (Total)
    R1        2.87900   0.00865   0.00000   0.02794   0.02794   2.90694
    R2        2.06654   0.00095   0.00000   0.00270   0.00270   2.06924
    R3        2.06807   0.00060   0.00000   0.00171   0.00171   2.06978
    R4        2.06935  -0.00025   0.00000  -0.00072  -0.00072   2.06863
    R5        2.92833  -0.00295   0.00000  -0.01031  -0.01031   2.91802
    R6        2.07354   0.00092   0.00000   0.00263   0.00263   2.07617
    R7        2.06943  -0.00014   0.00000  -0.00039  -0.00039   2.06904
    R8        2.96135  -0.00373   0.00000  -0.01374  -0.01374   2.94762
    R9        2.79294   0.00935   0.00000   0.02618   0.02618   2.81912
   R10        2.07616  -0.00072   0.00000  -0.00208  -0.00208   2.07408
   R11        2.91452  -0.00104   0.00000  -0.00356  -0.00356   2.91096
   R12        2.07685  -0.00060   0.00000  -0.00173  -0.00173   2.07512
   R13        2.89966   0.00411   0.00000   0.01373   0.01373   2.91339
   R14        2.68800   0.00243   0.00000   0.00564   0.00564   2.69364
   R15        2.06992   0.00572   0.00000   0.01629   0.01629   2.08621
   R16        2.06870   0.00067   0.00000   0.00190   0.00190   2.07061
   R17        1.85593  -0.00201   0.00000  -0.00387  -0.00387   1.85205
   R18        2.77605   0.00675   0.00000   0.01835   0.01835   2.79440
   R19        1.93284  -0.00480   0.00000  -0.01072  -0.01072   1.92212
   R20        2.83701   0.00780   0.00000   0.02352   0.02352   2.86053
   R21        2.07288  -0.00351   0.00000  -0.01004  -0.01004   2.06283
   R22        2.07039   0.00288   0.00000   0.00820   0.00820   2.07859
   R23        2.63440   0.00079   0.00000   0.00187   0.00183   2.63623
   R24        2.63380   0.00174   0.00000   0.00378   0.00376   2.63757
   R25        2.05407  -0.00198   0.00000  -0.00549  -0.00549   2.04858
   R26        2.63560  -0.00302   0.00000  -0.00630  -0.00631   2.62928
   R27        2.05242  -0.00090   0.00000  -0.00248  -0.00248   2.04994
   R28        2.63704   0.00061   0.00000   0.00116   0.00118   2.63821
   R29        2.53334   0.00581   0.00000   0.01002   0.01002   2.54336
   R30        2.63871  -0.00091   0.00000  -0.00214  -0.00211   2.63660
   R31        2.63478  -0.00428   0.00000  -0.00907  -0.00906   2.62572
   R32        2.53480   0.00982   0.00000   0.01698   0.01698   2.55178
   R33        2.05202  -0.00068   0.00000  -0.00187  -0.00187   2.05016
   R34        2.06943   0.00103   0.00000   0.00294   0.00294   2.07237
   R35        2.07050  -0.00040   0.00000  -0.00114  -0.00114   2.06936
   R36        2.06650  -0.00018   0.00000  -0.00050  -0.00050   2.06601
    A1        1.95011   0.00248   0.00000   0.01497   0.01490   1.96502
    A2        1.93802   0.00119   0.00000   0.00511   0.00510   1.94311
    A3        1.91816   0.00099   0.00000   0.00746   0.00739   1.92556
    A4        1.89998  -0.00239   0.00000  -0.01699  -0.01700   1.88298
    A5        1.87237  -0.00129   0.00000  -0.00391  -0.00402   1.86835
    A6        1.88280  -0.00122   0.00000  -0.00787  -0.00788   1.87492
    A7        2.00423   0.00045   0.00000   0.00434   0.00431   2.00854
    A8        1.90093   0.00159   0.00000   0.01114   0.01107   1.91201
    A9        1.86034   0.00235   0.00000   0.03298   0.03289   1.89323
   A10        1.92006  -0.00259   0.00000  -0.03163  -0.03171   1.88836
   A11        1.91066  -0.00137   0.00000  -0.00745  -0.00781   1.90285
   A12        1.86158  -0.00033   0.00000  -0.00839  -0.00894   1.85263
   A13        1.93847  -0.00098   0.00000   0.01554   0.01453   1.95300
   A14        1.93767   0.00069   0.00000   0.01780   0.01669   1.95436
   A15        1.88787   0.00078   0.00000  -0.00535  -0.00527   1.88260
   A16        1.89799   0.00358   0.00000   0.03591   0.03524   1.93323
   A17        1.87569  -0.00036   0.00000  -0.00819  -0.00770   1.86799
   A18        1.92529  -0.00385   0.00000  -0.05788  -0.05757   1.86773
   A19        1.95918  -0.00230   0.00000  -0.01277  -0.01316   1.94603
   A20        1.88795   0.00098   0.00000  -0.00667  -0.00712   1.88082
   A21        1.95326  -0.00114   0.00000   0.00338   0.00343   1.95670
   A22        1.88312  -0.00206   0.00000  -0.03020  -0.03057   1.85254
   A23        1.89047   0.00433   0.00000   0.03187   0.03197   1.92244
   A24        1.88736   0.00018   0.00000   0.01370   0.01399   1.90135
   A25        1.94011   0.00678   0.00000   0.03785   0.03788   1.97799
   A26        1.94266  -0.00670   0.00000  -0.04022  -0.04167   1.90099
   A27        1.93749  -0.00255   0.00000  -0.02775  -0.02836   1.90913
   A28        1.89569   0.00370   0.00000   0.05491   0.05521   1.95090
[...]
    29  H    0.000041  -0.000185  -0.003397   0.000449   0.000166   0.000800
    30  H    0.002002   0.001423  -0.002871  -0.000391   0.000034  -0.000062
    31  H   -0.005851  -0.040227   0.384553  -0.049681  -0.005039  -0.000351
    32  C    0.000144  -0.004436  -0.042228   0.325636  -0.037791   0.003158
    33  H   -0.000022  -0.000156  -0.007519  -0.035247  -0.005989   0.000007
    34  H    0.000002   0.000110   0.004135  -0.029803  -0.005044   0.000038
    35  H   -0.000199   0.000114  -0.003735  -0.024114   0.003751  -0.000072
    36  H    0.000240  -0.007246  -0.037736   0.001492  -0.000094   0.000765
               7          8          9         10         11         12
     1  C   -0.003219  -0.000839   0.000000   0.000000  -0.000004   0.000110
     2  C   -0.047695  -0.000883   0.000000   0.000000  -0.000002  -0.000342
     3  C    0.249394  -0.031254   0.000000   0.000005   0.000091   0.004082
     4  C   -0.052984   0.003622   0.000000   0.000000  -0.000024  -0.000143
     5  C    0.000141  -0.000230   0.000000   0.000001   0.000043  -0.000116
     6  O   -0.033373   0.000737   0.000000   0.000007   0.000291  -0.000062
     7  N    6.971764   0.273623   0.000028  -0.000082   0.002848  -0.047477
     8  C    0.273623   4.907576  -0.000668   0.007914  -0.051066   0.316212
     9  C    0.000028  -0.000668   4.859167   0.483723  -0.005122  -0.026899
    10  C   -0.000082   0.007914   0.483723   5.045285   0.478974  -0.078547
    11  C    0.002848  -0.051066  -0.005122   0.478974   4.597547   0.397002
    12  C   -0.047477   0.316212  -0.026899  -0.078547   0.397002   5.322635
    13  C   -0.003291  -0.051839  -0.005312  -0.049094   0.021902   0.397859
    14  C   -0.000088   0.007534   0.486148  -0.036529  -0.045732  -0.077296
    15  H    0.000000   0.000004   0.374273  -0.034299   0.003568   0.000389
    16  H    0.000001  -0.000127  -0.036132   0.361874  -0.031619   0.006191
    17  H    0.000001  -0.000128  -0.035882   0.004392   0.000320   0.006167
    18  F   -0.001225   0.001590   0.002894  -0.045932   0.297785  -0.054969
    19  F   -0.000417  -0.001693   0.002887   0.000012   0.002507  -0.052743
    20  H    0.005560  -0.000067  -0.000002   0.000001  -0.000023  -0.001311
    21  H   -0.000544  -0.000452   0.000000   0.000000   0.000000   0.000045
    22  H    0.000020   0.000075   0.000000   0.000000   0.000000   0.000004
    23  H   -0.008084  -0.000129   0.000000   0.000000   0.000001   0.000036
    24  H    0.005067  -0.000101   0.000000   0.000000   0.000000   0.000004
    25  H   -0.000442  -0.000068   0.000000   0.000000   0.000000   0.000018
    26  H    0.000676   0.000090   0.000000   0.000000  -0.000044   0.000084
    27  H   -0.000198   0.000004   0.000000   0.000000   0.000000   0.000000
    28  H    0.061329  -0.001873  -0.000006   0.000015   0.001920  -0.002570
    29  H   -0.047793   0.377463  -0.000001   0.000119  -0.009228  -0.024990
    30  H   -0.046867   0.359857  -0.000020  -0.000142   0.006081  -0.031003
    31  H   -0.050469  -0.006921   0.000000   0.000000   0.000018   0.000806
    32  C    0.004095  -0.000093   0.000000   0.000000   0.000000   0.000002
    33  H    0.000044  -0.000004   0.000000   0.000000   0.000000   0.000000
    34  H   -0.000100   0.000002   0.000000   0.000000   0.000000   0.000000
    35  H   -0.000042  -0.000002   0.000000   0.000000   0.000000   0.000000
    36  H    0.335118  -0.039948  -0.000010  -0.000048  -0.000416  -0.001578
              13         14         15         16         17         18
     1  C   -0.000013  -0.000006   0.000000   0.000000   0.000000   0.000000
     2  C   -0.000007   0.000000   0.000000   0.000000   0.000000   0.000000
     3  C    0.000023   0.000004   0.000000   0.000000   0.000000   0.000008
     4  C    0.000004   0.000000   0.000000   0.000000   0.000000  -0.000003
     5  C   -0.000002   0.000000   0.000000   0.000000   0.000000  -0.000071
     6  O    0.000002   0.000000   0.000000   0.000000   0.000000  -0.000544
     7  N   -0.003291  -0.000088   0.000000   0.000001   0.000001  -0.001225
     8  C   -0.051839   0.007534   0.000004  -0.000127  -0.000128   0.001590
     9  C   -0.005312   0.486148   0.374273  -0.036132  -0.035882   0.002894
    10  C   -0.049094  -0.036529  -0.034299   0.361874   0.004392  -0.045932
    11  C    0.021902  -0.045732   0.003568  -0.031619   0.000320   0.297785
    12  C    0.397859  -0.077296   0.000389   0.006191   0.006167  -0.054969
    13  C    4.625274   0.479175   0.003607   0.000318  -0.032131   0.002717
    14  C    0.479175   5.035908  -0.034253   0.004375   0.362001  -0.000011
    15  H    0.003607  -0.034253   0.578185  -0.005642  -0.005640  -0.000024
    16  H    0.000318   0.004375  -0.005642   0.580870  -0.000129  -0.000412
    17  H   -0.032131   0.362001  -0.005640  -0.000129   0.582591   0.000001
    18  F    0.002717  -0.000011  -0.000024  -0.000412   0.000001   9.078464
    19  F    0.291471  -0.043857  -0.000025   0.000001  -0.000495  -0.000001
    20  H    0.000893   0.000064   0.000000   0.000000   0.000000   0.000000
    21  H   -0.000018   0.000000   0.000000   0.000000   0.000000   0.000000
    22  H   -0.000004   0.000000   0.000000   0.000000   0.000000   0.000000
    23  H   -0.000011   0.000000   0.000000   0.000000   0.000000   0.000000
    24  H    0.000001   0.000000   0.000000   0.000000   0.000000   0.000000
    25  H    0.000000   0.000000   0.000000   0.000000   0.000000   0.000000
    26  H    0.000000   0.000000   0.000000   0.000000   0.000000   0.000052
    27  H    0.000000   0.000000   0.000000   0.000000   0.000000  -0.000001
    28  H   -0.000101   0.000003   0.000000   0.000002   0.000000   0.006480
    29  H    0.005131  -0.000181   0.000000  -0.000005   0.000002   0.005747
    30  H   -0.011212   0.000111   0.000000   0.000002  -0.000002   0.000187
    31  H   -0.000038   0.000000   0.000000   0.000000   0.000000  -0.000003
    32  C    0.000000   0.000000   0.000000   0.000000   0.000000   0.000000
    33  H    0.000000   0.000000   0.000000   0.000000   0.000000   0.000000
    34  H    0.000000   0.000000   0.000000   0.000000   0.000000   0.000000
    35  H    0.000000   0.000000   0.000000   0.000000   0.000000   0.000000
    36  H    0.003488  -0.000154   0.000000   0.000000   0.000002  -0.000029
              19         20         21         22         23         24
     1  C   -0.002357   0.373943   0.385756   0.378490  -0.041414  -0.034280
     2  C    0.000029  -0.032392  -0.034635  -0.026016   0.379920   0.375432
     3  C   -0.000012  -0.006235  -0.004346   0.003967  -0.036023  -0.034916
     4  C    0.000000   0.000119   0.000014  -0.000124  -0.007423  -0.001404
     5  C    0.000000   0.000001   0.000000   0.000001   0.000014   0.000144
     6  O    0.000000   0.000001   0.000000   0.000000  -0.000031   0.000005
     7  N   -0.000417   0.005560  -0.000544   0.000020  -0.008084   0.005067
     8  C   -0.001693  -0.000067  -0.000452   0.000075  -0.000129  -0.000101
     9  C    0.002887  -0.000002   0.000000   0.000000   0.000000   0.000000
    10  C    0.000012   0.000001   0.000000   0.000000   0.000000   0.000000
    11  C    0.002507  -0.000023   0.000000   0.000000   0.000001   0.000000
    12  C   -0.052743  -0.001311   0.000045   0.000004   0.000036   0.000004
    13  C    0.291471   0.000893  -0.000018  -0.000004  -0.000011   0.000001
    14  C   -0.043857   0.000064   0.000000   0.000000   0.000000   0.000000
    15  H   -0.000025   0.000000   0.000000   0.000000   0.000000   0.000000
    16  H    0.000001   0.000000   0.000000   0.000000   0.000000   0.000000
    17  H   -0.000495   0.000000   0.000000   0.000000   0.000000   0.000000
    18  F   -0.000001   0.000000   0.000000   0.000000   0.000000   0.000000
    19  F    9.084535   0.010318  -0.000009   0.000007  -0.000001   0.000000
    20  H    0.010318   0.605739  -0.034080  -0.029841  -0.005185   0.005228
    21  H   -0.000009  -0.034080   0.604299  -0.031116   0.005415  -0.004638
    22  H    0.000007  -0.029841  -0.031116   0.604792  -0.003134  -0.003935
    23  H   -0.000001  -0.005185   0.005415  -0.003134   0.635195  -0.036505
    24  H    0.000000   0.005228  -0.004638  -0.003935  -0.036505   0.625529
    25  H    0.000000  -0.000008   0.000011  -0.000002   0.006195  -0.000441
    26  H    0.000000   0.000000  -0.000001   0.000000   0.000005  -0.000011
    27  H    0.000000   0.000000   0.000000   0.000000   0.000000   0.000003
    28  H    0.000000  -0.000013  -0.000001   0.000000   0.000049  -0.000033
    29  H    0.000194   0.000200   0.000003  -0.000004  -0.000014   0.000030
    30  H    0.006469  -0.002617   0.001538  -0.000018   0.000159  -0.000202
    31  H   -0.000001  -0.000656   0.004810  -0.000002   0.006364  -0.004290
    32  C    0.000000  -0.000008  -0.000008   0.000001  -0.000149  -0.000921
    33  H    0.000000   0.000001  -0.000002   0.000000   0.000045   0.000303
    34  H    0.000000   0.000000   0.000000   0.000000  -0.000033  -0.000084
    35  H    0.000000   0.000001   0.000021   0.000010   0.000369   0.004230
    36  H    0.000451   0.002521   0.000129  -0.000165   0.004882   0.000191
              25         26         27         28         29         30
     1  C    0.000053  -0.000001   0.000002   0.000010   0.000041   0.002002
     2  C   -0.006754   0.000175  -0.000168   0.000285  -0.000185   0.001423
     3  C   -0.047443  -0.011618   0.004726  -0.002319  -0.003397  -0.002871
     4  C    0.366102  -0.054471  -0.033631  -0.009057   0.000449  -0.000391
     5  C   -0.046632   0.353884   0.381003  -0.042890   0.000166   0.000034
     6  O    0.004580  -0.040526  -0.038601   0.278405   0.000800  -0.000062
     7  N   -0.000442   0.000676  -0.000198   0.061329  -0.047793  -0.046867
     8  C   -0.000068   0.000090   0.000004  -0.001873   0.377463   0.359857
     9  C    0.000000   0.000000   0.000000  -0.000006  -0.000001  -0.000020
    10  C    0.000000   0.000000   0.000000   0.000015   0.000119  -0.000142
    11  C    0.000000  -0.000044   0.000000   0.001920  -0.009228   0.006081
    12  C    0.000018   0.000084   0.000000  -0.002570  -0.024990  -0.031003
    13  C    0.000000   0.000000   0.000000  -0.000101   0.005131  -0.011212
    14  C    0.000000   0.000000   0.000000   0.000003  -0.000181   0.000111
    15  H    0.000000   0.000000   0.000000   0.000000   0.000000   0.000000
    16  H    0.000000   0.000000   0.000000   0.000002  -0.000005   0.000002
    17  H    0.000000   0.000000   0.000000   0.000000   0.000002  -0.000002
    18  F    0.000000   0.000052  -0.000001   0.006480   0.005747   0.000187
    19  F    0.000000   0.000000   0.000000   0.000000   0.000194   0.006469
    20  H   -0.000008   0.000000   0.000000  -0.000013   0.000200  -0.002617
    21  H    0.000011  -0.000001   0.000000  -0.000001   0.000003   0.001538
    22  H   -0.000002   0.000000   0.000000   0.000000  -0.000004  -0.000018
    23  H    0.006195   0.000005   0.000000   0.000049  -0.000014   0.000159
    24  H   -0.000441  -0.000011   0.000003  -0.000033   0.000030  -0.000202
    25  H    0.663952   0.008125  -0.006056   0.000294  -0.000003   0.000003
    26  H    0.008125   0.725125  -0.053644  -0.002151   0.000509  -0.000009
    27  H   -0.006056  -0.053644   0.654542   0.006025   0.000005  -0.000001
    28  H    0.000294  -0.002151   0.006025   0.381192  -0.002123   0.000658
    29  H   -0.000003   0.000509   0.000005  -0.002123   0.606781  -0.046526
    30  H    0.000003  -0.000009  -0.000001   0.000658  -0.046526   0.651348
    31  H    0.006617   0.004344  -0.000146   0.000630   0.001861   0.003544
    32  C   -0.034006   0.001599  -0.005526   0.000165  -0.000041   0.000016
    33  H    0.005843   0.004959  -0.000515   0.000010  -0.000004  -0.000001
    34  H   -0.003746  -0.000283   0.005864  -0.000013   0.000001   0.000000
    35  H   -0.004340  -0.000320  -0.000025   0.000007   0.000000   0.000000
    36  H    0.000809  -0.000002   0.000010  -0.001973   0.006332  -0.003249
              31         32         33         34         35         36
     1  C   -0.005851   0.000144  -0.000022   0.000002  -0.000199   0.000240
     2  C   -0.040227  -0.004436  -0.000156   0.000110   0.000114  -0.007246
     3  C    0.384553  -0.042228  -0.007519   0.004135  -0.003735  -0.037736
     4  C   -0.049681   0.325636  -0.035247  -0.029803  -0.024114   0.001492
     5  C   -0.005039  -0.037791  -0.005989  -0.005044   0.003751  -0.000094
     6  O   -0.000351   0.003158   0.000007   0.000038  -0.000072   0.000765
     7  N   -0.050469   0.004095   0.000044  -0.000100  -0.000042   0.335118
     8  C   -0.006921  -0.000093  -0.000004   0.000002  -0.000002  -0.039948
     9  C    0.000000   0.000000   0.000000   0.000000   0.000000  -0.000010
    10  C    0.000000   0.000000   0.000000   0.000000   0.000000  -0.000048
    11  C    0.000018   0.000000   0.000000   0.000000   0.000000  -0.000416
    12  C    0.000806   0.000002   0.000000   0.000000   0.000000  -0.001578
    13  C   -0.000038   0.000000   0.000000   0.000000   0.000000   0.003488
    14  C    0.000000   0.000000   0.000000   0.000000   0.000000  -0.000154
    15  H    0.000000   0.000000   0.000000   0.000000   0.000000   0.000000
    16  H    0.000000   0.000000   0.000000   0.000000   0.000000   0.000000
    17  H    0.000000   0.000000   0.000000   0.000000   0.000000   0.000002
    18  F   -0.000003   0.000000   0.000000   0.000000   0.000000  -0.000029
    19  F   -0.000001   0.000000   0.000000   0.000000   0.000000   0.000451
    20  H   -0.000656  -0.000008   0.000001   0.000000   0.000001   0.002521
    21  H    0.004810  -0.000008  -0.000002   0.000000   0.000021   0.000129
    22  H   -0.000002   0.000001   0.000000   0.000000   0.000010  -0.000165
    23  H    0.006364  -0.000149   0.000045  -0.000033   0.000369   0.004882
    24  H   -0.004290  -0.000921   0.000303  -0.000084   0.004230   0.000191
    25  H    0.006617  -0.034006   0.005843  -0.003746  -0.004340   0.000809
    26  H    0.004344   0.001599   0.004959  -0.000283  -0.000320  -0.000002
    27  H   -0.000146  -0.005526  -0.000515   0.005864  -0.000025   0.000010
    28  H    0.000630   0.000165   0.000010  -0.000013   0.000007  -0.001973
    29  H    0.001861  -0.000041  -0.000004   0.000001   0.000000   0.006332
    30  H    0.003544   0.000016  -0.000001   0.000000   0.000000  -0.003249
    31  H    0.650827  -0.006235   0.006286  -0.000069  -0.000006   0.006044
    32  C   -0.006235   4.991111   0.382275   0.379306   0.375185  -0.000154
    33  H    0.006286   0.382275   0.609254  -0.031630  -0.033289   0.000001
    34  H   -0.000069   0.379306  -0.031630   0.602943  -0.029086   0.000005
    35  H   -0.000006   0.375185  -0.033289  -0.029086   0.604125  -0.000001
    36  H    0.006044  -0.000154   0.000001   0.000005  -0.000001   0.471587
 Mulliken charges:
               1
     1  C   -0.333645
     2  C   -0.193561
     3  C    0.096386
     4  C   -0.082666
     5  C    0.078136
     6  O   -0.602825
     7  N   -0.565318
     8  C   -0.067917
     9  C   -0.099063
    10  C   -0.137645
    11  C    0.332384
    12  C   -0.051601
    13  C    0.321205
    14  C   -0.137217
    15  H    0.119855
    16  H    0.120431
    17  H    0.118933
    18  F   -0.292700
    19  F   -0.297269
    20  H    0.107847
    21  H    0.107808
    22  H    0.106994
    23  H    0.099488
    24  H    0.105594
    25  H    0.087341
    26  H    0.063453
    27  H    0.086329
    28  H    0.327644
    29  H    0.128661
    30  H    0.111760
    31  H    0.093280
    32  C   -0.331096
    33  H    0.105350
    34  H    0.107490
    35  H    0.107417
    36  H    0.258735
 Sum of Mulliken charges =   0.00000
 Mulliken charges with hydrogens summed into heavy atoms:
               1
     1  C   -0.010996
     2  C    0.011522
     3  C    0.189667
     4  C    0.004675
     5  C    0.227917
     6  O   -0.275181
     7  N   -0.306582
     8  C    0.172504
     9  C    0.020792
    10  C   -0.017214
    11  C    0.332384
    12  C   -0.051601
    13  C    0.321205
    14  C   -0.018285
    18  F   -0.292700
    19  F   -0.297269
    32  C   -0.010838
 Electronic spatial extent (au):  <R**2>=           4945.5928
 Charge=              0.0000 electrons
 Dipole moment (field-independent basis, Debye):
    X=             -1.6965    Y=              3.5199    Z=              0.6001  Tot=              3.9533
 Quadrupole moment (field-independent basis, Debye-Ang):
   XX=            -84.3857   YY=           -111.0164   ZZ=           -101.0528
   XY=              7.0519   XZ=              5.2542   YZ=             -3.9163
 Traceless Quadrupole moment (field-independent basis, Debye-Ang):
   XX=             14.4326   YY=            -12.1981   ZZ=             -2.2345
   XY=              7.0519   XZ=              5.2542   YZ=             -3.9163
 Octapole moment (field-independent basis, Debye-Ang**2):
  XXX=            -68.1106  YYY=             16.4490  ZZZ=              5.5479  XYY=            -18.3891
  XXY=             -7.2373  XXZ=            -15.2113  XZZ=             -2.1838  YZZ=              3.9349
  YYZ=              5.7212  XYZ=             -6.1052
 Hexadecapole moment (field-independent basis, Debye-Ang**3):
 XXXX=          -4149.4920 YYYY=          -1727.2295 ZZZZ=           -267.7430 XXXY=             -9.9781
 XXXZ=             75.8258 YYYX=             40.5182 YYYZ=            -30.5688 ZZZX=            -12.6124
 ZZZY=             -8.6236 XXYY=           -978.8410 XXZZ=           -821.9911 YYZZ=           -329.1958
 XXYZ=             -8.4043 YYXZ=             19.1174 ZZXY=             -3.7887
 N-N= 1.282881190185D+03 E-N=-4.519505363745D+03  KE= 8.290872853249D+02
 1\1\GINC-SWANNODE-0-5\FOpt\RB3LYP\6-31G(d,p)\C13H19F2N1O1\KE291\06-Mar
 -2019\0\\# b3lyp/6-31g(d,p) Opt=(maxcycles=50) scrf=(solvent=chlorofor
 m)\\AT3_1ginp007\\0,1\C,-1.3928982479,0.0744012497,0.0774956736\C,-1.7
 600549096,1.0037537163,1.2407621845\C,-0.6732165903,1.1715033951,2.322
 0013667\C,-1.1786317475,2.0068585726,3.5328133792\C,-0.0338881202,2.40
 77959498,4.4856592836\O,0.8427493571,3.378672058,3.9429315693\N,0.5741
 760041,1.7582878671,1.7490975303\C,1.6535964944,0.7853715339,1.4861597
 381\C,4.8983534367,2.6794724002,-0.6745421092\C,4.8234547723,2.8081529
 077,0.7135424109\C,3.7732616181,2.1881886359,1.3781794358\C,2.78919145
 85,1.4339613075,0.7340124664\C,2.911695173,1.3495840887,-0.6542088402\
 C,3.9393226872,1.9463042071,-1.3743523602\H,5.7094724365,3.1559922806,
 -1.2149128845\H,5.5549126508,3.374471246,1.2780872313\H,3.9745118994,1
 .834326821,-2.4517101977\F,3.6924728769,2.3102876834,2.7218165106\F,1.
 9744893443,0.6431508513,-1.3341223628\H,-0.5167240227,0.4241742749,-0.
 4768191902\H,-1.1801486707,-0.940261112,0.4326019136\H,-2.2223049655,0
 .0073451145,-0.6337048257\H,-2.0074559939,2.0020820552,0.8512513355\H,
 -2.6761494247,0.6306424816,1.7094703099\H,-1.6047925983,2.9444321041,3
 .1464525637\H,0.5103056106,1.4954879063,4.7951035977\H,-0.4645411343,2
 .8374980306,5.3983305799\H,1.0655431394,3.003129962,3.0629502951\H,2.0
 221025593,0.4270780093,2.4517901823\H,1.307195038,-0.0888787543,0.9214
 802669\H,-0.4048513494,0.1765190471,2.7065019849\C,-2.2615617229,1.258
 8885085,4.3276213244\H,-1.8673129318,0.3230201743,4.7426690882\H,-2.61
 22431364,1.8696537951,5.1658953199\H,-3.1344697201,1.0097197849,3.7194
 036599\H,0.3509067297,2.2465438461,0.8845715682\\Version=EM64L-G09RevD
 .01\State=1-A\HF=-836.4998289\RMSD=7.755e-09\RMSF=5.087e-06\Dipole=0.0
 084899,-0.8030769,-1.3319325\Quadrupole=8.1886512,-4.6627072,-3.525944
 ,3.5576409,-5.4451275,-7.6405358\PG=C01 [X(C13H19F2N1O1)]\\@


 JUST WHEN YOU THINK YOU'VE GOT THE WORLD ON A STRING,
 YOU FIND OUT IT'S YOUR LEASH.
 Job cpu time:       0 days  5 hours 40 minutes 33.0 seconds.
 File lengths (MBytes):  RWF=    276 Int=      0 D2E=      0 Chk=     13 Scr=      1
 Normal termination of Gaussian 09 at Wed Mar  6 12:42:44 2019.
