 Entering Gaussian System, Link 0=/usr/local/shared/gaussian/em64t/09-D01/g09/g09
 Initial command:
 /usr/local/shared/gaussian/em64t/09-D01/g09/l1.exe "/scratch/ke291/AT3_1ginp011/Gau-23020.inp" -scrdir="/scratch/ke291/AT3_1ginp011/"
 Entering Link 1 = /usr/local/shared/gaussian/em64t/09-D01/g09/l1.exe PID=     23032.
  
 Copyright (c) 1988,1990,1992,1993,1995,1998,2003,2009,2013,
            Gaussian, Inc.  All Rights Reserved.
  
 This is part of the Gaussian(R) 09 program.  It is based on
 the Gaussian(R) 03 system (copyright 2003, Gaussian, Inc.),
 the Gaussian(R) 98 system (copyright 1998, Gaussian, Inc.),
 the Gaussian(R) 94 system (copyright 1995, Gaussian, Inc.),
 the Gaussian 92(TM) system (copyright 1992, Gaussian, Inc.),
 the Gaussian 90(TM) system (copyright 1990, Gaussian, Inc.),
 the Gaussian 88(TM) system (copyright 1988, Gaussian, Inc.),
 the Gaussian 86(TM) system (copyright 1986, Carnegie Mellon
 University), and the Gaussian 82(TM) system (copyright 1983,
 Carnegie Mellon University). Gaussian is a federally registered
 trademark of Gaussian, Inc.
  
 This software contains proprietary and confidential information,
 including trade secrets, belonging to Gaussian, Inc.
  
 This software is provided under written license and may be
 used, copied, transmitted, or stored only in accord with that
 written license.
  
 The following legend is applicable only to US Government
 contracts under FAR:
  
                    RESTRICTED RIGHTS LEGEND
  
 Use, reproduction and disclosure by the US Government is
 subject to restrictions as set forth in subparagraphs (a)
 and (c) of the Commercial Computer Software - Restricted
 Rights clause in FAR 52.227-19.
  
 Gaussian, Inc.
 340 Quinnipiac St., Bldg. 40, Wallingford CT 06492
  
  
 ---------------------------------------------------------------
 Warning -- This program may not be used in any manner that
 competes with the business of Gaussian, Inc. or will provide
 assistance to any competitor of Gaussian, Inc.  The licensee
 of this program is prohibited from giving any competitor of
 Gaussian, Inc. access to this program.  By using this program,
 the user acknowledges that Gaussian, Inc. is engaged in the
 business of creating and licensing software in the field of
 computational chemistry and represents and warrants to the
 licensee that it is not a competitor of Gaussian, Inc. and that
 it will not use this program in any manner prohibited above.
 ---------------------------------------------------------------
  

 Cite this work as:
 Gaussian 09, Revision D.01,
 M. J. Frisch, G. W. Trucks, H. B. Schlegel, G. E. Scuseria, 
 M. A. Robb, J. R. Cheeseman, G. Scalmani, V. Barone, B. Mennucci, 
 G. A. Petersson, H. Nakatsuji, M. Caricato, X. Li, H. P. Hratchian, 
 A. F. Izmaylov, J. Bloino, G. Zheng, J. L. Sonnenberg, M. Hada, 
 M. Ehara, K. Toyota, R. Fukuda, J. Hasegawa, M. Ishida, T. Nakajima, 
 Y. Honda, O. Kitao, H. Nakai, T. Vreven, J. A. Montgomery, Jr., 
 J. E. Peralta, F. Ogliaro, M. Bearpark, J. J. Heyd, E. Brothers, 
 K. N. Kudin, V. N. Staroverov, T. Keith, R. Kobayashi, J. Normand, 
 K. Raghavachari, A. Rendell, J. C. Burant, S. S. Iyengar, J. Tomasi, 
 M. Cossi, N. Rega, J. M. Millam, M. Klene, J. E. Knox, J. B. Cross, 
 V. Bakken, C. Adamo, J. Jaramillo, R. Gomperts, R. E. Stratmann, 
 O. Yazyev, A. J. Austin, R. Cammi, C. Pomelli, J. W. Ochterski, 
 R. L. Martin, K. Morokuma, V. G. Zakrzewski, G. A. Voth, 
 P. Salvador, J. J. Dannenberg, S. Dapprich, A. D. Daniels, 
 O. Farkas, J. B. Foresman, J. V. Ortiz, J. Cioslowski, 
 and D. J. Fox, Gaussian, Inc., Wallingford CT, 2013.
 
 ******************************************
 Gaussian 09:  EM64L-G09RevD.01 24-Apr-2013
                 6-Mar-2019 
 ******************************************
 %nprocshared=2
 Will use up to    2 processors via shared memory.
 %mem=6000MB
 %chk=AT3_1ginp011.chk
 ---------------------------------------------------------------
 # b3lyp/6-31g(d,p) Opt=(maxcycles=50) scrf=(solvent=chloroform)
 ---------------------------------------------------------------
 1/6=50,14=-1,18=20,19=15,26=3,38=1/1,3;
 2/9=110,12=2,17=6,18=5,40=1/2;
 3/5=1,6=6,7=101,11=2,16=1,25=1,30=1,70=2201,71=1,72=7,74=-5/1,2,3;
 4//1;
 5/5=2,38=5,53=7/2;
 6/7=2,8=2,9=2,10=2,28=1/1;
 7//1,2,3,16;
 1/6=50,14=-1,18=20,19=15,26=3/3(2);
 2/9=110/2;
 99//99;
 2/9=110/2;
 3/5=1,6=6,7=101,11=2,16=1,25=1,30=1,70=2205,71=1,72=7,74=-5/1,2,3;
 4/5=5,16=3,69=1/1;
 5/5=2,38=5,53=7/2;
 7//1,2,3,16;
 1/6=50,14=-1,18=20,19=15,26=3/3(-5);
 2/9=110/2;
 6/7=2,8=2,9=2,10=2,19=2,28=1/1;
 99/9=1/99;
 ------------
 AT3_1ginp011
 ------------
 Symbolic Z-matrix:
 Charge =  0 Multiplicity = 1
 C                     0.07073  -1.55321   2.6618 
 C                    -0.86415  -0.38357   2.36846 
 C                    -0.33756   0.98212   2.87211 
 C                    -1.34395   2.16237   2.6531 
 C                    -0.87518   3.45043   3.36265 
 O                     0.32228   3.9655    2.79941 
 N                     1.01676   1.31745   2.37542 
 C                     1.15958   1.3063    0.91017 
 C                     5.13031   2.55134  -0.26232 
 C                     4.942     1.34456   0.40869 
 C                     3.65663   0.95284   0.78092 
 C                     2.53916   1.74313   0.50147 
 C                     2.74958   2.94379  -0.17798 
 C                     4.02821   3.3522   -0.5576 
 H                     6.12882   2.86621  -0.55426 
 H                     5.78691   0.7055    0.64695 
 H                     4.15238   4.2951   -1.08213 
 F                     3.50151  -0.21426   1.42438 
 F                     1.70956   3.7276   -0.49528 
 H                     1.00744  -1.4805    2.10259 
 H                     0.30796  -1.60564   3.72914 
 H                    -0.40952  -2.49498   2.37661 
 H                    -1.081    -0.34406   1.29482 
 H                    -1.81144  -0.61461   2.86809 
 H                    -1.41694   2.37091   1.57877 
 H                    -0.70393   3.27122   4.42975 
 H                    -1.63228   4.23665   3.27556 
 H                     0.91847   3.19366   2.68798 
 H                     0.99019   0.30552   0.49748 
 H                     0.41867   1.96586   0.44761 
 H                    -0.2257    0.88069   3.96105 
 C                    -2.7562    1.83033   3.15245 
 H                    -2.74083   1.50019   4.19648 
 H                    -3.41113   2.70609   3.0849 
 H                    -3.21967   1.04649   2.54582 
 H                     1.67911   0.63276   2.75038 
 

 GradGradGradGradGradGradGradGradGradGradGradGradGradGradGradGradGradGrad
 Berny optimization.
 Initialization pass.
                           ----------------------------
                           !    Initial Parameters    !
                           ! (Angstroms and Degrees)  !
 --------------------------                            --------------------------
 ! Name  Definition              Value          Derivative Info.                !
 --------------------------------------------------------------------------------
 ! R1    R(1,2)                  1.5258         estimate D2E/DX2                !
 ! R2    R(1,20)                 1.0934         estimate D2E/DX2                !
 ! R3    R(1,21)                 1.0946         estimate D2E/DX2                !
 ! R4    R(1,22)                 1.0949         estimate D2E/DX2                !
 ! R5    R(2,3)                  1.5479         estimate D2E/DX2                !
 ! R6    R(2,23)                 1.096          estimate D2E/DX2                !
 ! R7    R(2,24)                 1.0956         estimate D2E/DX2                !
 ! R8    R(3,4)                  1.5665         estimate D2E/DX2                !
 ! R9    R(3,7)                  1.481          estimate D2E/DX2                !
 ! R10   R(3,31)                 1.0994         estimate D2E/DX2                !
 ! R11   R(4,5)                  1.5435         estimate D2E/DX2                !
 ! R12   R(4,25)                 1.0968         estimate D2E/DX2                !
 ! R13   R(4,32)                 1.5343         estimate D2E/DX2                !
 ! R14   R(5,6)                  1.42           estimate D2E/DX2                !
 ! R15   R(5,26)                 1.0955         estimate D2E/DX2                !
 ! R16   R(5,27)                 1.095          estimate D2E/DX2                !
 ! R17   R(6,28)                 0.9816         estimate D2E/DX2                !
 ! R18   R(7,8)                  1.4722         estimate D2E/DX2                !
 ! R19   R(7,36)                 1.0238         estimate D2E/DX2                !
 ! R20   R(8,12)                 1.5037         estimate D2E/DX2                !
 ! R21   R(8,29)                 1.0957         estimate D2E/DX2                !
 ! R22   R(8,30)                 1.0945         estimate D2E/DX2                !
 ! R23   R(9,10)                 1.3936         estimate D2E/DX2                !
 ! R24   R(9,14)                 1.394          estimate D2E/DX2                !
 ! R25   R(9,15)                 1.0869         estimate D2E/DX2                !
 ! R26   R(10,11)                1.3943         estimate D2E/DX2                !
 ! R27   R(10,16)                1.0858         estimate D2E/DX2                !
 ! R28   R(11,12)                1.3969         estimate D2E/DX2                !
 ! R29   R(11,18)                1.3417         estimate D2E/DX2                !
 ! R30   R(12,13)                1.3955         estimate D2E/DX2                !
 ! R31   R(13,14)                1.3949         estimate D2E/DX2                !
 ! R32   R(13,19)                1.3404         estimate D2E/DX2                !
 ! R33   R(14,17)                1.0861         estimate D2E/DX2                !
 ! R34   R(32,33)                1.0951         estimate D2E/DX2                !
 ! R35   R(32,34)                1.0957         estimate D2E/DX2                !
 ! R36   R(32,35)                1.0942         estimate D2E/DX2                !
 ! A1    A(2,1,20)             112.0624         estimate D2E/DX2                !
 ! A2    A(2,1,21)             110.9129         estimate D2E/DX2                !
 ! A3    A(2,1,22)             109.909          estimate D2E/DX2                !
 ! A4    A(20,1,21)            108.4346         estimate D2E/DX2                !
 ! A5    A(20,1,22)            107.4425         estimate D2E/DX2                !
 ! A6    A(21,1,22)            107.9282         estimate D2E/DX2                !
 ! A7    A(1,2,3)              113.9121         estimate D2E/DX2                !
 ! A8    A(1,2,23)             109.7048         estimate D2E/DX2                !
 ! A9    A(1,2,24)             106.286          estimate D2E/DX2                !
 ! A10   A(3,2,23)             110.7463         estimate D2E/DX2                !
 ! A11   A(3,2,24)             109.3792         estimate D2E/DX2                !
 ! A12   A(23,2,24)            106.4538         estimate D2E/DX2                !
 ! A13   A(2,3,4)              113.6219         estimate D2E/DX2                !
 ! A14   A(2,3,7)              113.6872         estimate D2E/DX2                !
 ! A15   A(2,3,31)             105.9919         estimate D2E/DX2                !
 ! A16   A(4,3,7)              111.7169         estimate D2E/DX2                !
 ! A17   A(4,3,31)             105.8653         estimate D2E/DX2                !
 ! A18   A(7,3,31)             105.0724         estimate D2E/DX2                !
 ! A19   A(3,4,5)              111.677          estimate D2E/DX2                !
 ! A20   A(3,4,25)             108.8419         estimate D2E/DX2                !
 ! A21   A(3,4,32)             112.5068         estimate D2E/DX2                !
 ! A22   A(5,4,25)             108.1695         estimate D2E/DX2                !
 ! A23   A(5,4,32)             108.0918         estimate D2E/DX2                !
 ! A24   A(25,4,32)            107.3787         estimate D2E/DX2                !
 ! A25   A(4,5,6)              112.1149         estimate D2E/DX2                !
 ! A26   A(4,5,26)             111.0236         estimate D2E/DX2                !
 ! A27   A(4,5,27)             110.6492         estimate D2E/DX2                !
 ! A28   A(6,5,26)             108.2932         estimate D2E/DX2                !
 ! A29   A(6,5,27)             106.9226         estimate D2E/DX2                !
 ! A30   A(26,5,27)            107.6392         estimate D2E/DX2                !
 ! A31   A(5,6,28)             105.782          estimate D2E/DX2                !
 ! A32   A(3,7,8)              114.884          estimate D2E/DX2                !
 ! A33   A(3,7,36)             108.5043         estimate D2E/DX2                !
 ! A34   A(8,7,36)             107.2584         estimate D2E/DX2                !
 ! A35   A(7,8,12)             110.9353         estimate D2E/DX2                !
 ! A36   A(7,8,29)             111.5169         estimate D2E/DX2                !
 ! A37   A(7,8,30)             110.5108         estimate D2E/DX2                !
 ! A38   A(12,8,29)            107.7466         estimate D2E/DX2                !
 ! A39   A(12,8,30)            109.3377         estimate D2E/DX2                !
 ! A40   A(29,8,30)            106.6526         estimate D2E/DX2                !
 ! A41   A(10,9,14)            119.5164         estimate D2E/DX2                !
 ! A42   A(10,9,15)            120.2863         estimate D2E/DX2                !
 ! A43   A(14,9,15)            120.1973         estimate D2E/DX2                !
 ! A44   A(9,10,11)            119.7613         estimate D2E/DX2                !
 ! A45   A(9,10,16)            120.6752         estimate D2E/DX2                !
 ! A46   A(11,10,16)           119.5633         estimate D2E/DX2                !
 ! A47   A(10,11,12)           121.6744         estimate D2E/DX2                !
 ! A48   A(10,11,18)           118.6187         estimate D2E/DX2                !
 ! A49   A(12,11,18)           119.7068         estimate D2E/DX2                !
 ! A50   A(8,12,11)            121.0107         estimate D2E/DX2                !
 ! A51   A(8,12,13)            121.373          estimate D2E/DX2                !
 ! A52   A(11,12,13)           117.6145         estimate D2E/DX2                !
 ! A53   A(12,13,14)           121.5076         estimate D2E/DX2                !
 ! A54   A(12,13,19)           120.0901         estimate D2E/DX2                !
 ! A55   A(14,13,19)           118.3975         estimate D2E/DX2                !
 ! A56   A(9,14,13)            119.9234         estimate D2E/DX2                !
 ! A57   A(9,14,17)            120.7088         estimate D2E/DX2                !
 ! A58   A(13,14,17)           119.3678         estimate D2E/DX2                !
 ! A59   A(4,32,33)            111.2603         estimate D2E/DX2                !
 ! A60   A(4,32,34)            110.9256         estimate D2E/DX2                !
 ! A61   A(4,32,35)            111.376          estimate D2E/DX2                !
 ! A62   A(33,32,34)           107.9465         estimate D2E/DX2                !
 ! A63   A(33,32,35)           108.5754         estimate D2E/DX2                !
 ! A64   A(34,32,35)           106.5724         estimate D2E/DX2                !
 ! D1    D(20,1,2,3)           -66.638          estimate D2E/DX2                !
 ! D2    D(20,1,2,23)           58.1394         estimate D2E/DX2                !
 ! D3    D(20,1,2,24)          172.8523         estimate D2E/DX2                !
 ! D4    D(21,1,2,3)            54.7038         estimate D2E/DX2                !
 ! D5    D(21,1,2,23)          179.4812         estimate D2E/DX2                !
 ! D6    D(21,1,2,24)          -65.8059         estimate D2E/DX2                !
 ! D7    D(22,1,2,3)           173.9703         estimate D2E/DX2                !
 ! D8    D(22,1,2,23)          -61.2523         estimate D2E/DX2                !
 ! D9    D(22,1,2,24)           53.4606         estimate D2E/DX2                !
 ! D10   D(1,2,3,4)           -176.1497         estimate D2E/DX2                !
 ! D11   D(1,2,3,7)             54.5875         estimate D2E/DX2                !
 ! D12   D(1,2,3,31)           -60.3181         estimate D2E/DX2                !
 ! D13   D(23,2,3,4)            59.6313         estimate D2E/DX2                !
 ! D14   D(23,2,3,7)           -69.6316         estimate D2E/DX2                !
 ! D15   D(23,2,3,31)          175.4629         estimate D2E/DX2                !
 ! D16   D(24,2,3,4)           -57.3894         estimate D2E/DX2                !
 ! D17   D(24,2,3,7)           173.3478         estimate D2E/DX2                !
 ! D18   D(24,2,3,31)           58.4423         estimate D2E/DX2                !
 ! D19   D(2,3,4,5)            171.099          estimate D2E/DX2                !
 ! D20   D(2,3,4,25)           -69.5473         estimate D2E/DX2                !
 ! D21   D(2,3,4,32)            49.335          estimate D2E/DX2                !
 ! D22   D(7,3,4,5)            -58.6473         estimate D2E/DX2                !
 ! D23   D(7,3,4,25)            60.7063         estimate D2E/DX2                !
 ! D24   D(7,3,4,32)           179.5887         estimate D2E/DX2                !
 ! D25   D(31,3,4,5)            55.1929         estimate D2E/DX2                !
 ! D26   D(31,3,4,25)          174.5465         estimate D2E/DX2                !
 ! D27   D(31,3,4,32)          -66.5712         estimate D2E/DX2                !
 ! D28   D(2,3,7,8)             55.8327         estimate D2E/DX2                !
 ! D29   D(2,3,7,36)           -64.1748         estimate D2E/DX2                !
 ! D30   D(4,3,7,8)            -74.3872         estimate D2E/DX2                !
 ! D31   D(4,3,7,36)           165.6053         estimate D2E/DX2                !
 ! D32   D(31,3,7,8)           171.2818         estimate D2E/DX2                !
 ! D33   D(31,3,7,36)           51.2743         estimate D2E/DX2                !
 ! D34   D(3,4,5,6)             65.8609         estimate D2E/DX2                !
 ! D35   D(3,4,5,26)           -55.4142         estimate D2E/DX2                !
 ! D36   D(3,4,5,27)          -174.8705         estimate D2E/DX2                !
 ! D37   D(25,4,5,6)           -53.8897         estimate D2E/DX2                !
 ! D38   D(25,4,5,26)         -175.1647         estimate D2E/DX2                !
 ! D39   D(25,4,5,27)           65.379          estimate D2E/DX2                !
 ! D40   D(32,4,5,6)          -169.8615         estimate D2E/DX2                !
 ! D41   D(32,4,5,26)           68.8635         estimate D2E/DX2                !
 ! D42   D(32,4,5,27)          -50.5929         estimate D2E/DX2                !
 ! D43   D(3,4,32,33)           53.8189         estimate D2E/DX2                !
 ! D44   D(3,4,32,34)          174.0013         estimate D2E/DX2                !
 ! D45   D(3,4,32,35)          -67.4705         estimate D2E/DX2                !
 ! D46   D(5,4,32,33)          -69.9598         estimate D2E/DX2                !
 ! D47   D(5,4,32,34)           50.2225         estimate D2E/DX2                !
 ! D48   D(5,4,32,35)          168.7508         estimate D2E/DX2                !
 ! D49   D(25,4,32,33)         173.5538         estimate D2E/DX2                !
 ! D50   D(25,4,32,34)         -66.2639         estimate D2E/DX2                !
 ! D51   D(25,4,32,35)          52.2644         estimate D2E/DX2                !
 ! D52   D(4,5,6,28)           -45.3721         estimate D2E/DX2                !
 ! D53   D(26,5,6,28)           77.4608         estimate D2E/DX2                !
 ! D54   D(27,5,6,28)         -166.8061         estimate D2E/DX2                !
 ! D55   D(3,7,8,12)           176.3648         estimate D2E/DX2                !
 ! D56   D(3,7,8,29)           -63.5274         estimate D2E/DX2                !
 ! D57   D(3,7,8,30)            54.9214         estimate D2E/DX2                !
 ! D58   D(36,7,8,12)          -62.9413         estimate D2E/DX2                !
 ! D59   D(36,7,8,29)           57.1665         estimate D2E/DX2                !
 ! D60   D(36,7,8,30)          175.6153         estimate D2E/DX2                !
 ! D61   D(7,8,12,11)           67.89           estimate D2E/DX2                !
 ! D62   D(7,8,12,13)         -112.6163         estimate D2E/DX2                !
 ! D63   D(29,8,12,11)         -54.4374         estimate D2E/DX2                !
 ! D64   D(29,8,12,13)         125.0563         estimate D2E/DX2                !
 ! D65   D(30,8,12,11)        -169.9804         estimate D2E/DX2                !
 ! D66   D(30,8,12,13)           9.5133         estimate D2E/DX2                !
 ! D67   D(14,9,10,11)          -0.1962         estimate D2E/DX2                !
 ! D68   D(14,9,10,16)         179.9145         estimate D2E/DX2                !
 ! D69   D(15,9,10,11)         179.8462         estimate D2E/DX2                !
 ! D70   D(15,9,10,16)          -0.0431         estimate D2E/DX2                !
 ! D71   D(10,9,14,13)           0.1656         estimate D2E/DX2                !
 ! D72   D(10,9,14,17)        -179.8352         estimate D2E/DX2                !
 ! D73   D(15,9,14,13)        -179.8768         estimate D2E/DX2                !
 ! D74   D(15,9,14,17)           0.1224         estimate D2E/DX2                !
 ! D75   D(9,10,11,12)          -0.1471         estimate D2E/DX2                !
 ! D76   D(9,10,11,18)         179.9117         estimate D2E/DX2                !
 ! D77   D(16,10,11,12)        179.7434         estimate D2E/DX2                !
 ! D78   D(16,10,11,18)         -0.1978         estimate D2E/DX2                !
 ! D79   D(10,11,12,8)        -179.9823         estimate D2E/DX2                !
 ! D80   D(10,11,12,13)          0.5055         estimate D2E/DX2                !
 ! D81   D(18,11,12,8)          -0.0418         estimate D2E/DX2                !
 ! D82   D(18,11,12,13)       -179.554          estimate D2E/DX2                !
 ! D83   D(8,12,13,14)         179.9534         estimate D2E/DX2                !
 ! D84   D(8,12,13,19)          -0.8489         estimate D2E/DX2                !
 ! D85   D(11,12,13,14)         -0.5363         estimate D2E/DX2                !
 ! D86   D(11,12,13,19)        178.6614         estimate D2E/DX2                !
 ! D87   D(12,13,14,9)           0.2102         estimate D2E/DX2                !
 ! D88   D(12,13,14,17)       -179.789          estimate D2E/DX2                !
 ! D89   D(19,13,14,9)        -179.0006         estimate D2E/DX2                !
 ! D90   D(19,13,14,17)          1.0001         estimate D2E/DX2                !
 --------------------------------------------------------------------------------
 Trust Radius=3.00D-01 FncErr=1.00D-07 GrdErr=1.00D-06
 Number of steps in this run=     50 maximum allowed number of steps=    216.
 GradGradGradGradGradGradGradGradGradGradGradGradGradGradGradGradGradGrad

                          Input orientation:                          
 ---------------------------------------------------------------------
 Center     Atomic      Atomic             Coordinates (Angstroms)
 Number     Number       Type             X           Y           Z
 ---------------------------------------------------------------------
      1          6           0        0.070726   -1.553214    2.661797
      2          6           0       -0.864151   -0.383566    2.368462
      3          6           0       -0.337561    0.982116    2.872110
      4          6           0       -1.343950    2.162372    2.653095
      5          6           0       -0.875176    3.450431    3.362653
      6          8           0        0.322284    3.965501    2.799408
      7          7           0        1.016761    1.317448    2.375424
      8          6           0        1.159584    1.306301    0.910174
      9          6           0        5.130306    2.551343   -0.262316
     10          6           0        4.942001    1.344562    0.408692
     11          6           0        3.656629    0.952836    0.780917
     12          6           0        2.539162    1.743133    0.501472
     13          6           0        2.749582    2.943790   -0.177978
     14          6           0        4.028210    3.352204   -0.557595
     15          1           0        6.128816    2.866208   -0.554258
     16          1           0        5.786909    0.705496    0.646948
     17          1           0        4.152384    4.295100   -1.082134
     18          9           0        3.501509   -0.214259    1.424381
     19          9           0        1.709562    3.727595   -0.495283
     20          1           0        1.007435   -1.480504    2.102586
     21          1           0        0.307955   -1.605637    3.729139
     22          1           0       -0.409520   -2.494982    2.376611
     23          1           0       -1.081000   -0.344060    1.294824
     24          1           0       -1.811441   -0.614613    2.868086
     25          1           0       -1.416935    2.370913    1.578769
     26          1           0       -0.703931    3.271222    4.429754
     27          1           0       -1.632276    4.236645    3.275558
     28          1           0        0.918472    3.193659    2.687984
     29          1           0        0.990185    0.305522    0.497482
     30          1           0        0.418669    1.965862    0.447611
     31          1           0       -0.225703    0.880686    3.961045
     32          6           0       -2.756201    1.830325    3.152445
     33          1           0       -2.740829    1.500191    4.196482
     34          1           0       -3.411131    2.706093    3.084900
     35          1           0       -3.219673    1.046495    2.545820
     36          1           0        1.679109    0.632756    2.750375
 ---------------------------------------------------------------------
                    Distance matrix (angstroms):
                    1          2          3          4          5
     1  C    0.000000
     2  C    1.525817   0.000000
     3  C    2.576592   1.547917   0.000000
     4  C    3.975797   2.606343   1.566458   0.000000
     5  C    5.140272   3.960817   2.573372   1.543476   0.000000
     6  O    5.526159   4.528546   3.056349   2.459475   1.420018
     7  N    3.036065   2.536006   1.480990   2.522688   3.017228
     8  C    3.525709   3.012932   2.489123   3.168330   3.840859
     9  C    7.141231   7.174134   6.494973   7.111041   7.072098
    10  C    6.099419   6.366987   5.837257   6.724533   6.855663
    11  C    4.762006   4.974306   4.508603   5.474835   5.782785
    12  C    4.650385   4.426177   3.804551   4.459126   4.770632
    13  C    5.955135   5.533057   4.762526   5.038114   5.092310
    14  C    7.077379   6.815643   6.036568   6.370583   6.278629
    15  H    8.159335   8.246509   7.556708   8.162397   8.046081
    16  H    6.468086   6.956024   6.522039   7.549587   7.700201
    17  H    8.054795   7.678682   6.838970   6.979266   6.763576
    18  F    3.885135   4.469781   4.273838   5.535033   6.028451
    19  F    6.367094   5.632644   4.802885   4.656838   4.652028
    20  H    1.093356   2.185589   2.909584   4.370654   5.426427
    21  H    1.094644   2.172264   2.801367   4.252594   5.205568
    22  H    1.094940   2.159823   3.512963   4.758209   6.044588
    23  H    2.158041   1.096030   2.190725   2.862908   4.326250
    24  H    2.113310   1.095612   2.172989   2.824255   4.200687
    25  H    4.334150   2.918277   2.183240   1.096810   2.154322
    26  H    5.196244   4.199056   2.792935   2.189906   1.095511
    27  H    6.066250   4.770659   3.525765   2.184766   1.094951
    28  H    4.822050   4.009536   2.549989   2.486629   1.933464
    29  H    2.997426   2.722861   2.803488   3.680047   4.645345
    30  H    4.172239   3.294709   2.723570   2.830124   3.517876
    31  H    2.774849   2.131260   1.099354   2.145677   2.717256
    32  C    4.436281   3.015924   2.578346   1.534294   2.491422
    33  H    4.425311   3.226781   2.792501   2.184445   2.824778
    34  H    5.517612   4.067725   3.530469   2.180671   2.657490
    35  H    4.195076   2.761343   2.901238   2.185183   3.455834
    36  H    2.715365   2.765310   2.050324   3.389406   3.852084
                    6          7          8          9         10
     6  O    0.000000
     7  N    2.770243   0.000000
     8  C    3.367732   1.472236   0.000000
     9  C    5.872910   5.039982   4.323366   0.000000
    10  C    5.824657   4.390476   3.815708   1.393568   0.000000
    11  C    4.926288   3.105527   2.525248   2.411490   1.394339
    12  C    3.890241   2.451654   1.503694   2.819681   2.437438
    13  C    3.974984   3.488197   2.528545   2.414327   2.776403
    14  C    5.037806   4.670295   3.816946   1.393981   2.408184
    15  H    6.794949   6.092192   5.410281   1.086919   2.156666
    16  H    6.717354   5.110423   4.673584   2.159870   1.085836
    17  H    5.463028   5.536538   4.675368   2.160815   3.398784
    18  F    5.428496   3.069948   2.839212   3.625808   2.352990
    19  F    3.582754   3.811790   2.853147   3.624822   4.116391
    20  H    5.532989   2.811239   3.035009   6.232705   5.131382
    21  H    5.648202   3.298390   4.141403   7.514470   6.418989
    22  H    6.515530   4.070492   4.366037   7.944747   6.874124
    23  H    4.775489   2.885984   2.809246   7.027686   6.317691
    24  H    5.053211   3.460390   4.043553   8.246851   7.449561
    25  H    2.656606   2.768993   2.866857   6.803566   6.546644
    26  H    2.047723   3.316366   4.440838   7.521441   7.194269
    27  H    2.029912   4.043433   4.687904   7.815965   7.733316
    28  H    0.981629   1.904606   2.604009   5.182315   4.980273
    29  H    4.374974   2.133393   1.095705   4.770913   4.087094
    30  H    3.088494   2.120051   1.094505   4.800657   4.565968
    31  H    3.341523   2.061231   3.377570   7.022443   6.288049
    32  C    3.763068   3.886135   4.542659   8.624236   8.186969
    33  H    4.172796   4.179609   5.103982   9.107171   8.567231
    34  H    3.950443   4.694456   5.251694   9.175181   8.876411
    35  H    4.596777   4.248508   4.681958   8.937133   8.442102
    36  H    3.598690   1.023766   2.027291   4.966693   4.078800
                   11         12         13         14         15
    11  C    0.000000
    12  C    1.396922   0.000000
    13  C    2.388747   1.395531   0.000000
    14  C    2.772481   2.434748   1.394920   0.000000
    15  H    3.399322   3.906594   3.401004   2.156096   0.000000
    16  H    2.148771   3.412582   3.862100   3.398383   2.495691
    17  H    3.858427   3.409227   2.147415   1.086100   2.495329
    18  F    1.341722   2.368387   3.620252   4.114037   4.506332
    19  F    3.622022   2.370621   1.340401   2.349666   4.502807
    20  H    3.832255   3.911725   5.273559   6.289413   7.223660
    21  H    5.143094   5.158525   6.474905   7.536350   8.498665
    22  H    5.564823   5.492949   6.788674   7.905226   8.948865
    23  H    4.938742   4.253393   5.258561   6.572507   8.105947
    24  H    6.059122   5.485214   6.537864   7.846812   9.320742
    25  H    5.328092   4.147937   4.557874   5.930985   7.857066
    26  H    6.140310   5.318281   5.767596   6.875563   8.467045
    27  H    6.706650   5.595896   5.727047   6.893214   8.762428
    28  H    4.019415   3.084071   3.410152   4.497709   6.145490
    29  H    2.758491   2.113308   3.242250   4.430017   5.836848
    30  H    3.409061   2.132838   2.604008   3.995143   5.866868
    31  H    5.019056   4.511866   5.499112   6.679991   8.044263
    32  C    6.893368   5.922510   6.530327   7.880910   9.682780
    33  H    7.272768   6.449064   7.166902   8.476502  10.154119
    34  H    7.637767   6.558001   6.975475   8.308371  10.211743
    35  H    7.099802   6.150516   6.830140   8.214578  10.015792
    36  H    2.809235   2.651451   3.880985   4.884295   5.975684
                   16         17         18         19         20
    16  H    0.000000
    17  H    4.306583   0.000000
    18  F    2.583293   5.200055   0.000000
    19  F    5.202166   2.575623   4.736496   0.000000
    20  H    5.453517   7.306897   2.878149   5.862269   0.000000
    21  H    6.697774   8.529166   4.176916   6.946482   1.774994
    22  H    7.185438   8.881391   4.626509   7.173475   1.764091
    23  H    6.977785   7.386477   4.586177   5.250723   2.511084
    24  H    8.025650   8.676216   5.520145   6.524146   3.046608
    25  H    7.452333   6.465309   5.558601   3.989644   4.580979
    26  H    7.938739   7.417077   6.234306   5.503564   5.560880
    27  H    8.626871   7.242595   7.042240   5.064213   6.405445
    28  H    5.835963   5.087745   4.459000   3.323266   4.711518
    29  H    4.815691   5.330237   2.726914   3.635061   2.401363
    30  H    5.517813   4.658980   3.900117   2.378898   3.868207
    31  H    6.867709   7.500635   4.639577   5.631075   3.248033
    32  C    8.973711   8.469671   6.806281   6.070304   5.121401
    33  H    9.271087   9.120948   7.042064   6.839588   5.226703
    34  H    9.723679   8.780426   7.685725   6.331088   6.165733
    35  H    9.210891   8.835310   6.929748   6.382316   4.944757
    36  H    4.615595   5.849613   2.407662   4.484780   2.310118
                   21         22         23         24         25
    21  H    0.000000
    22  H    1.770604   0.000000
    23  H    3.073542   2.499523   0.000000
    24  H    2.493066   2.396397   1.755533   0.000000
    25  H    4.838624   5.032730   2.750374   3.275872   0.000000
    26  H    5.029764   6.127902   4.800024   4.331870   3.073605
    27  H    6.172722   6.900583   5.020963   4.871636   2.531091
    28  H    4.948735   5.849885   4.295840   4.689115   2.713189
    29  H    3.815963   3.651455   2.312470   3.783586   3.351007
    30  H    4.851421   4.930118   2.881409   4.182217   2.193861
    31  H    2.553502   3.733544   3.056186   2.438246   3.052057
    32  C    4.639770   4.981678   3.314363   2.636504   2.135960
    33  H    4.377175   4.970748   3.817841   2.664731   3.059947
    34  H    5.730415   6.046695   4.235247   3.692303   2.521427
    35  H    4.569268   4.524119   2.841224   2.201421   2.437034
    36  H    2.801508   3.779526   3.269709   3.708601   3.738895
                   26         27         28         29         30
    26  H    0.000000
    27  H    1.768060   0.000000
    28  H    2.381590   2.817690   0.000000
    29  H    5.208471   5.481673   3.625573   0.000000
    30  H    4.338394   4.166547   2.603183   1.756658   0.000000
    31  H    2.482550   3.702810   2.877441   3.715571   3.733235
    32  C    2.814163   2.658710   3.946850   4.838312   4.173044
    33  H    2.709229   3.092761   4.305100   5.387977   4.924765
    34  H    3.075213   2.354414   4.375011   5.641725   4.708567
    35  H    3.850659   3.637225   4.664201   4.740004   4.299448
    36  H    3.932009   4.922307   2.672206   2.378492   2.944249
                   31         32         33         34         35
    31  H    0.000000
    32  C    2.821182   0.000000
    33  H    2.600976   1.095097   0.000000
    34  H    3.774479   1.095657   1.771756   0.000000
    35  H    3.315752   1.094162   1.777587   1.755428   0.000000
    36  H    2.270573   4.611703   4.730700   5.506467   4.920476
                   36
    36  H    0.000000
 Stoichiometry    C13H19F2NO
 Framework group  C1[X(C13H19F2NO)]
 Deg. of freedom   102
 Full point group                 C1      NOp   1
 Largest Abelian subgroup         C1      NOp   1
 Largest concise Abelian subgroup C1      NOp   1
                         Standard orientation:                         
 ---------------------------------------------------------------------
 Center     Atomic      Atomic             Coordinates (Angstroms)
 Number     Number       Type             X           Y           Z
 ---------------------------------------------------------------------
      1          6           0       -2.019220    3.032777    0.222186
      2          6           0       -2.545382    1.670710    0.664956
      3          6           0       -2.155200    0.509522   -0.281324
      4          6           0       -2.777665   -0.868838    0.126661
      5          6           0       -2.545710   -1.942470   -0.957695
      6          8           0       -1.170525   -2.263740   -1.106370
      7          7           0       -0.697915    0.402754   -0.522681
      8          6           0        0.123329    0.272498    0.692257
      9          6           0        4.293688   -0.262098   -0.314620
     10          6           0        3.657964    0.950324   -0.575232
     11          6           0        2.312883    1.111536   -0.245157
     12          6           0        1.573441    0.082466    0.342748
     13          6           0        2.231658   -1.120464    0.602010
     14          6           0        3.576498   -1.300133    0.278088
     15          1           0        5.341242   -0.397921   -0.570699
     16          1           0        4.198963    1.771894   -1.034997
     17          1           0        4.053361   -2.252160    0.492236
     18          9           0        1.724160    2.288968   -0.504535
     19          9           0        1.576824   -2.131790    1.189450
     20          1           0       -0.928560    3.088620    0.274808
     21          1           0       -2.328164    3.256275   -0.803898
     22          1           0       -2.419790    3.816804    0.873138
     23          1           0       -2.217334    1.463201    1.689948
     24          1           0       -3.636799    1.759674    0.700443
     25          1           0       -2.302825   -1.211309    1.054148
     26          1           0       -2.927923   -1.609260   -1.928792
     27          1           0       -3.063820   -2.871542   -0.698260
     28          1           0       -0.695981   -1.404607   -1.123484
     29          1           0        0.046541    1.162614    1.326580
     30          1           0       -0.217699   -0.573800    1.296757
     31          1           0       -2.589687    0.757531   -1.260248
     32          6           0       -4.286206   -0.776797    0.391033
     33          1           0       -4.812057   -0.331443   -0.460071
     34          1           0       -4.713459   -1.769751    0.569815
     35          1           0       -4.499071   -0.180206    1.283197
     36          1           0       -0.386651    1.247234   -1.010600
 ---------------------------------------------------------------------
 Rotational constants (GHZ):      0.6959058      0.2977963      0.2303239
 Standard basis: 6-31G(d,p) (6D, 7F)
 There are   350 symmetry adapted cartesian basis functions of A   symmetry.
 There are   350 symmetry adapted basis functions of A   symmetry.
   350 basis functions,   609 primitive gaussians,   350 cartesian basis functions
    65 alpha electrons       65 beta electrons
       nuclear repulsion energy      1290.4729739990 Hartrees.
 NAtoms=   36 NActive=   36 NUniq=   36 SFac= 1.00D+00 NAtFMM=   60 NAOKFM=F Big=F
 Integral buffers will be    131072 words long.
 Raffenetti 2 integral format.
 Two-electron integral symmetry is turned on.
 ------------------------------------------------------------------------------
 Polarizable Continuum Model (PCM)
 =================================
 Model                : PCM (using non-symmetric T matrix).
 Atomic radii         : UFF (Universal Force Field).
 Polarization charges : Total charges.
 Charge compensation  : None.
 Solution method      : On-the-fly selection.
 Cavity type          : Scaled VdW (van der Waals Surface) (Alpha=1.100).
 Cavity algorithm     : GePol (No added spheres)
                        Default sphere list used, NSphG=   36.
                        Lebedev-Laikov grids with approx.  5.0 points / Ang**2.
                        Smoothing algorithm: Karplus/York (Gamma=1.0000).
                        Polarization charges: spherical gaussians, with
                                              point-specific exponents (IZeta= 3).
                        Self-potential: point-specific (ISelfS= 7).
                        Self-field    : sphere-specific E.n sum rule (ISelfD= 2).
 1st derivatives      : Analytical E(r).r(x)/FMM algorithm (CHGder, D1EAlg=3).
                        Cavity 1st derivative terms included.
 Solvent              : Chloroform, Eps=   4.711300 Eps(inf)=   2.090627
 ------------------------------------------------------------------------------
 One-electron integrals computed using PRISM.
 NBasis=   350 RedAO= T EigKep=  4.06D-04  NBF=   350
 NBsUse=   350 1.00D-06 EigRej= -1.00D+00 NBFU=   350
 ExpMin= 1.61D-01 ExpMax= 7.00D+03 ExpMxC= 1.05D+03 IAcc=1 IRadAn=         1 AccDes= 0.00D+00
 Harris functional with IExCor=  402 and IRadAn=       1 diagonalized for initial guess.
 HarFok:  IExCor=  402 AccDes= 0.00D+00 IRadAn=         1 IDoV= 1 UseB2=F ITyADJ=14
 ICtDFT=  3500011 ScaDFX=  1.000000  1.000000  1.000000  1.000000
 FoFCou: FMM=F IPFlag=           0 FMFlag=      100000 FMFlg1=           0
         NFxFlg=           0 DoJE=T BraDBF=F KetDBF=T FulRan=T
         wScrn=  0.000000 ICntrl=     500 IOpCl=  0 I1Cent=   200000004 NGrid=           0
         NMat0=    1 NMatS0=      1 NMatT0=    0 NMatD0=    1 NMtDS0=    0 NMtDT0=    0
 Petite list used in FoFCou.
 Requested convergence on RMS density matrix=1.00D-08 within 128 cycles.
 Requested convergence on MAX density matrix=1.00D-06.
 Requested convergence on             energy=1.00D-06.
 No special actions if energy rises.
 Inv3:  Mode=1 IEnd=    18228675.
 Iteration    1 A*A^-1 deviation from unit magnitude is 7.33D-15 for   2305.
 Iteration    1 A*A^-1 deviation from orthogonality  is 6.70D-15 for   1470    552.
 Iteration    1 A^-1*A deviation from unit magnitude is 7.66D-15 for    293.
 Iteration    1 A^-1*A deviation from orthogonality  is 3.87D-12 for   1858   1638.
 Error on total polarization charges =  0.00789
 SCF Done:  E(RB3LYP) =  -836.495918076     A.U. after   12 cycles
            NFock= 12  Conv=0.57D-08     -V/T= 2.0089

 **********************************************************************

            Population analysis using the SCF density.

 **********************************************************************

 Orbital symmetries:
       Occupied  (A) (A) (A) (A) (A) (A) (A) (A) (A) (A) (A) (A)
                 (A) (A) (A) (A) (A) (A) (A) (A) (A) (A) (A) (A)
                 (A) (A) (A) (A) (A) (A) (A) (A) (A) (A) (A) (A)
                 (A) (A) (A) (A) (A) (A) (A) (A) (A) (A) (A) (A)
                 (A) (A) (A) (A) (A) (A) (A) (A) (A) (A) (A) (A)
                 (A) (A) (A) (A) (A)
       Virtual   (A) (A) (A) (A) (A) (A) (A) (A) (A) (A) (A) (A)
                 (A) (A) (A) (A) (A) (A) (A) (A) (A) (A) (A) (A)
                 (A) (A) (A) (A) (A) (A) (A) (A) (A) (A) (A) (A)
                 (A) (A) (A) (A) (A) (A) (A) (A) (A) (A) (A) (A)
                 (A) (A) (A) (A) (A) (A) (A) (A) (A) (A) (A) (A)
                 (A) (A) (A) (A) (A) (A) (A) (A) (A) (A) (A) (A)
                 (A) (A) (A) (A) (A) (A) (A) (A) (A) (A) (A) (A)
                 (A) (A) (A) (A) (A) (A) (A) (A) (A) (A) (A) (A)
                 (A) (A) (A) (A) (A) (A) (A) (A) (A) (A) (A) (A)
                 (A) (A) (A) (A) (A) (A) (A) (A) (A) (A) (A) (A)
                 (A) (A) (A) (A) (A) (A) (A) (A) (A) (A) (A) (A)
                 (A) (A) (A) (A) (A) (A) (A) (A) (A) (A) (A) (A)
                 (A) (A) (A) (A) (A) (A) (A) (A) (A) (A) (A) (A)
                 (A) (A) (A) (A) (A) (A) (A) (A) (A) (A) (A) (A)
                 (A) (A) (A) (A) (A) (A) (A) (A) (A) (A) (A) (A)
                 (A) (A) (A) (A) (A) (A) (A) (A) (A) (A) (A) (A)
                 (A) (A) (A) (A) (A) (A) (A) (A) (A) (A) (A) (A)
                 (A) (A) (A) (A) (A) (A) (A) (A) (A) (A) (A) (A)
                 (A) (A) (A) (A) (A) (A) (A) (A) (A) (A) (A) (A)
                 (A) (A) (A) (A) (A) (A) (A) (A) (A) (A) (A) (A)
                 (A) (A) (A) (A) (A) (A) (A) (A) (A) (A) (A) (A)
                 (A) (A) (A) (A) (A) (A) (A) (A) (A) (A) (A) (A)
                 (A) (A) (A) (A) (A) (A) (A) (A) (A) (A) (A) (A)
                 (A) (A) (A) (A) (A) (A) (A) (A) (A)
 The electronic state is 1-A.
 Alpha  occ. eigenvalues --  -24.72683 -24.71814 -19.10959 -14.33550 -10.28432
 Alpha  occ. eigenvalues --  -10.28303 -10.22174 -10.21757 -10.21426 -10.21124
 Alpha  occ. eigenvalues --  -10.20800 -10.20063 -10.19950 -10.18648 -10.18001
 Alpha  occ. eigenvalues --  -10.17575 -10.17416  -1.23964  -1.23184  -0.98754
 Alpha  occ. eigenvalues --   -0.91780  -0.87115  -0.80210  -0.77379  -0.75734
 Alpha  occ. eigenvalues --   -0.75503  -0.69575  -0.65958  -0.65580  -0.63182
 Alpha  occ. eigenvalues --   -0.61597  -0.59778  -0.56484  -0.55390  -0.53335
 Alpha  occ. eigenvalues --   -0.50836  -0.49475  -0.49177  -0.48223  -0.47970
 Alpha  occ. eigenvalues --   -0.46682  -0.46325  -0.44825  -0.44508  -0.43752
 Alpha  occ. eigenvalues --   -0.42270  -0.41481  -0.40864  -0.40235  -0.39173
 Alpha  occ. eigenvalues --   -0.38465  -0.37846  -0.37299  -0.36775  -0.35582
 Alpha  occ. eigenvalues --   -0.35299  -0.34906  -0.33907  -0.33315  -0.31635
 Alpha  occ. eigenvalues --   -0.30721  -0.25732  -0.24879  -0.24277  -0.23340
 Alpha virt. eigenvalues --   -0.01545  -0.00413   0.06732   0.08943   0.09666
 Alpha virt. eigenvalues --    0.10222   0.11969   0.13010   0.13468   0.14448
 Alpha virt. eigenvalues --    0.14683   0.15214   0.15786   0.15973   0.16469
 Alpha virt. eigenvalues --    0.17660   0.18068   0.18344   0.18945   0.19778
 Alpha virt. eigenvalues --    0.19924   0.20650   0.21396   0.21565   0.23019
 Alpha virt. eigenvalues --    0.23424   0.24589   0.25671   0.26687   0.26925
 Alpha virt. eigenvalues --    0.27945   0.28910   0.29712   0.30578   0.31858
 Alpha virt. eigenvalues --    0.37224   0.38335   0.46275   0.49033   0.49646
 Alpha virt. eigenvalues --    0.49834   0.50932   0.51382   0.52097   0.53516
 Alpha virt. eigenvalues --    0.53919   0.54391   0.56171   0.56992   0.57580
 Alpha virt. eigenvalues --    0.58047   0.59448   0.59561   0.60002   0.61345
 Alpha virt. eigenvalues --    0.62237   0.62459   0.64159   0.64473   0.65992
 Alpha virt. eigenvalues --    0.66554   0.66844   0.67775   0.69355   0.71968
 Alpha virt. eigenvalues --    0.72787   0.74905   0.77017   0.78064   0.78809
 Alpha virt. eigenvalues --    0.79143   0.81055   0.81168   0.81811   0.82995
 Alpha virt. eigenvalues --    0.83877   0.85638   0.86040   0.86455   0.87304
 Alpha virt. eigenvalues --    0.87438   0.88161   0.88838   0.89559   0.89768
 Alpha virt. eigenvalues --    0.90066   0.90831   0.92348   0.94305   0.94501
 Alpha virt. eigenvalues --    0.95016   0.95812   0.96056   0.97349   0.98591
 Alpha virt. eigenvalues --    1.02124   1.03028   1.03140   1.04339   1.06285
 Alpha virt. eigenvalues --    1.08922   1.10510   1.11985   1.12860   1.17985
 Alpha virt. eigenvalues --    1.21209   1.21292   1.22034   1.22592   1.24072
 Alpha virt. eigenvalues --    1.25518   1.27390   1.28322   1.28578   1.32815
 Alpha virt. eigenvalues --    1.35314   1.35765   1.37447   1.38709   1.39287
 Alpha virt. eigenvalues --    1.40899   1.42665   1.42922   1.43838   1.44140
 Alpha virt. eigenvalues --    1.45342   1.49510   1.50266   1.52335   1.52579
 Alpha virt. eigenvalues --    1.56008   1.59601   1.60396   1.62593   1.67116
 Alpha virt. eigenvalues --    1.67525   1.68848   1.72403   1.73277   1.74892
 Alpha virt. eigenvalues --    1.75299   1.77252   1.77512   1.79318   1.80028
 Alpha virt. eigenvalues --    1.81574   1.82362   1.82970   1.84336   1.85030
 Alpha virt. eigenvalues --    1.86123   1.87845   1.88736   1.89115   1.89392
 Alpha virt. eigenvalues --    1.89917   1.90446   1.91405   1.93369   1.94142
 Alpha virt. eigenvalues --    1.96590   1.97372   1.98386   1.98779   1.99873
 Alpha virt. eigenvalues --    2.01085   2.02936   2.04598   2.05288   2.05707
 Alpha virt. eigenvalues --    2.06187   2.07437   2.08477   2.10075   2.11757
 Alpha virt. eigenvalues --    2.12083   2.13973   2.15181   2.16283   2.17535
 Alpha virt. eigenvalues --    2.17658   2.19981   2.21715   2.23586   2.25418
 Alpha virt. eigenvalues --    2.26236   2.27333   2.29654   2.29978   2.30585
 Alpha virt. eigenvalues --    2.30942   2.31755   2.32416   2.35167   2.35659
 Alpha virt. eigenvalues --    2.36668   2.37751   2.38291   2.39231   2.40392
 Alpha virt. eigenvalues --    2.40598   2.42354   2.46661   2.47511   2.48250
 Alpha virt. eigenvalues --    2.49662   2.51478   2.51988   2.52741   2.54736
 Alpha virt. eigenvalues --    2.55267   2.57648   2.58567   2.60881   2.61534
 Alpha virt. eigenvalues --    2.63131   2.65049   2.66706   2.67542   2.69523
 Alpha virt. eigenvalues --    2.72197   2.73314   2.74070   2.74714   2.75624
 Alpha virt. eigenvalues --    2.76429   2.77709   2.78286   2.82130   2.82609
 Alpha virt. eigenvalues --    2.83823   2.84553   2.86211   2.88999   2.90072
 Alpha virt. eigenvalues --    2.90336   2.91766   2.92976   2.93959   2.96138
 Alpha virt. eigenvalues --    2.99827   3.01386   3.04511   3.05050   3.06358
 Alpha virt. eigenvalues --    3.10769   3.14442   3.19897   3.20823   3.21476
 Alpha virt. eigenvalues --    3.25584   3.27349   3.31025   3.32257   3.33667
 Alpha virt. eigenvalues --    3.35454   3.37430   3.39777   3.42547   3.43510
 Alpha virt. eigenvalues --    3.46643   3.48189   3.49227   3.52465   3.55174
 Alpha virt. eigenvalues --    3.56994   3.62752   3.80267   3.99410   4.10179
 Alpha virt. eigenvalues --    4.10515   4.14361   4.18525   4.35683   4.38625
 Alpha virt. eigenvalues --    4.42112   4.46741   4.53351   4.55962   4.59572
 Alpha virt. eigenvalues --    4.64994   4.74844   4.79469   5.51751   5.59509
          Condensed to atoms (all electrons):
               1          2          3          4          5          6
     1  C    4.961714   0.353890  -0.038022   0.004412  -0.000109   0.000002
     2  C    0.353890   4.995585   0.362675  -0.050712   0.003791  -0.000128
     3  C   -0.038022   0.362675   4.856876   0.370931  -0.030050  -0.005895
     4  C    0.004412  -0.050712   0.370931   5.008119   0.360502  -0.037019
     5  C   -0.000109   0.003791  -0.030050   0.360502   4.710948   0.259442
     6  O    0.000002  -0.000128  -0.005895  -0.037019   0.259442   8.214220
     7  N   -0.000306  -0.064587   0.274775  -0.049752   0.003090  -0.029616
     8  C   -0.002648  -0.007566  -0.043118  -0.005563  -0.000624   0.003727
     9  C    0.000000   0.000000   0.000000   0.000000   0.000000   0.000000
    10  C   -0.000003   0.000000   0.000005   0.000000   0.000000   0.000001
    11  C   -0.000016  -0.000031   0.000222  -0.000006   0.000004  -0.000005
    12  C    0.000046   0.000333   0.005049  -0.000117   0.000066  -0.001165
    13  C   -0.000002   0.000000  -0.000071   0.000016  -0.000042   0.000825
    14  C    0.000000   0.000000   0.000003   0.000000   0.000000   0.000020
    15  H    0.000000   0.000000   0.000000   0.000000   0.000000   0.000000
    16  H    0.000000   0.000000   0.000000   0.000000   0.000000   0.000000
    17  H    0.000000   0.000000   0.000000   0.000000   0.000000   0.000000
    18  F   -0.001036   0.000014  -0.000002  -0.000001   0.000000   0.000000
    19  F    0.000000   0.000000   0.000006  -0.000014   0.000008  -0.000101
    20  H    0.376654  -0.035343  -0.005237  -0.000040  -0.000001   0.000000
    21  H    0.385434  -0.036773  -0.004436   0.000091   0.000000   0.000000
    22  H    0.380630  -0.027223   0.003911  -0.000115   0.000001   0.000000
    23  H   -0.041178   0.382139  -0.036239  -0.003327   0.000038  -0.000007
    24  H   -0.039081   0.373565  -0.025752  -0.005624   0.000067   0.000003
    25  H   -0.000069  -0.005048  -0.048049   0.374876  -0.042088   0.003037
    26  H   -0.000006   0.000107  -0.014601  -0.046557   0.361730  -0.044117
    27  H    0.000002  -0.000165   0.004797  -0.032217   0.379840  -0.038622
    28  H   -0.000009   0.000867  -0.000057  -0.009743  -0.035459   0.277903
    29  H    0.000170   0.007254  -0.006338  -0.000597   0.000018  -0.000046
    30  H    0.000193  -0.002157  -0.002481   0.003506  -0.000268   0.002318
    31  H   -0.005689  -0.052655   0.380395  -0.040360  -0.007411  -0.000062
    32  C    0.000270  -0.004110  -0.041488   0.332810  -0.042052   0.003411
    33  H   -0.000067  -0.001641  -0.006614  -0.035407  -0.004881  -0.000010
    34  H   -0.000003   0.000217   0.004372  -0.031070  -0.005999   0.000059
    35  H   -0.000064   0.001281  -0.004924  -0.022189   0.003810  -0.000079
    36  H    0.004565  -0.004946  -0.030078   0.005110  -0.000089   0.000580
               7          8          9         10         11         12
     1  C   -0.000306  -0.002648   0.000000  -0.000003  -0.000016   0.000046
     2  C   -0.064587  -0.007566   0.000000   0.000000  -0.000031   0.000333
     3  C    0.274775  -0.043118   0.000000   0.000005   0.000222   0.005049
     4  C   -0.049752  -0.005563   0.000000   0.000000  -0.000006  -0.000117
     5  C    0.003090  -0.000624   0.000000   0.000000   0.000004   0.000066
     6  O   -0.029616   0.003727   0.000000   0.000001  -0.000005  -0.001165
     7  N    6.955462   0.248615   0.000027  -0.000185  -0.005557  -0.037809
     8  C    0.248615   4.980197  -0.000584   0.008554  -0.054722   0.304654
     9  C    0.000027  -0.000584   4.850681   0.489845  -0.010358  -0.028146
    10  C   -0.000185   0.008554   0.489845   5.037420   0.483645  -0.072593
    11  C   -0.005557  -0.054722  -0.010358   0.483645   4.625306   0.387185
    12  C   -0.037809   0.304654  -0.028146  -0.072593   0.387185   5.285973
    13  C    0.001423  -0.045849  -0.007857  -0.049690   0.021759   0.421835
    14  C   -0.000169   0.008647   0.485397  -0.031053  -0.049447  -0.067320
    15  H    0.000000   0.000003   0.375788  -0.035102   0.003755   0.000168
    16  H    0.000002  -0.000156  -0.036790   0.359106  -0.032909   0.006424
    17  H    0.000001  -0.000144  -0.037366   0.004727   0.000469   0.006399
    18  F   -0.003876   0.004189   0.002898  -0.045924   0.300916  -0.057102
    19  F   -0.000044  -0.006846   0.003081  -0.000048   0.002650  -0.049132
    20  H    0.002882   0.001479  -0.000001   0.000027   0.000344  -0.000756
    21  H   -0.001050   0.000186   0.000000   0.000000  -0.000008   0.000010
    22  H    0.000264   0.000015   0.000000   0.000000   0.000001   0.000001
    23  H   -0.005955   0.003564   0.000000   0.000000  -0.000005   0.000074
    24  H    0.004696   0.000081   0.000000   0.000000   0.000000  -0.000005
    25  H   -0.004231   0.001435   0.000000   0.000000  -0.000014  -0.000204
    26  H    0.000897   0.000108   0.000000   0.000000  -0.000001  -0.000016
    27  H   -0.000243  -0.000027   0.000000   0.000000   0.000000   0.000003
    28  H    0.060542  -0.008086  -0.000004  -0.000013  -0.000019   0.000905
    29  H   -0.044857   0.359594   0.000015  -0.000160  -0.009223  -0.031332
    30  H   -0.039171   0.380525  -0.000046  -0.000151   0.004676  -0.034167
    31  H   -0.043833   0.006133   0.000000   0.000000  -0.000022  -0.000221
    32  C    0.003603   0.000021   0.000000   0.000000   0.000000  -0.000003
    33  H    0.000038   0.000005   0.000000   0.000000   0.000000   0.000000
    34  H   -0.000080  -0.000001   0.000000   0.000000   0.000000   0.000000
    35  H   -0.000063   0.000008   0.000000   0.000000   0.000000   0.000000
    36  H    0.332719  -0.034236  -0.000019  -0.000006   0.003505  -0.010502
              13         14         15         16         17         18
     1  C   -0.000002   0.000000   0.000000   0.000000   0.000000  -0.001036
     2  C    0.000000   0.000000   0.000000   0.000000   0.000000   0.000014
     3  C   -0.000071   0.000003   0.000000   0.000000   0.000000  -0.000002
     4  C    0.000016   0.000000   0.000000   0.000000   0.000000  -0.000001
     5  C   -0.000042   0.000000   0.000000   0.000000   0.000000   0.000000
     6  O    0.000825   0.000020   0.000000   0.000000   0.000000   0.000000
     7  N    0.001423  -0.000169   0.000000   0.000002   0.000001  -0.003876
     8  C   -0.045849   0.008647   0.000003  -0.000156  -0.000144   0.004189
     9  C   -0.007857   0.485397   0.375788  -0.036790  -0.037366   0.002898
    10  C   -0.049690  -0.031053  -0.035102   0.359106   0.004727  -0.045924
    11  C    0.021759  -0.049447   0.003755  -0.032909   0.000469   0.300916
    12  C    0.421835  -0.067320   0.000168   0.006424   0.006399  -0.057102
    13  C    4.587730   0.468041   0.003726   0.000495  -0.032254   0.002348
    14  C    0.468041   5.051201  -0.034385   0.004649   0.359644  -0.000059
    15  H    0.003726  -0.034385   0.578873  -0.005957  -0.005903  -0.000022
    16  H    0.000495   0.004649  -0.005957   0.591782  -0.000150  -0.000375
    17  H   -0.032254   0.359644  -0.005903  -0.000150   0.590402   0.000001
    18  F    0.002348  -0.000059  -0.000022  -0.000375   0.000001   9.069084
    19  F    0.303659  -0.045967  -0.000023   0.000001  -0.000571   0.000000
    20  H   -0.000006   0.000000   0.000000   0.000000   0.000000   0.004823
    21  H    0.000000   0.000000   0.000000   0.000000   0.000000  -0.000001
    22  H    0.000000   0.000000   0.000000   0.000000   0.000000   0.000002
    23  H   -0.000001   0.000000   0.000000   0.000000   0.000000  -0.000001
    24  H    0.000000   0.000000   0.000000   0.000000   0.000000   0.000000
    25  H    0.000048   0.000000   0.000000   0.000000   0.000000   0.000000
    26  H    0.000004   0.000000   0.000000   0.000000   0.000000   0.000000
    27  H   -0.000002   0.000000   0.000000   0.000000   0.000000   0.000000
    28  H    0.000946  -0.000073   0.000000   0.000000   0.000001  -0.000002
    29  H    0.003300  -0.000282   0.000000   0.000001   0.000003   0.001389
    30  H   -0.005169   0.000720   0.000000   0.000002  -0.000007   0.000131
    31  H    0.000000   0.000000   0.000000   0.000000   0.000000  -0.000001
    32  C    0.000000   0.000000   0.000000   0.000000   0.000000   0.000000
    33  H    0.000000   0.000000   0.000000   0.000000   0.000000   0.000000
    34  H    0.000000   0.000000   0.000000   0.000000   0.000000   0.000000
    35  H    0.000000   0.000000   0.000000   0.000000   0.000000   0.000000
    36  H   -0.000155   0.000019   0.000000   0.000004   0.000000   0.011641
              19         20         21         22         23         24
     1  C    0.000000   0.376654   0.385434   0.380630  -0.041178  -0.039081
     2  C    0.000000  -0.035343  -0.036773  -0.027223   0.382139   0.373565
     3  C    0.000006  -0.005237  -0.004436   0.003911  -0.036239  -0.025752
     4  C   -0.000014  -0.000040   0.000091  -0.000115  -0.003327  -0.005624
     5  C    0.000008  -0.000001   0.000000   0.000001   0.000038   0.000067
     6  O   -0.000101   0.000000   0.000000   0.000000  -0.000007   0.000003
     7  N   -0.000044   0.002882  -0.001050   0.000264  -0.005955   0.004696
     8  C   -0.006846   0.001479   0.000186   0.000015   0.003564   0.000081
     9  C    0.003081  -0.000001   0.000000   0.000000   0.000000   0.000000
    10  C   -0.000048   0.000027   0.000000   0.000000   0.000000   0.000000
    11  C    0.002650   0.000344  -0.000008   0.000001  -0.000005   0.000000
    12  C   -0.049132  -0.000756   0.000010   0.000001   0.000074  -0.000005
    13  C    0.303659  -0.000006   0.000000   0.000000  -0.000001   0.000000
    14  C   -0.045967   0.000000   0.000000   0.000000   0.000000   0.000000
    15  H   -0.000023   0.000000   0.000000   0.000000   0.000000   0.000000
    16  H    0.000001   0.000000   0.000000   0.000000   0.000000   0.000000
    17  H   -0.000571   0.000000   0.000000   0.000000   0.000000   0.000000
    18  F    0.000000   0.004823  -0.000001   0.000002  -0.000001   0.000000
    19  F    9.066665   0.000000   0.000000   0.000000   0.000000   0.000000
    20  H    0.000000   0.609180  -0.033180  -0.028933  -0.006046   0.005765
    21  H    0.000000  -0.033180   0.604889  -0.030297   0.005621  -0.004511
    22  H    0.000000  -0.028933  -0.030297   0.599351  -0.002280  -0.004447
    23  H    0.000000  -0.006046   0.005621  -0.002280   0.630350  -0.036307
    24  H    0.000000   0.005765  -0.004511  -0.004447  -0.036307   0.625573
    25  H   -0.000059  -0.000002   0.000007   0.000002   0.003618  -0.000029
    26  H    0.000000   0.000000  -0.000001   0.000000   0.000003  -0.000011
    27  H    0.000000   0.000000   0.000000   0.000000   0.000002   0.000002
    28  H    0.000530  -0.000006  -0.000002   0.000000  -0.000010  -0.000025
    29  H    0.000223   0.000876  -0.000073  -0.000169   0.000022  -0.000218
    30  H    0.012005   0.000047  -0.000006   0.000000   0.000182   0.000018
    31  H    0.000000  -0.000239   0.005530  -0.000004   0.006152  -0.003694
    32  C    0.000000   0.000001  -0.000031   0.000001  -0.001344   0.001973
    33  H    0.000000   0.000000   0.000012   0.000001   0.000165   0.001246
    34  H    0.000000   0.000000   0.000000   0.000000  -0.000044   0.000031
    35  H    0.000000  -0.000002   0.000013   0.000008   0.001171   0.001231
    36  H   -0.000010   0.002278   0.000664  -0.000162  -0.000001  -0.000024
              25         26         27         28         29         30
     1  C   -0.000069  -0.000006   0.000002  -0.000009   0.000170   0.000193
     2  C   -0.005048   0.000107  -0.000165   0.000867   0.007254  -0.002157
     3  C   -0.048049  -0.014601   0.004797  -0.000057  -0.006338  -0.002481
     4  C    0.374876  -0.046557  -0.032217  -0.009743  -0.000597   0.003506
     5  C   -0.042088   0.361730   0.379840  -0.035459   0.000018  -0.000268
     6  O    0.003037  -0.044117  -0.038622   0.277903  -0.000046   0.002318
     7  N   -0.004231   0.000897  -0.000243   0.060542  -0.044857  -0.039171
     8  C    0.001435   0.000108  -0.000027  -0.008086   0.359594   0.380525
     9  C    0.000000   0.000000   0.000000  -0.000004   0.000015  -0.000046
    10  C    0.000000   0.000000   0.000000  -0.000013  -0.000160  -0.000151
    11  C   -0.000014  -0.000001   0.000000  -0.000019  -0.009223   0.004676
    12  C   -0.000204  -0.000016   0.000003   0.000905  -0.031332  -0.034167
    13  C    0.000048   0.000004  -0.000002   0.000946   0.003300  -0.005169
    14  C    0.000000   0.000000   0.000000  -0.000073  -0.000282   0.000720
    15  H    0.000000   0.000000   0.000000   0.000000   0.000000   0.000000
    16  H    0.000000   0.000000   0.000000   0.000000   0.000001   0.000002
    17  H    0.000000   0.000000   0.000000   0.000001   0.000003  -0.000007
    18  F    0.000000   0.000000   0.000000  -0.000002   0.001389   0.000131
    19  F   -0.000059   0.000000   0.000000   0.000530   0.000223   0.012005
    20  H   -0.000002   0.000000   0.000000  -0.000006   0.000876   0.000047
    21  H    0.000007  -0.000001   0.000000  -0.000002  -0.000073  -0.000006
    22  H    0.000002   0.000000   0.000000   0.000000  -0.000169   0.000000
    23  H    0.003618   0.000003   0.000002  -0.000010   0.000022   0.000182
    24  H   -0.000029  -0.000011   0.000002  -0.000025  -0.000218   0.000018
    25  H    0.649104   0.007138  -0.006069  -0.000902   0.000263   0.003190
    26  H    0.007138   0.709246  -0.053467  -0.003120   0.000007   0.000017
    27  H   -0.006069  -0.053467   0.650159   0.005783  -0.000002   0.000023
    28  H   -0.000902  -0.003120   0.005783   0.386821   0.000958  -0.002358
    29  H    0.000263   0.000007  -0.000002   0.000958   0.650454  -0.041304
    30  H    0.003190   0.000017   0.000023  -0.002358  -0.041304   0.581701
    31  H    0.006531   0.006519  -0.000004  -0.000808  -0.000089   0.000043
    32  C   -0.036286   0.001461  -0.005595  -0.000027   0.000016  -0.000107
    33  H    0.005808   0.004012  -0.000380   0.000003   0.000001   0.000002
    34  H   -0.003125  -0.000376   0.005879  -0.000005   0.000000   0.000013
    35  H   -0.005184  -0.000224  -0.000056   0.000004  -0.000009  -0.000004
    36  H   -0.000106  -0.000064   0.000012  -0.000952  -0.006644   0.005849
              31         32         33         34         35         36
     1  C   -0.005689   0.000270  -0.000067  -0.000003  -0.000064   0.004565
     2  C   -0.052655  -0.004110  -0.001641   0.000217   0.001281  -0.004946
     3  C    0.380395  -0.041488  -0.006614   0.004372  -0.004924  -0.030078
     4  C   -0.040360   0.332810  -0.035407  -0.031070  -0.022189   0.005110
     5  C   -0.007411  -0.042052  -0.004881  -0.005999   0.003810  -0.000089
     6  O   -0.000062   0.003411  -0.000010   0.000059  -0.000079   0.000580
     7  N   -0.043833   0.003603   0.000038  -0.000080  -0.000063   0.332719
     8  C    0.006133   0.000021   0.000005  -0.000001   0.000008  -0.034236
     9  C    0.000000   0.000000   0.000000   0.000000   0.000000  -0.000019
    10  C    0.000000   0.000000   0.000000   0.000000   0.000000  -0.000006
    11  C   -0.000022   0.000000   0.000000   0.000000   0.000000   0.003505
    12  C   -0.000221  -0.000003   0.000000   0.000000   0.000000  -0.010502
    13  C    0.000000   0.000000   0.000000   0.000000   0.000000  -0.000155
    14  C    0.000000   0.000000   0.000000   0.000000   0.000000   0.000019
    15  H    0.000000   0.000000   0.000000   0.000000   0.000000   0.000000
    16  H    0.000000   0.000000   0.000000   0.000000   0.000000   0.000004
    17  H    0.000000   0.000000   0.000000   0.000000   0.000000   0.000000
    18  F   -0.000001   0.000000   0.000000   0.000000   0.000000   0.011641
    19  F    0.000000   0.000000   0.000000   0.000000   0.000000  -0.000010
    20  H   -0.000239   0.000001   0.000000   0.000000  -0.000002   0.002278
    21  H    0.005530  -0.000031   0.000012   0.000000   0.000013   0.000664
    22  H   -0.000004   0.000001   0.000001   0.000000   0.000008  -0.000162
    23  H    0.006152  -0.001344   0.000165  -0.000044   0.001171  -0.000001
    24  H   -0.003694   0.001973   0.001246   0.000031   0.001231  -0.000024
    25  H    0.006531  -0.036286   0.005808  -0.003125  -0.005184  -0.000106
    26  H    0.006519   0.001461   0.004012  -0.000376  -0.000224  -0.000064
    27  H   -0.000004  -0.005595  -0.000380   0.005879  -0.000056   0.000012
    28  H   -0.000808  -0.000027   0.000003  -0.000005   0.000004  -0.000952
    29  H   -0.000089   0.000016   0.000001   0.000000  -0.000009  -0.006644
    30  H    0.000043  -0.000107   0.000002   0.000013  -0.000004   0.005849
    31  H    0.656594  -0.004968   0.005437  -0.000118  -0.000034  -0.006489
    32  C   -0.004968   4.983631   0.382889   0.380731   0.374859  -0.000102
    33  H    0.005437   0.382889   0.606883  -0.031933  -0.031985  -0.000005
    34  H   -0.000118   0.380731  -0.031933   0.606768  -0.030594   0.000003
    35  H   -0.000034   0.374859  -0.031985  -0.030594   0.603185  -0.000001
    36  H   -0.006489  -0.000102  -0.000005   0.000003  -0.000001   0.465813
 Mulliken charges:
               1
     1  C   -0.339677
     2  C   -0.188633
     3  C    0.079436
     4  C   -0.089945
     5  C    0.085717
     6  O   -0.608675
     7  N   -0.557650
     8  C   -0.101571
     9  C   -0.086561
    10  C   -0.148403
    11  C    0.327907
    12  C   -0.028536
    13  C    0.324943
    14  C   -0.149586
    15  H    0.119078
    16  H    0.113873
    17  H    0.114747
    18  F   -0.289034
    19  F   -0.286014
    20  H    0.105435
    21  H    0.107913
    22  H    0.109444
    23  H    0.099647
    24  H    0.105476
    25  H    0.096410
    26  H    0.071310
    27  H    0.090347
    28  H    0.326416
    29  H    0.116779
    30  H    0.132237
    31  H    0.093365
    32  C   -0.329564
    33  H    0.106421
    34  H    0.105276
    35  H    0.109842
    36  H    0.261829
 Sum of Mulliken charges =   0.00000
 Mulliken charges with hydrogens summed into heavy atoms:
               1
     1  C   -0.016885
     2  C    0.016490
     3  C    0.172801
     4  C    0.006465
     5  C    0.247374
     6  O   -0.282259
     7  N   -0.295821
     8  C    0.147445
     9  C    0.032517
    10  C   -0.034530
    11  C    0.327907
    12  C   -0.028536
    13  C    0.324943
    14  C   -0.034839
    18  F   -0.289034
    19  F   -0.286014
    32  C   -0.008025
 Electronic spatial extent (au):  <R**2>=           4812.4635
 Charge=              0.0000 electrons
 Dipole moment (field-independent basis, Debye):
    X=              0.6262    Y=              3.3985    Z=              0.9343  Tot=              3.5798
 Quadrupole moment (field-independent basis, Debye-Ang):
   XX=            -82.8490   YY=           -108.5054   ZZ=           -102.3095
   XY=             -3.4422   XZ=             -2.9834   YZ=             -4.0896
 Traceless Quadrupole moment (field-independent basis, Debye-Ang):
   XX=             15.0390   YY=            -10.6175   ZZ=             -4.4215
   XY=             -3.4422   XZ=             -2.9834   YZ=             -4.0896
 Octapole moment (field-independent basis, Debye-Ang**2):
  XXX=             66.3661  YYY=             12.8934  ZZZ=              2.2030  XYY=              8.5756
  XXY=            -10.8389  XXZ=            -13.6042  XZZ=             -0.4793  YZZ=              7.3699
  YYZ=              8.6370  XYZ=              0.0560
 Hexadecapole moment (field-independent basis, Debye-Ang**3):
 XXXX=          -3964.0408 YYYY=          -1614.5667 ZZZZ=           -388.6754 XXXY=             -7.4404
 XXXZ=            -46.6408 YYYX=            -10.5509 YYYZ=            -43.4962 ZZZX=             10.4777
 ZZZY=            -30.1352 XXYY=           -923.0107 XXZZ=           -799.8093 YYZZ=           -334.5546
 XXYZ=            -27.9248 YYXZ=            -10.7388 ZZXY=              2.8331
 N-N= 1.290472973999D+03 E-N=-4.534750305754D+03  KE= 8.291518550281D+02
 D1PCM: PCM CHGder 1st derivatives, ID1Alg=3 FixD1E=F DoIter=F DoCFld=F I1PDM=0.
 Calling FoFJK, ICntrl=      2127 FMM=F ISym2X=0 I1Cent= 0 IOpClX= 0 NMat=1 NMatS=1 NMatT=0.
 ***** Axes restored to original set *****
 -------------------------------------------------------------------
 Center     Atomic                   Forces (Hartrees/Bohr)
 Number     Number              X              Y              Z
 -------------------------------------------------------------------
      1        6           0.002000357   -0.001594419   -0.002469155
      2        6          -0.003640954    0.000016931    0.001891869
      3        6          -0.010137412   -0.001645778    0.003490254
      4        6          -0.000770634   -0.000440898    0.006224619
      5        6           0.014243815   -0.002104061   -0.009734977
      6        8           0.004048781    0.005992610   -0.004945984
      7        7           0.000614742    0.002248035    0.000299177
      8        6          -0.001750206   -0.004997764   -0.003490619
      9        6          -0.005921520   -0.000393153    0.001078912
     10        6           0.004084593   -0.007198292    0.003584072
     11        6           0.012358459    0.020733681   -0.012955446
     12        6          -0.009575791   -0.001836764    0.002187489
     13        6           0.020990064   -0.005492847    0.000533940
     14        6          -0.000456592    0.007017212   -0.003908714
     15        1          -0.001740956   -0.000664891    0.000557106
     16        1          -0.001404502   -0.000618529    0.000396450
     17        1          -0.001327522   -0.000652318    0.000374299
     18        9          -0.005392614   -0.007971235    0.005490611
     19        9          -0.006476504    0.001691655    0.000418611
     20        1           0.002075622   -0.001002593    0.000736476
     21        1           0.000953846   -0.000722573    0.000653687
     22        1           0.001296237   -0.000320461    0.000546535
     23        1          -0.000890273    0.000838639   -0.000794920
     24        1          -0.000776865    0.003992325   -0.001199133
     25        1           0.001221750    0.002366736   -0.000267586
     26        1          -0.005797589   -0.004726267    0.005959714
     27        1          -0.001465812   -0.000754595   -0.000605165
     28        1          -0.002700618   -0.000370141    0.003527249
     29        1          -0.001831965   -0.002295218   -0.002157001
     30        1           0.002126389   -0.000233104    0.003821883
     31        1           0.001246688    0.000869436    0.000699120
     32        6          -0.002247011   -0.004509631   -0.003234206
     33        1          -0.001051306   -0.000533678    0.000720052
     34        1           0.001607579    0.000477920    0.000524431
     35        1          -0.000428787   -0.000535507    0.002317078
     36        1          -0.003083489    0.005369535   -0.000270728
 -------------------------------------------------------------------
 Cartesian Forces:  Max     0.020990064 RMS     0.004871777

 GradGradGradGradGradGradGradGradGradGradGradGradGradGradGradGradGradGrad
 Berny optimization.
 FormGI is forming the generalized inverse of G from B-inverse, IUseBI=4.
 GSVD:  received Info=                   1 from GESDD.
 Internal  Forces:  Max     0.010192129 RMS     0.002691422
 Search for a local minimum.
 Step number   1 out of a maximum of   50
 All quantities printed in internal units (Hartrees-Bohrs-Radians)
 Mixed Optimization -- RFO/linear search
 Second derivative matrix not updated -- first step.
 ITU=  0
     Eigenvalues ---    0.00230   0.00230   0.00230   0.00312   0.00424
     Eigenvalues ---    0.00620   0.00717   0.00736   0.01427   0.01550
     Eigenvalues ---    0.02140   0.02147   0.02152   0.02158   0.02162
     Eigenvalues ---    0.02168   0.02169   0.02171   0.02650   0.03158
     Eigenvalues ---    0.03360   0.03505   0.04450   0.04762   0.04785
     Eigenvalues ---    0.04804   0.05018   0.05127   0.05390   0.05449
     Eigenvalues ---    0.05514   0.05557   0.05686   0.06001   0.06508
     Eigenvalues ---    0.08537   0.09786   0.11205   0.11762   0.12360
     Eigenvalues ---    0.13146   0.13954   0.16000   0.16000   0.16000
     Eigenvalues ---    0.16000   0.16000   0.16000   0.16000   0.16000
     Eigenvalues ---    0.16000   0.16000   0.16254   0.17053   0.17932
     Eigenvalues ---    0.19048   0.21932   0.21935   0.22021   0.22085
     Eigenvalues ---    0.23490   0.23519   0.24907   0.24998   0.24999
     Eigenvalues ---    0.25000   0.26298   0.27829   0.28213   0.29030
     Eigenvalues ---    0.29813   0.31993   0.33754   0.34037   0.34125
     Eigenvalues ---    0.34162   0.34167   0.34172   0.34183   0.34230
     Eigenvalues ---    0.34247   0.34248   0.34281   0.34297   0.34336
     Eigenvalues ---    0.34428   0.34456   0.35171   0.35267   0.35298
     Eigenvalues ---    0.35474   0.42319   0.42458   0.42488   0.43743
     Eigenvalues ---    0.46275   0.46488   0.46525   0.46649   0.51070
     Eigenvalues ---    0.56821   0.57115
 RFO step:  Lambda=-7.98860827D-03 EMin= 2.30000000D-03
 Linear search not attempted -- first point.
 Iteration  1 RMS(Cart)=  0.05964274 RMS(Int)=  0.00252439
 Iteration  2 RMS(Cart)=  0.00305219 RMS(Int)=  0.00023429
 Iteration  3 RMS(Cart)=  0.00001341 RMS(Int)=  0.00023397
 Iteration  4 RMS(Cart)=  0.00000001 RMS(Int)=  0.00023397
 Variable       Old X    -DE/DX   Delta X   Delta X   Delta X     New X
                                 (Linear)    (Quad)   (Total)
    R1        2.88338   0.00656   0.00000   0.02142   0.02142   2.90480
    R2        2.06614   0.00133   0.00000   0.00378   0.00378   2.06993
    R3        2.06858   0.00088   0.00000   0.00250   0.00250   2.07108
    R4        2.06914  -0.00043   0.00000  -0.00124  -0.00124   2.06790
    R5        2.92514  -0.00121   0.00000  -0.00422  -0.00422   2.92092
    R6        2.07120   0.00099   0.00000   0.00282   0.00282   2.07402
    R7        2.07041  -0.00072   0.00000  -0.00205  -0.00205   2.06836
    R8        2.96018  -0.00821   0.00000  -0.03029  -0.03029   2.92988
    R9        2.79867   0.00353   0.00000   0.01001   0.01001   2.80867
   R10        2.07748   0.00074   0.00000   0.00214   0.00214   2.07962
   R11        2.91675  -0.00177   0.00000  -0.00610  -0.00610   2.91065
   R12        2.07267   0.00063   0.00000   0.00181   0.00181   2.07448
   R13        2.89940   0.00316   0.00000   0.01059   0.01059   2.90998
   R14        2.68345   0.00374   0.00000   0.00865   0.00865   2.69210
   R15        2.07022   0.00567   0.00000   0.01621   0.01621   2.08643
   R16        2.06916   0.00052   0.00000   0.00148   0.00148   2.07064
   R17        1.85501  -0.00175   0.00000  -0.00337  -0.00337   1.85164
   R18        2.78212   0.00443   0.00000   0.01220   0.01220   2.79433
   R19        1.93464  -0.00569   0.00000  -0.01276  -0.01276   1.92187
   R20        2.84157   0.00666   0.00000   0.02032   0.02032   2.86188
   R21        2.07058   0.00319   0.00000   0.00913   0.00913   2.07971
   R22        2.06831  -0.00320   0.00000  -0.00910  -0.00910   2.05921
   R23        2.63346   0.00196   0.00000   0.00427   0.00425   2.63771
   R24        2.63424   0.00064   0.00000   0.00161   0.00157   2.63582
   R25        2.05398  -0.00194   0.00000  -0.00540  -0.00540   2.04858
   R26        2.63492  -0.00458   0.00000  -0.00978  -0.00976   2.62516
   R27        2.05193  -0.00064   0.00000  -0.00177  -0.00177   2.05016
   R28        2.63980  -0.00153   0.00000  -0.00352  -0.00348   2.63632
   R29        2.53549   0.01019   0.00000   0.01769   0.01769   2.55318
   R30        2.63717   0.00064   0.00000   0.00121   0.00123   2.63840
   R31        2.63602  -0.00286   0.00000  -0.00594  -0.00596   2.63006
   R32        2.53299   0.00591   0.00000   0.01021   0.01021   2.54320
   R33        2.05243  -0.00090   0.00000  -0.00250  -0.00250   2.04993
   R34        2.06943   0.00083   0.00000   0.00237   0.00237   2.07181
   R35        2.07049  -0.00061   0.00000  -0.00174  -0.00174   2.06875
   R36        2.06767  -0.00072   0.00000  -0.00205  -0.00205   2.06561
    A1        1.95586   0.00206   0.00000   0.01252   0.01246   1.96832
    A2        1.93580   0.00055   0.00000   0.00143   0.00143   1.93723
    A3        1.91827   0.00151   0.00000   0.01052   0.01045   1.92873
    A4        1.89254  -0.00178   0.00000  -0.01339  -0.01338   1.87916
    A5        1.87523  -0.00141   0.00000  -0.00494  -0.00505   1.87017
    A6        1.88370  -0.00113   0.00000  -0.00729  -0.00730   1.87640
    A7        1.98814  -0.00196   0.00000  -0.00708  -0.00707   1.98107
    A8        1.91471   0.00058   0.00000   0.00158   0.00146   1.91617
    A9        1.85504   0.00385   0.00000   0.03868   0.03868   1.89372
   A10        1.93289   0.00025   0.00000  -0.00984  -0.00992   1.92297
   A11        1.90903  -0.00178   0.00000  -0.01422  -0.01427   1.89476
   A12        1.85797  -0.00076   0.00000  -0.00749  -0.00780   1.85017
   A13        1.98308   0.00327   0.00000   0.01426   0.01407   1.99715
   A14        1.98422   0.00151   0.00000   0.00388   0.00389   1.98811
   A15        1.84991  -0.00033   0.00000   0.01850   0.01835   1.86825
   A16        1.94983  -0.00529   0.00000  -0.03660  -0.03658   1.91324
   A17        1.84770   0.00024   0.00000   0.00389   0.00353   1.85123
   A18        1.83386   0.00061   0.00000  -0.00138  -0.00151   1.83235
   A19        1.94913  -0.00379   0.00000  -0.02485  -0.02511   1.92402
   A20        1.89965   0.00119   0.00000  -0.00436  -0.00485   1.89480
   A21        1.96361  -0.00063   0.00000   0.00236   0.00261   1.96623
   A22        1.88791  -0.00117   0.00000  -0.01925  -0.01979   1.86813
   A23        1.88656   0.00468   0.00000   0.03122   0.03131   1.91786
   A24        1.87411  -0.00020   0.00000   0.01546   0.01560   1.88972
   A25        1.95677   0.00675   0.00000   0.03691   0.03706   1.99383
   A26        1.93773  -0.00640   0.00000  -0.04081  -0.04197   1.89576
   A27        1.93119  -0.00339   0.00000  -0.03065  -0.03132   1.89988
[...]
    28  H   -0.000007   0.000837   0.000416  -0.010362  -0.037111   0.274763
    29  H    0.000368   0.007114  -0.006596  -0.000746   0.000020  -0.000057
    30  H    0.000183  -0.001849  -0.002364   0.003650  -0.000249   0.003888
    31  H   -0.005149  -0.050690   0.380644  -0.041611  -0.007326  -0.000095
    32  C    0.000246  -0.003998  -0.042994   0.336727  -0.038750   0.002990
    33  H   -0.000057  -0.001483  -0.006572  -0.035241  -0.005226  -0.000007
    34  H   -0.000003   0.000197   0.004495  -0.031634  -0.005457   0.000044
    35  H   -0.000061   0.001210  -0.004920  -0.021718   0.003530  -0.000065
    36  H    0.003627  -0.003873  -0.029487   0.005320  -0.000061   0.000722
               7          8          9         10         11         12
     1  C   -0.000614  -0.002591   0.000000  -0.000005  -0.000002   0.000034
     2  C   -0.062251  -0.007294   0.000000   0.000000  -0.000037   0.000315
     3  C    0.269254  -0.039991   0.000000   0.000006   0.000224   0.004602
     4  C   -0.053111  -0.004623   0.000000   0.000000  -0.000004  -0.000101
     5  C    0.003310  -0.000597   0.000000   0.000000   0.000003   0.000056
     6  O   -0.036596   0.003099   0.000000   0.000000  -0.000002  -0.001115
     7  N    6.962335   0.254190   0.000028  -0.000137  -0.005494  -0.035878
     8  C    0.254190   4.950066  -0.000678   0.008135  -0.055195   0.314377
     9  C    0.000028  -0.000678   4.861267   0.485354  -0.005688  -0.027350
    10  C   -0.000137   0.008135   0.485354   5.037893   0.482970  -0.079670
    11  C   -0.005494  -0.055195  -0.005688   0.482970   4.635615   0.384558
    12  C   -0.035878   0.314377  -0.027350  -0.079670   0.384558   5.288291
    13  C    0.001628  -0.047030  -0.003894  -0.047923   0.025642   0.418355
    14  C   -0.000133   0.007934   0.482784  -0.036051  -0.048089  -0.072803
    15  H    0.000000   0.000004   0.374197  -0.034700   0.003611   0.000397
    16  H    0.000001  -0.000134  -0.035752   0.361640  -0.032085   0.006150
    17  H    0.000001  -0.000120  -0.036431   0.004438   0.000315   0.006173
    18  F   -0.003052   0.003476   0.002814  -0.044948   0.289646  -0.056540
    19  F   -0.000131  -0.006392   0.003014   0.000007   0.002826  -0.048902
    20  H    0.003237   0.001662  -0.000001   0.000060   0.000574  -0.001104
    21  H   -0.000935   0.000171   0.000000   0.000000  -0.000010   0.000011
    22  H    0.000261   0.000001   0.000000   0.000000   0.000000   0.000002
    23  H   -0.005974   0.003128   0.000000   0.000000  -0.000007   0.000068
    24  H    0.004700   0.000103   0.000000   0.000000   0.000000  -0.000005
    25  H   -0.004317   0.001556   0.000000   0.000000  -0.000011  -0.000142
    26  H    0.000927   0.000088   0.000000   0.000000  -0.000001  -0.000014
    27  H   -0.000301  -0.000020   0.000000   0.000000   0.000000   0.000002
    28  H    0.065487  -0.007312  -0.000003  -0.000008  -0.000042   0.000482
    29  H   -0.044157   0.358859   0.000018  -0.000214  -0.009684  -0.027703
    30  H   -0.043266   0.378675  -0.000038  -0.000144   0.005062  -0.032728
    31  H   -0.043226   0.005805   0.000000   0.000000  -0.000024  -0.000206
    32  C    0.003811  -0.000034   0.000000   0.000000   0.000000  -0.000002
    33  H    0.000036   0.000005   0.000000   0.000000   0.000000   0.000000
    34  H   -0.000091   0.000000   0.000000   0.000000   0.000000   0.000000
    35  H   -0.000057   0.000003   0.000000   0.000000   0.000000   0.000000
    36  H    0.334734  -0.036244  -0.000018  -0.000120   0.003882  -0.010035
              13         14         15         16         17         18
     1  C   -0.000003   0.000000   0.000000   0.000000   0.000000  -0.002204
     2  C   -0.000001   0.000000   0.000000   0.000000   0.000000   0.000018
     3  C   -0.000069   0.000003   0.000000   0.000000   0.000000  -0.000029
     4  C    0.000011   0.000000   0.000000   0.000000   0.000000  -0.000001
     5  C   -0.000037   0.000000   0.000000   0.000000   0.000000   0.000000
     6  O    0.000754   0.000016   0.000000   0.000000   0.000000   0.000000
     7  N    0.001628  -0.000133   0.000000   0.000001   0.000001  -0.003052
     8  C   -0.047030   0.007934   0.000004  -0.000134  -0.000120   0.003476
     9  C   -0.003894   0.482784   0.374197  -0.035752  -0.036431   0.002814
    10  C   -0.047923  -0.036051  -0.034700   0.361640   0.004438  -0.044948
    11  C    0.025642  -0.048089   0.003611  -0.032085   0.000315   0.289646
    12  C    0.418355  -0.072803   0.000397   0.006150   0.006173  -0.056540
    13  C    4.590530   0.471351   0.003592   0.000343  -0.031857   0.002482
    14  C    0.471351   5.044740  -0.033843   0.004324   0.362293  -0.000007
    15  H    0.003592  -0.033843   0.578692  -0.005609  -0.005656  -0.000024
    16  H    0.000343   0.004324  -0.005609   0.582607  -0.000130  -0.000440
    17  H   -0.031857   0.362293  -0.005656  -0.000130   0.582015   0.000001
    18  F    0.002482  -0.000007  -0.000024  -0.000440   0.000001   9.088390
    19  F    0.295421  -0.044559  -0.000025   0.000001  -0.000581  -0.000001
    20  H   -0.000010   0.000000   0.000000   0.000000   0.000000   0.009500
    21  H    0.000000   0.000000   0.000000   0.000000   0.000000   0.000004
    22  H    0.000000   0.000000   0.000000   0.000000   0.000000   0.000009
    23  H   -0.000001   0.000000   0.000000   0.000000   0.000000  -0.000001
    24  H    0.000000   0.000000   0.000000   0.000000   0.000000   0.000000
    25  H    0.000032   0.000000   0.000000   0.000000   0.000000   0.000000
    26  H    0.000003   0.000000   0.000000   0.000000   0.000000   0.000000
    27  H   -0.000001   0.000000   0.000000   0.000000   0.000000   0.000000
    28  H    0.000978  -0.000056   0.000000   0.000000   0.000000   0.000000
    29  H    0.003758  -0.000225   0.000000  -0.000001   0.000002   0.001681
    30  H   -0.005558   0.000580   0.000000   0.000001  -0.000006   0.000158
    31  H    0.000001   0.000000   0.000000   0.000000   0.000000  -0.000001
    32  C    0.000000   0.000000   0.000000   0.000000   0.000000   0.000000
    33  H    0.000000   0.000000   0.000000   0.000000   0.000000   0.000000
    34  H    0.000000   0.000000   0.000000   0.000000   0.000000   0.000000
    35  H    0.000000   0.000000   0.000000   0.000000   0.000000   0.000000
    36  H   -0.000083   0.000015   0.000000   0.000006   0.000000   0.008944
              19         20         21         22         23         24
     1  C    0.000000   0.375358   0.384277   0.379455  -0.040625  -0.035033
     2  C    0.000000  -0.034395  -0.035656  -0.026294   0.382119   0.373138
     3  C    0.000005  -0.005434  -0.004175   0.003785  -0.036699  -0.027659
     4  C   -0.000011   0.000000   0.000077  -0.000116  -0.003689  -0.005152
     5  C    0.000011  -0.000002   0.000001   0.000001   0.000040   0.000067
     6  O   -0.000086   0.000001   0.000000   0.000000  -0.000008   0.000004
     7  N   -0.000131   0.003237  -0.000935   0.000261  -0.005974   0.004700
     8  C   -0.006392   0.001662   0.000171   0.000001   0.003128   0.000103
     9  C    0.003014  -0.000001   0.000000   0.000000   0.000000   0.000000
    10  C    0.000007   0.000060   0.000000   0.000000   0.000000   0.000000
    11  C    0.002826   0.000574  -0.000010   0.000000  -0.000007   0.000000
    12  C   -0.048902  -0.001104   0.000011   0.000002   0.000068  -0.000005
    13  C    0.295421  -0.000010   0.000000   0.000000  -0.000001   0.000000
    14  C   -0.044559   0.000000   0.000000   0.000000   0.000000   0.000000
    15  H   -0.000025   0.000000   0.000000   0.000000   0.000000   0.000000
    16  H    0.000001   0.000000   0.000000   0.000000   0.000000   0.000000
    17  H   -0.000581   0.000000   0.000000   0.000000   0.000000   0.000000
    18  F   -0.000001   0.009500   0.000004   0.000009  -0.000001   0.000000
    19  F    9.081223   0.000000   0.000000   0.000000   0.000000   0.000000
    20  H    0.000000   0.602331  -0.033273  -0.028758  -0.005265   0.005209
    21  H    0.000000  -0.033273   0.607495  -0.030865   0.005435  -0.004656
    22  H    0.000000  -0.028758  -0.030865   0.600444  -0.002599  -0.003412
    23  H    0.000000  -0.005265   0.005435  -0.002599   0.631115  -0.037153
    24  H    0.000000   0.005209  -0.004656  -0.003412  -0.037153   0.624291
    25  H   -0.000037  -0.000002   0.000007   0.000001   0.004022  -0.000030
    26  H    0.000000   0.000000  -0.000001   0.000000   0.000004  -0.000010
    27  H    0.000000   0.000000   0.000000   0.000000   0.000002   0.000003
    28  H    0.000848  -0.000008  -0.000002   0.000000  -0.000009  -0.000026
    29  H    0.000205   0.000027  -0.000059  -0.000159   0.000406  -0.000250
    30  H    0.011272   0.000082  -0.000006   0.000000   0.000012   0.000019
    31  H    0.000000  -0.000280   0.005064  -0.000015   0.006142  -0.003911
    32  C    0.000000   0.000001  -0.000029   0.000002  -0.001267   0.001889
    33  H    0.000000   0.000000   0.000009   0.000000   0.000151   0.001144
    34  H    0.000000   0.000000   0.000000   0.000000  -0.000045   0.000012
    35  H    0.000000  -0.000001   0.000012   0.000007   0.001089   0.001358
    36  H   -0.000013   0.001918   0.000548  -0.000122   0.000000  -0.000056
              25         26         27         28         29         30
     1  C   -0.000050  -0.000005   0.000002  -0.000007   0.000368   0.000183
     2  C   -0.005633   0.000096  -0.000180   0.000837   0.007114  -0.001849
     3  C   -0.048155  -0.015358   0.005162   0.000416  -0.006596  -0.002364
     4  C    0.373512  -0.053132  -0.033906  -0.010362  -0.000746   0.003650
     5  C   -0.043244   0.357789   0.378948  -0.037111   0.000020  -0.000249
     6  O    0.003067  -0.041023  -0.038972   0.274763  -0.000057   0.003888
     7  N   -0.004317   0.000927  -0.000301   0.065487  -0.044157  -0.043266
     8  C    0.001556   0.000088  -0.000020  -0.007312   0.358859   0.378675
     9  C    0.000000   0.000000   0.000000  -0.000003   0.000018  -0.000038
    10  C    0.000000   0.000000   0.000000  -0.000008  -0.000214  -0.000144
    11  C   -0.000011  -0.000001   0.000000  -0.000042  -0.009684   0.005062
    12  C   -0.000142  -0.000014   0.000002   0.000482  -0.027703  -0.032728
    13  C    0.000032   0.000003  -0.000001   0.000978   0.003758  -0.005558
    14  C    0.000000   0.000000   0.000000  -0.000056  -0.000225   0.000580
    15  H    0.000000   0.000000   0.000000   0.000000   0.000000   0.000000
    16  H    0.000000   0.000000   0.000000   0.000000  -0.000001   0.000001
    17  H    0.000000   0.000000   0.000000   0.000000   0.000002  -0.000006
    18  F    0.000000   0.000000   0.000000   0.000000   0.001681   0.000158
    19  F   -0.000037   0.000000   0.000000   0.000848   0.000205   0.011272
    20  H   -0.000002   0.000000   0.000000  -0.000008   0.000027   0.000082
    21  H    0.000007  -0.000001   0.000000  -0.000002  -0.000059  -0.000006
    22  H    0.000001   0.000000   0.000000   0.000000  -0.000159   0.000000
    23  H    0.004022   0.000004   0.000002  -0.000009   0.000406   0.000012
    24  H   -0.000030  -0.000010   0.000003  -0.000026  -0.000250   0.000019
    25  H    0.652766   0.007694  -0.006633  -0.000914   0.000307   0.002851
    26  H    0.007694   0.724088  -0.053593  -0.003938   0.000007   0.000041
    27  H   -0.006633  -0.053593   0.655744   0.006174  -0.000002   0.000010
    28  H   -0.000914  -0.003938   0.006174   0.386275   0.000954  -0.003309
    29  H    0.000307   0.000007  -0.000002   0.000954   0.646296  -0.042285
    30  H    0.002851   0.000041   0.000010  -0.003309  -0.042285   0.587976
    31  H    0.006700   0.006819  -0.000019  -0.000650  -0.000001  -0.000027
    32  C   -0.035481   0.001259  -0.005662  -0.000029   0.000019  -0.000073
    33  H    0.005699   0.004951  -0.000378   0.000002   0.000001   0.000002
    34  H   -0.003156  -0.000467   0.006204  -0.000005  -0.000001   0.000010
    35  H   -0.004689  -0.000229  -0.000088   0.000004  -0.000008  -0.000003
    36  H   -0.000081  -0.000052   0.000014  -0.001403  -0.004726   0.006087
              31         32         33         34         35         36
     1  C   -0.005149   0.000246  -0.000057  -0.000003  -0.000061   0.003627
     2  C   -0.050690  -0.003998  -0.001483   0.000197   0.001210  -0.003873
     3  C    0.380644  -0.042994  -0.006572   0.004495  -0.004920  -0.029487
     4  C   -0.041611   0.336727  -0.035241  -0.031634  -0.021718   0.005320
     5  C   -0.007326  -0.038750  -0.005226  -0.005457   0.003530  -0.000061
     6  O   -0.000095   0.002990  -0.000007   0.000044  -0.000065   0.000722
     7  N   -0.043226   0.003811   0.000036  -0.000091  -0.000057   0.334734
     8  C    0.005805  -0.000034   0.000005   0.000000   0.000003  -0.036244
     9  C    0.000000   0.000000   0.000000   0.000000   0.000000  -0.000018
    10  C    0.000000   0.000000   0.000000   0.000000   0.000000  -0.000120
    11  C   -0.000024   0.000000   0.000000   0.000000   0.000000   0.003882
    12  C   -0.000206  -0.000002   0.000000   0.000000   0.000000  -0.010035
    13  C    0.000001   0.000000   0.000000   0.000000   0.000000  -0.000083
    14  C    0.000000   0.000000   0.000000   0.000000   0.000000   0.000015
    15  H    0.000000   0.000000   0.000000   0.000000   0.000000   0.000000
    16  H    0.000000   0.000000   0.000000   0.000000   0.000000   0.000006
    17  H    0.000000   0.000000   0.000000   0.000000   0.000000   0.000000
    18  F   -0.000001   0.000000   0.000000   0.000000   0.000000   0.008944
    19  F    0.000000   0.000000   0.000000   0.000000   0.000000  -0.000013
    20  H   -0.000280   0.000001   0.000000   0.000000  -0.000001   0.001918
    21  H    0.005064  -0.000029   0.000009   0.000000   0.000012   0.000548
    22  H   -0.000015   0.000002   0.000000   0.000000   0.000007  -0.000122
    23  H    0.006142  -0.001267   0.000151  -0.000045   0.001089   0.000000
    24  H   -0.003911   0.001889   0.001144   0.000012   0.001358  -0.000056
    25  H    0.006700  -0.035481   0.005699  -0.003156  -0.004689  -0.000081
    26  H    0.006819   0.001259   0.004951  -0.000467  -0.000229  -0.000052
    27  H   -0.000019  -0.005662  -0.000378   0.006204  -0.000088   0.000014
    28  H   -0.000650  -0.000029   0.000002  -0.000005   0.000004  -0.001403
    29  H   -0.000001   0.000019   0.000001  -0.000001  -0.000008  -0.004726
    30  H   -0.000027  -0.000073   0.000002   0.000010  -0.000003   0.006087
    31  H    0.655684  -0.005315   0.005500  -0.000112  -0.000041  -0.007136
    32  C   -0.005315   4.978230   0.382345   0.379869   0.376788  -0.000120
    33  H    0.005500   0.382345   0.608099  -0.031931  -0.033204  -0.000005
    34  H   -0.000112   0.379869  -0.031931   0.605742  -0.029407   0.000003
    35  H   -0.000041   0.376788  -0.033204  -0.029407   0.598953  -0.000001
    36  H   -0.007136  -0.000120  -0.000005   0.000003  -0.000001   0.465847
 Mulliken charges:
               1
     1  C   -0.342282
     2  C   -0.187415
     3  C    0.081360
     4  C   -0.087182
     5  C    0.081369
     6  O   -0.600580
     7  N   -0.564216
     8  C   -0.083084
     9  C   -0.099622
    10  C   -0.136582
    11  C    0.321448
    12  C   -0.029575
    13  C    0.321585
    14  C   -0.138275
    15  H    0.119364
    16  H    0.119077
    17  H    0.119543
    18  F   -0.299875
    19  F   -0.294094
    20  H    0.108575
    21  H    0.106555
    22  H    0.108372
    23  H    0.099609
    24  H    0.105417
    25  H    0.094363
    26  H    0.064056
    27  H    0.087490
    28  H    0.327973
    29  H    0.116831
    30  H    0.131345
    31  H    0.093476
    32  C   -0.330423
    33  H    0.106159
    34  H    0.105732
    35  H    0.111537
    36  H    0.261969
 Sum of Mulliken charges =   0.00000
 Mulliken charges with hydrogens summed into heavy atoms:
               1
     1  C   -0.018780
     2  C    0.017611
     3  C    0.174836
     4  C    0.007180
     5  C    0.232915
     6  O   -0.272607
     7  N   -0.302248
     8  C    0.165092
     9  C    0.019742
    10  C   -0.017505
    11  C    0.321448
    12  C   -0.029575
    13  C    0.321585
    14  C   -0.018732
    18  F   -0.299875
    19  F   -0.294094
    32  C   -0.006994
 Electronic spatial extent (au):  <R**2>=           4829.5017
 Charge=              0.0000 electrons
 Dipole moment (field-independent basis, Debye):
    X=              0.9964    Y=              3.5015    Z=              0.6355  Tot=              3.6956
 Quadrupole moment (field-independent basis, Debye-Ang):
   XX=            -82.1893   YY=           -109.8489   ZZ=           -101.6677
   XY=             -3.9039   XZ=             -3.2437   YZ=             -3.8411
 Traceless Quadrupole moment (field-independent basis, Debye-Ang):
   XX=             15.7126   YY=            -11.9469   ZZ=             -3.7657
   XY=             -3.9039   XZ=             -3.2437   YZ=             -3.8411
 Octapole moment (field-independent basis, Debye-Ang**2):
  XXX=             69.9668  YYY=             14.4404  ZZZ=              1.6367  XYY=             12.2724
  XXY=             -9.4384  XXZ=            -12.8041  XZZ=             -0.5333  YZZ=              6.2282
  YYZ=              8.0349  XYZ=              0.8652
 Hexadecapole moment (field-independent basis, Debye-Ang**3):
 XXXX=          -3991.9905 YYYY=          -1644.6439 ZZZZ=           -344.6255 XXXY=             -4.4203
 XXXZ=            -53.2786 YYYX=            -17.5607 YYYZ=            -39.3299 ZZZX=             11.2633
 ZZZY=            -25.8348 XXYY=           -934.9481 XXZZ=           -804.5765 YYZZ=           -329.3598
 XXYZ=            -27.8341 YYXZ=            -14.4359 ZZXY=              2.1361
 N-N= 1.290330409699D+03 E-N=-4.534475552670D+03  KE= 8.290882777907D+02
 1\1\GINC-SWANNODE-0-6\FOpt\RB3LYP\6-31G(d,p)\C13H19F2N1O1\ROOT\06-Mar-
 2019\0\\# b3lyp/6-31g(d,p) Opt=(maxcycles=50) scrf=(solvent=chloroform
 )\\AT3_1ginp011\\0,1\C,0.1737497041,-1.5091280762,2.6491522921\C,-0.83
 72024573,-0.3860023038,2.3870855918\C,-0.3662799997,1.0016650245,2.876
 0341323\C,-1.4029891556,2.1366077578,2.6568556229\C,-0.9315756206,3.46
 08813752,3.2951186762\O,0.2444120417,4.0022736739,2.7200549384\N,0.967
 5088234,1.4076456064,2.345436391\C,1.129462334,1.3523218472,0.87872763
 53\C,5.1678101428,2.4604576082,-0.2509361898\C,4.9286938245,1.22456943
 5,0.3537580074\C,3.6229777638,0.9093236749,0.7011326723\C,2.531230808,
 1.7513400288,0.4821656263\C,2.8325020146,2.9749141834,-0.1193411786\C,
 4.1190543163,3.3475306294,-0.4931920207\H,6.1790200824,2.7336630461,-0
 .5332694319\H,5.7253993979,0.5183130872,0.5558718645\H,4.2802530273,4.
 3123713427,-0.9596994422\F,3.379707455,-0.2864461706,1.3010498248\F,1.
 8184683933,3.8350340505,-0.3589327359\H,1.1144329105,-1.3593836008,2.1
 106261921\H,0.4111305122,-1.5818235934,3.7170784492\H,-0.232384795,-2.
 4758359288,2.3359032002\H,-1.0837407484,-0.3441841134,1.3180814576\H,-
 1.7708442119,-0.6338808205,2.9010402496\H,-1.5114205669,2.3152999383,1
 .5777305565\H,-0.8102596101,3.2976991487,4.3829021787\H,-1.7220941328,
 4.2122104508,3.1775315521\H,0.8507886271,3.2307441682,2.6587889457\H,0
 .9176366429,0.3564549458,0.4658439849\H,0.425256559,2.0514287657,0.426
 0098639\H,-0.2125438534,0.9254468752,3.9629444092\C,-2.7874562399,1.77
 71912251,3.2207290562\H,-2.7266609844,1.5021080273,4.2807782355\H,-3.4
 637575701,2.6345917397,3.1407974029\H,-3.2516576915,0.9459163159,2.685
 1975218\H,1.6781442567,0.8146506359,2.7663844676\\Version=EM64L-G09Rev
 D.01\State=1-A\HF=-836.5000057\RMSD=7.616e-09\RMSF=7.262e-06\Dipole=0.
 4805148,-1.3479268,-0.2572306\Quadrupole=9.4842701,-8.7105325,-0.77373
 76,4.2372028,-4.2297085,-3.8652721\PG=C01 [X(C13H19F2N1O1)]\\@


 HE WHO LAUGHS LAST PROBABLY DIDN'T GET THE JOKE.
 Job cpu time:       0 days  4 hours 56 minutes 26.1 seconds.
 File lengths (MBytes):  RWF=    275 Int=      0 D2E=      0 Chk=     13 Scr=      1
 Normal termination of Gaussian 09 at Wed Mar  6 13:21:10 2019.
