 Entering Gaussian System, Link 0=/usr/local/shared/gaussian/em64t/09-D01/g09/g09
 Initial command:
 /usr/local/shared/gaussian/em64t/09-D01/g09/l1.exe "/scratch/ke291/AT3_2ginp009/Gau-30130.inp" -scrdir="/scratch/ke291/AT3_2ginp009/"
 Entering Link 1 = /usr/local/shared/gaussian/em64t/09-D01/g09/l1.exe PID=     30146.
  
 Copyright (c) 1988,1990,1992,1993,1995,1998,2003,2009,2013,
            Gaussian, Inc.  All Rights Reserved.
  
 This is part of the Gaussian(R) 09 program.  It is based on
 the Gaussian(R) 03 system (copyright 2003, Gaussian, Inc.),
 the Gaussian(R) 98 system (copyright 1998, Gaussian, Inc.),
 the Gaussian(R) 94 system (copyright 1995, Gaussian, Inc.),
 the Gaussian 92(TM) system (copyright 1992, Gaussian, Inc.),
 the Gaussian 90(TM) system (copyright 1990, Gaussian, Inc.),
 the Gaussian 88(TM) system (copyright 1988, Gaussian, Inc.),
 the Gaussian 86(TM) system (copyright 1986, Carnegie Mellon
 University), and the Gaussian 82(TM) system (copyright 1983,
 Carnegie Mellon University). Gaussian is a federally registered
 trademark of Gaussian, Inc.
  
 This software contains proprietary and confidential information,
 including trade secrets, belonging to Gaussian, Inc.
  
 This software is provided under written license and may be
 used, copied, transmitted, or stored only in accord with that
 written license.
  
 The following legend is applicable only to US Government
 contracts under FAR:
  
                    RESTRICTED RIGHTS LEGEND
  
 Use, reproduction and disclosure by the US Government is
 subject to restrictions as set forth in subparagraphs (a)
 and (c) of the Commercial Computer Software - Restricted
 Rights clause in FAR 52.227-19.
  
 Gaussian, Inc.
 340 Quinnipiac St., Bldg. 40, Wallingford CT 06492
  
  
 ---------------------------------------------------------------
 Warning -- This program may not be used in any manner that
 competes with the business of Gaussian, Inc. or will provide
 assistance to any competitor of Gaussian, Inc.  The licensee
 of this program is prohibited from giving any competitor of
 Gaussian, Inc. access to this program.  By using this program,
 the user acknowledges that Gaussian, Inc. is engaged in the
 business of creating and licensing software in the field of
 computational chemistry and represents and warrants to the
 licensee that it is not a competitor of Gaussian, Inc. and that
 it will not use this program in any manner prohibited above.
 ---------------------------------------------------------------
  

 Cite this work as:
 Gaussian 09, Revision D.01,
 M. J. Frisch, G. W. Trucks, H. B. Schlegel, G. E. Scuseria, 
 M. A. Robb, J. R. Cheeseman, G. Scalmani, V. Barone, B. Mennucci, 
 G. A. Petersson, H. Nakatsuji, M. Caricato, X. Li, H. P. Hratchian, 
 A. F. Izmaylov, J. Bloino, G. Zheng, J. L. Sonnenberg, M. Hada, 
 M. Ehara, K. Toyota, R. Fukuda, J. Hasegawa, M. Ishida, T. Nakajima, 
 Y. Honda, O. Kitao, H. Nakai, T. Vreven, J. A. Montgomery, Jr., 
 J. E. Peralta, F. Ogliaro, M. Bearpark, J. J. Heyd, E. Brothers, 
 K. N. Kudin, V. N. Staroverov, T. Keith, R. Kobayashi, J. Normand, 
 K. Raghavachari, A. Rendell, J. C. Burant, S. S. Iyengar, J. Tomasi, 
 M. Cossi, N. Rega, J. M. Millam, M. Klene, J. E. Knox, J. B. Cross, 
 V. Bakken, C. Adamo, J. Jaramillo, R. Gomperts, R. E. Stratmann, 
 O. Yazyev, A. J. Austin, R. Cammi, C. Pomelli, J. W. Ochterski, 
 R. L. Martin, K. Morokuma, V. G. Zakrzewski, G. A. Voth, 
 P. Salvador, J. J. Dannenberg, S. Dapprich, A. D. Daniels, 
 O. Farkas, J. B. Foresman, J. V. Ortiz, J. Cioslowski, 
 and D. J. Fox, Gaussian, Inc., Wallingford CT, 2013.
 
 ******************************************
 Gaussian 09:  EM64L-G09RevD.01 24-Apr-2013
                 6-Mar-2019 
 ******************************************
 %nprocshared=2
 Will use up to    2 processors via shared memory.
 %mem=6000MB
 %chk=AT3_2ginp009.chk
 ---------------------------------------------------------------
 # b3lyp/6-31g(d,p) Opt=(maxcycles=50) scrf=(solvent=chloroform)
 ---------------------------------------------------------------
 1/6=50,14=-1,18=20,19=15,26=3,38=1/1,3;
 2/9=110,12=2,17=6,18=5,40=1/2;
 3/5=1,6=6,7=101,11=2,16=1,25=1,30=1,70=2201,71=1,72=7,74=-5/1,2,3;
 4//1;
 5/5=2,38=5,53=7/2;
 6/7=2,8=2,9=2,10=2,28=1/1;
 7//1,2,3,16;
 1/6=50,14=-1,18=20,19=15,26=3/3(2);
 2/9=110/2;
 99//99;
 2/9=110/2;
 3/5=1,6=6,7=101,11=2,16=1,25=1,30=1,70=2205,71=1,72=7,74=-5/1,2,3;
 4/5=5,16=3,69=1/1;
 5/5=2,38=5,53=7/2;
 7//1,2,3,16;
 1/6=50,14=-1,18=20,19=15,26=3/3(-5);
 2/9=110/2;
 6/7=2,8=2,9=2,10=2,19=2,28=1/1;
 99/9=1/99;
 ------------
 AT3_2ginp009
 ------------
 Symbolic Z-matrix:
 Charge =  0 Multiplicity = 1
 C                    -0.82281  -1.65504   0.57871 
 C                    -2.30255  -1.31154   0.46505 
 C                    -2.98544  -1.05004   1.82766 
 C                    -2.32375   0.09228   2.65796 
 C                    -3.02168   0.32671   4.01165 
 O                    -3.17018  -0.88573   4.73937 
 N                    -4.41662  -0.75067   1.64771 
 C                    -5.22557  -1.93443   1.35557 
 C                    -9.42188  -0.94087   1.57329 
 C                    -8.75741  -1.43104   2.69667 
 C                    -7.40314  -1.75385   2.61614 
 C                    -6.68762  -1.60344   1.42717 
 C                    -7.36905  -1.10398   0.31648 
 C                    -8.72295  -0.7761    0.37837 
 H                    -10.47695  -0.68563   1.63014 
 H                    -9.28267  -1.5626    3.63806 
 H                    -9.22144  -0.39117  -0.50626 
 F                    -6.7893   -2.22347   3.71226 
 F                    -6.71727  -0.92896  -0.84251 
 H                    -0.23449  -0.80159   0.92708 
 H                    -0.66564  -2.49123   1.26721 
 H                    -0.43016  -1.94574  -0.40117 
 H                    -2.4236   -0.45174  -0.20435 
 H                    -2.79297  -2.15641  -0.03303 
 H                    -1.30276  -0.23574   2.89378 
 H                    -4.0088    0.78776   3.89334 
 H                    -2.4202    1.00474   4.62691 
 H                    -3.95201  -1.32848   4.35831 
 H                    -4.9948   -2.3369    0.3625 
 H                    -5.01026  -2.73674   2.07238 
 H                    -2.88785  -1.96818   2.42255 
 C                    -2.22725   1.42865   1.91257 
 H                    -1.62604   1.34045   1.00329 
 H                    -3.21527   1.80917   1.63422 
 H                    -1.74569   2.18523   2.54212 
 H                    -4.53835  -0.0756    0.89168 
 

 GradGradGradGradGradGradGradGradGradGradGradGradGradGradGradGradGradGrad
 Berny optimization.
 Initialization pass.
                           ----------------------------
                           !    Initial Parameters    !
                           ! (Angstroms and Degrees)  !
 --------------------------                            --------------------------
 ! Name  Definition              Value          Derivative Info.                !
 --------------------------------------------------------------------------------
 ! R1    R(1,2)                  1.5233         estimate D2E/DX2                !
 ! R2    R(1,20)                 1.0936         estimate D2E/DX2                !
 ! R3    R(1,21)                 1.0945         estimate D2E/DX2                !
 ! R4    R(1,22)                 1.0949         estimate D2E/DX2                !
 ! R5    R(2,3)                  1.5464         estimate D2E/DX2                !
 ! R6    R(2,23)                 1.0964         estimate D2E/DX2                !
 ! R7    R(2,24)                 1.0965         estimate D2E/DX2                !
 ! R8    R(3,4)                  1.5595         estimate D2E/DX2                !
 ! R9    R(3,7)                  1.4732         estimate D2E/DX2                !
 ! R10   R(3,31)                 1.0984         estimate D2E/DX2                !
 ! R11   R(4,5)                  1.541          estimate D2E/DX2                !
 ! R12   R(4,25)                 1.098          estimate D2E/DX2                !
 ! R13   R(4,32)                 1.5332         estimate D2E/DX2                !
 ! R14   R(5,6)                  1.4218         estimate D2E/DX2                !
 ! R15   R(5,26)                 1.0959         estimate D2E/DX2                !
 ! R16   R(5,27)                 1.0955         estimate D2E/DX2                !
 ! R17   R(6,28)                 0.976          estimate D2E/DX2                !
 ! R18   R(7,8)                  1.4632         estimate D2E/DX2                !
 ! R19   R(7,36)                 1.0208         estimate D2E/DX2                !
 ! R20   R(8,12)                 1.5008         estimate D2E/DX2                !
 ! R21   R(8,29)                 1.0961         estimate D2E/DX2                !
 ! R22   R(8,30)                 1.0972         estimate D2E/DX2                !
 ! R23   R(9,10)                 1.3942         estimate D2E/DX2                !
 ! R24   R(9,14)                 1.3941         estimate D2E/DX2                !
 ! R25   R(9,15)                 1.087          estimate D2E/DX2                !
 ! R26   R(10,11)                1.3945         estimate D2E/DX2                !
 ! R27   R(10,16)                1.086          estimate D2E/DX2                !
 ! R28   R(11,12)                1.3958         estimate D2E/DX2                !
 ! R29   R(11,18)                1.3412         estimate D2E/DX2                !
 ! R30   R(12,13)                1.3955         estimate D2E/DX2                !
 ! R31   R(13,14)                1.3944         estimate D2E/DX2                !
 ! R32   R(13,19)                1.3412         estimate D2E/DX2                !
 ! R33   R(14,17)                1.0859         estimate D2E/DX2                !
 ! R34   R(32,33)                1.0936         estimate D2E/DX2                !
 ! R35   R(32,34)                1.0947         estimate D2E/DX2                !
 ! R36   R(32,35)                1.0957         estimate D2E/DX2                !
 ! A1    A(2,1,20)             111.7393         estimate D2E/DX2                !
 ! A2    A(2,1,21)             111.0205         estimate D2E/DX2                !
 ! A3    A(2,1,22)             109.9648         estimate D2E/DX2                !
 ! A4    A(20,1,21)            108.5778         estimate D2E/DX2                !
 ! A5    A(20,1,22)            107.4201         estimate D2E/DX2                !
 ! A6    A(21,1,22)            107.9759         estimate D2E/DX2                !
 ! A7    A(1,2,3)              113.6624         estimate D2E/DX2                !
 ! A8    A(1,2,23)             109.2473         estimate D2E/DX2                !
 ! A9    A(1,2,24)             107.1333         estimate D2E/DX2                !
 ! A10   A(3,2,23)             110.8932         estimate D2E/DX2                !
 ! A11   A(3,2,24)             109.4526         estimate D2E/DX2                !
 ! A12   A(23,2,24)            106.1119         estimate D2E/DX2                !
 ! A13   A(2,3,4)              113.9296         estimate D2E/DX2                !
 ! A14   A(2,3,7)              110.8387         estimate D2E/DX2                !
 ! A15   A(2,3,31)             107.2564         estimate D2E/DX2                !
 ! A16   A(4,3,7)              109.1703         estimate D2E/DX2                !
 ! A17   A(4,3,31)             106.6325         estimate D2E/DX2                !
 ! A18   A(7,3,31)             108.8049         estimate D2E/DX2                !
 ! A19   A(3,4,5)              112.766          estimate D2E/DX2                !
 ! A20   A(3,4,25)             106.8615         estimate D2E/DX2                !
 ! A21   A(3,4,32)             113.9728         estimate D2E/DX2                !
 ! A22   A(5,4,25)             106.1366         estimate D2E/DX2                !
 ! A23   A(5,4,32)             108.843          estimate D2E/DX2                !
 ! A24   A(25,4,32)            107.8345         estimate D2E/DX2                !
 ! A25   A(4,5,6)              111.5427         estimate D2E/DX2                !
 ! A26   A(4,5,26)             112.1562         estimate D2E/DX2                !
 ! A27   A(4,5,27)             109.8079         estimate D2E/DX2                !
 ! A28   A(6,5,26)             108.6585         estimate D2E/DX2                !
 ! A29   A(6,5,27)             107.3179         estimate D2E/DX2                !
 ! A30   A(26,5,27)            107.146          estimate D2E/DX2                !
 ! A31   A(5,6,28)             105.7043         estimate D2E/DX2                !
 ! A32   A(3,7,8)              113.3952         estimate D2E/DX2                !
 ! A33   A(3,7,36)             109.9186         estimate D2E/DX2                !
 ! A34   A(8,7,36)             108.7354         estimate D2E/DX2                !
 ! A35   A(7,8,12)             110.5267         estimate D2E/DX2                !
 ! A36   A(7,8,29)             111.1957         estimate D2E/DX2                !
 ! A37   A(7,8,30)             110.6495         estimate D2E/DX2                !
 ! A38   A(12,8,29)            109.2267         estimate D2E/DX2                !
 ! A39   A(12,8,30)            108.74           estimate D2E/DX2                !
 ! A40   A(29,8,30)            106.3844         estimate D2E/DX2                !
 ! A41   A(10,9,14)            119.5541         estimate D2E/DX2                !
 ! A42   A(10,9,15)            120.2003         estimate D2E/DX2                !
 ! A43   A(14,9,15)            120.2453         estimate D2E/DX2                !
 ! A44   A(9,10,11)            119.8479         estimate D2E/DX2                !
 ! A45   A(9,10,16)            120.6991         estimate D2E/DX2                !
 ! A46   A(11,10,16)           119.4529         estimate D2E/DX2                !
 ! A47   A(10,11,12)           121.4709         estimate D2E/DX2                !
 ! A48   A(10,11,18)           118.5762         estimate D2E/DX2                !
 ! A49   A(12,11,18)           119.9523         estimate D2E/DX2                !
 ! A50   A(8,12,11)            121.0827         estimate D2E/DX2                !
 ! A51   A(8,12,13)            121.1097         estimate D2E/DX2                !
 ! A52   A(11,12,13)           117.7891         estimate D2E/DX2                !
 ! A53   A(12,13,14)           121.5305         estimate D2E/DX2                !
 ! A54   A(12,13,19)           119.8145         estimate D2E/DX2                !
 ! A55   A(14,13,19)           118.6549         estimate D2E/DX2                !
 ! A56   A(9,14,13)            119.8043         estimate D2E/DX2                !
 ! A57   A(9,14,17)            120.6638         estimate D2E/DX2                !
 ! A58   A(13,14,17)           119.5317         estimate D2E/DX2                !
 ! A59   A(4,32,33)            111.6233         estimate D2E/DX2                !
 ! A60   A(4,32,34)            111.7016         estimate D2E/DX2                !
 ! A61   A(4,32,35)            110.4975         estimate D2E/DX2                !
 ! A62   A(33,32,34)           108.2268         estimate D2E/DX2                !
 ! A63   A(33,32,35)           106.9644         estimate D2E/DX2                !
 ! A64   A(34,32,35)           107.6214         estimate D2E/DX2                !
 ! D1    D(20,1,2,3)           -67.6335         estimate D2E/DX2                !
 ! D2    D(20,1,2,23)           56.7974         estimate D2E/DX2                !
 ! D3    D(20,1,2,24)          171.3314         estimate D2E/DX2                !
 ! D4    D(21,1,2,3)            53.7433         estimate D2E/DX2                !
 ! D5    D(21,1,2,23)          178.1743         estimate D2E/DX2                !
 ! D6    D(21,1,2,24)          -67.2918         estimate D2E/DX2                !
 ! D7    D(22,1,2,3)           173.1731         estimate D2E/DX2                !
 ! D8    D(22,1,2,23)          -62.396          estimate D2E/DX2                !
 ! D9    D(22,1,2,24)           52.138          estimate D2E/DX2                !
 ! D10   D(1,2,3,4)             57.5266         estimate D2E/DX2                !
 ! D11   D(1,2,3,7)           -178.8788         estimate D2E/DX2                !
 ! D12   D(1,2,3,31)           -60.2324         estimate D2E/DX2                !
 ! D13   D(23,2,3,4)           -66.0122         estimate D2E/DX2                !
 ! D14   D(23,2,3,7)            57.5824         estimate D2E/DX2                !
 ! D15   D(23,2,3,31)          176.2288         estimate D2E/DX2                !
 ! D16   D(24,2,3,4)           177.2537         estimate D2E/DX2                !
 ! D17   D(24,2,3,7)           -59.1517         estimate D2E/DX2                !
 ! D18   D(24,2,3,31)           59.4947         estimate D2E/DX2                !
 ! D19   D(2,3,4,5)           -179.7968         estimate D2E/DX2                !
 ! D20   D(2,3,4,25)           -63.5559         estimate D2E/DX2                !
 ! D21   D(2,3,4,32)            55.4573         estimate D2E/DX2                !
 ! D22   D(7,3,4,5)             55.7096         estimate D2E/DX2                !
 ! D23   D(7,3,4,25)           171.9504         estimate D2E/DX2                !
 ! D24   D(7,3,4,32)           -69.0363         estimate D2E/DX2                !
 ! D25   D(31,3,4,5)           -61.6794         estimate D2E/DX2                !
 ! D26   D(31,3,4,25)           54.5615         estimate D2E/DX2                !
 ! D27   D(31,3,4,32)          173.5747         estimate D2E/DX2                !
 ! D28   D(2,3,7,8)             75.8393         estimate D2E/DX2                !
 ! D29   D(2,3,7,36)           -46.0993         estimate D2E/DX2                !
 ! D30   D(4,3,7,8)           -157.8748         estimate D2E/DX2                !
 ! D31   D(4,3,7,36)            80.1866         estimate D2E/DX2                !
 ! D32   D(31,3,7,8)           -41.8661         estimate D2E/DX2                !
 ! D33   D(31,3,7,36)         -163.8046         estimate D2E/DX2                !
 ! D34   D(3,4,5,6)             51.1067         estimate D2E/DX2                !
 ! D35   D(3,4,5,26)           -71.0426         estimate D2E/DX2                !
 ! D36   D(3,4,5,27)           169.9453         estimate D2E/DX2                !
 ! D37   D(25,4,5,6)           -65.5656         estimate D2E/DX2                !
 ! D38   D(25,4,5,26)          172.2851         estimate D2E/DX2                !
 ! D39   D(25,4,5,27)           53.273          estimate D2E/DX2                !
 ! D40   D(32,4,5,6)           178.6095         estimate D2E/DX2                !
 ! D41   D(32,4,5,26)           56.4602         estimate D2E/DX2                !
 ! D42   D(32,4,5,27)          -62.5519         estimate D2E/DX2                !
 ! D43   D(3,4,32,33)          -60.5055         estimate D2E/DX2                !
 ! D44   D(3,4,32,34)           60.8188         estimate D2E/DX2                !
 ! D45   D(3,4,32,35)         -179.4046         estimate D2E/DX2                !
 ! D46   D(5,4,32,33)          172.6798         estimate D2E/DX2                !
 ! D47   D(5,4,32,34)          -65.9959         estimate D2E/DX2                !
 ! D48   D(5,4,32,35)           53.7807         estimate D2E/DX2                !
 ! D49   D(25,4,32,33)          57.9534         estimate D2E/DX2                !
 ! D50   D(25,4,32,34)         179.2777         estimate D2E/DX2                !
 ! D51   D(25,4,32,35)         -60.9457         estimate D2E/DX2                !
 ! D52   D(4,5,6,28)           -80.4487         estimate D2E/DX2                !
 ! D53   D(26,5,6,28)           43.6938         estimate D2E/DX2                !
 ! D54   D(27,5,6,28)          159.2392         estimate D2E/DX2                !
 ! D55   D(3,7,8,12)           169.8976         estimate D2E/DX2                !
 ! D56   D(3,7,8,29)           -68.6132         estimate D2E/DX2                !
 ! D57   D(3,7,8,30)            49.3861         estimate D2E/DX2                !
 ! D58   D(36,7,8,12)          -67.5066         estimate D2E/DX2                !
 ! D59   D(36,7,8,29)           53.9827         estimate D2E/DX2                !
 ! D60   D(36,7,8,30)          171.982          estimate D2E/DX2                !
 ! D61   D(7,8,12,11)          -91.3919         estimate D2E/DX2                !
 ! D62   D(7,8,12,13)           87.0081         estimate D2E/DX2                !
 ! D63   D(29,8,12,11)         145.9617         estimate D2E/DX2                !
 ! D64   D(29,8,12,13)         -35.6383         estimate D2E/DX2                !
 ! D65   D(30,8,12,11)          30.2536         estimate D2E/DX2                !
 ! D66   D(30,8,12,13)        -151.3464         estimate D2E/DX2                !
 ! D67   D(14,9,10,11)          -0.1021         estimate D2E/DX2                !
 ! D68   D(14,9,10,16)         179.7314         estimate D2E/DX2                !
 ! D69   D(15,9,10,11)        -179.8819         estimate D2E/DX2                !
 ! D70   D(15,9,10,16)          -0.0484         estimate D2E/DX2                !
 ! D71   D(10,9,14,13)           0.0944         estimate D2E/DX2                !
 ! D72   D(10,9,14,17)        -179.7006         estimate D2E/DX2                !
 ! D73   D(15,9,14,13)         179.874          estimate D2E/DX2                !
 ! D74   D(15,9,14,17)           0.0791         estimate D2E/DX2                !
 ! D75   D(9,10,11,12)          -0.2747         estimate D2E/DX2                !
 ! D76   D(9,10,11,18)        -179.993          estimate D2E/DX2                !
 ! D77   D(16,10,11,12)        179.8897         estimate D2E/DX2                !
 ! D78   D(16,10,11,18)          0.1715         estimate D2E/DX2                !
 ! D79   D(10,11,12,8)         179.0905         estimate D2E/DX2                !
 ! D80   D(10,11,12,13)          0.6389         estimate D2E/DX2                !
 ! D81   D(18,11,12,8)          -1.1951         estimate D2E/DX2                !
 ! D82   D(18,11,12,13)       -179.6466         estimate D2E/DX2                !
 ! D83   D(8,12,13,14)        -179.0984         estimate D2E/DX2                !
 ! D84   D(8,12,13,19)           0.8033         estimate D2E/DX2                !
 ! D85   D(11,12,13,14)         -0.6473         estimate D2E/DX2                !
 ! D86   D(11,12,13,19)        179.2543         estimate D2E/DX2                !
 ! D87   D(12,13,14,9)           0.2908         estimate D2E/DX2                !
 ! D88   D(12,13,14,17)       -179.9119         estimate D2E/DX2                !
 ! D89   D(19,13,14,9)        -179.6119         estimate D2E/DX2                !
 ! D90   D(19,13,14,17)          0.1854         estimate D2E/DX2                !
 --------------------------------------------------------------------------------
 Trust Radius=3.00D-01 FncErr=1.00D-07 GrdErr=1.00D-06
 Number of steps in this run=     50 maximum allowed number of steps=    216.
 GradGradGradGradGradGradGradGradGradGradGradGradGradGradGradGradGradGrad

                          Input orientation:                          
 ---------------------------------------------------------------------
 Center     Atomic      Atomic             Coordinates (Angstroms)
 Number     Number       Type             X           Y           Z
 ---------------------------------------------------------------------
      1          6           0       -0.822810   -1.655038    0.578712
      2          6           0       -2.302547   -1.311538    0.465052
      3          6           0       -2.985444   -1.050040    1.827662
      4          6           0       -2.323749    0.092276    2.657961
      5          6           0       -3.021680    0.326709    4.011649
      6          8           0       -3.170184   -0.885728    4.739372
      7          7           0       -4.416624   -0.750667    1.647713
      8          6           0       -5.225566   -1.934426    1.355572
      9          6           0       -9.421884   -0.940874    1.573294
     10          6           0       -8.757408   -1.431038    2.696668
     11          6           0       -7.403142   -1.753851    2.616142
     12          6           0       -6.687619   -1.603441    1.427166
     13          6           0       -7.369052   -1.103984    0.316480
     14          6           0       -8.722947   -0.776104    0.378367
     15          1           0      -10.476951   -0.685627    1.630142
     16          1           0       -9.282670   -1.562597    3.638057
     17          1           0       -9.221436   -0.391169   -0.506264
     18          9           0       -6.789296   -2.223467    3.712263
     19          9           0       -6.717268   -0.928957   -0.842510
     20          1           0       -0.234486   -0.801591    0.927084
     21          1           0       -0.665636   -2.491232    1.267209
     22          1           0       -0.430162   -1.945741   -0.401167
     23          1           0       -2.423597   -0.451743   -0.204354
     24          1           0       -2.792967   -2.156408   -0.033033
     25          1           0       -1.302756   -0.235739    2.893783
     26          1           0       -4.008800    0.787761    3.893337
     27          1           0       -2.420196    1.004743    4.626913
     28          1           0       -3.952012   -1.328477    4.358307
     29          1           0       -4.994800   -2.336901    0.362496
     30          1           0       -5.010259   -2.736737    2.072375
     31          1           0       -2.887853   -1.968182    2.422554
     32          6           0       -2.227253    1.428653    1.912574
     33          1           0       -1.626043    1.340447    1.003294
     34          1           0       -3.215265    1.809173    1.634224
     35          1           0       -1.745689    2.185232    2.542119
     36          1           0       -4.538347   -0.075603    0.891681
 ---------------------------------------------------------------------
                    Distance matrix (angstroms):
                    1          2          3          4          5
     1  C    0.000000
     2  C    1.523329   0.000000
     3  C    2.569608   1.546427   0.000000
     4  C    3.103095   2.603842   1.559526   0.000000
     5  C    4.532925   3.972324   2.581966   1.540954   0.000000
     6  O    4.838708   4.382228   2.922188   2.450554   1.421843
     7  N    3.856961   2.486480   1.473188   2.472100   2.948695
     8  C    4.479490   3.118502   2.454212   3.771509   4.126087
     9  C    8.685810   7.214607   6.442389   7.254476   6.965268
    10  C    8.215459   6.830785   5.849436   6.611653   6.141451
    11  C    6.889242   5.553278   4.542368   5.404643   5.047116
    12  C    5.926088   4.498858   3.764671   4.840834   4.883046
    13  C    6.574626   5.072931   4.637090   5.689346   5.882244
    14  C    7.951404   6.443271   5.924056   6.848384   6.849918
    15  H    9.759493   8.280705   7.502965   8.254468   7.891607
    16  H    8.996520   7.671578   6.572313   7.219818   6.550500
    17  H    8.562211   7.047096   6.690958   7.604218   7.704795
    18  F    6.763225   5.613102   4.404309   5.139584   4.559382
    19  F    6.106693   4.620157   4.590315   5.709573   6.228718
    20  H    1.093554   2.179540   2.905260   2.856563   4.307674
    21  H    1.094510   2.171316   2.787947   3.370170   4.585159
    22  H    1.094917   2.158327   3.507054   4.134906   5.599370
    23  H    2.150263   1.096360   2.191511   2.915266   4.328784
    24  H    2.122998   1.096543   2.173312   3.538106   4.751593
    25  H    2.757592   2.838249   2.152008   1.098013   2.126187
    26  H    5.206202   4.367092   2.948183   2.202101   1.095889
    27  H    5.100393   4.764461   3.518159   2.172250   1.095474
    28  H    4.917711   4.228292   2.723223   2.749719   1.930111
    29  H    4.232870   2.882727   2.800042   4.278384   4.929943
    30  H    4.575569   3.456354   2.646641   3.945068   4.135206
    31  H    2.786075   2.146061   1.098365   2.149213   2.794576
    32  C    3.641538   3.099941   2.593450   1.533237   2.500302
    33  H    3.130237   2.789334   2.870885   2.186926   3.467804
    34  H    4.340358   3.455265   2.874950   2.188738   2.808438
    35  H    4.410708   4.105082   3.537573   2.174405   2.691055
    36  H    4.049417   2.590048   2.058421   2.837670   3.492325
                    6          7          8          9         10
     6  O    0.000000
     7  N    3.336197   0.000000
     8  C    4.095664   1.463222   0.000000
     9  C    7.007913   5.009426   4.317827   0.000000
    10  C    5.973866   4.517258   3.811279   1.394187   0.000000
    11  C    4.814528   3.295986   2.522594   2.413252   1.394535
    12  C    4.884483   2.435833   1.500758   2.817189   2.434211
    13  C    6.102467   3.257890   2.522673   2.412531   2.774850
    14  C    7.061413   4.489577   3.811602   1.394099   2.409283
    15  H    7.943311   6.060701   5.404806   1.086991   2.156373
    16  H    6.247682   5.319690   4.669913   2.160825   1.086012
    17  H    8.023649   5.277791   4.670659   2.160305   3.399327
    18  F    3.992802   3.472906   2.843025   3.626397   2.352199
    19  F    6.613704   3.394991   2.840371   3.626458   4.115828
    20  H    4.812374   4.244076   5.135932   9.211149   8.727418
    21  H    4.572343   4.152621   4.594649   8.897706   8.285176
    22  H    5.920852   4.638749   5.107070   9.260633   8.899693
    23  H    5.018582   2.737090   3.533093   7.237078   7.035063
    24  H    4.953057   2.727137   2.809811   6.928228   6.599393
    25  H    2.704805   3.393231   4.543134   8.255976   7.552445
    26  H    2.054171   2.752437   3.915491   6.137773   5.376278
    27  H    2.036912   3.992846   5.216367   7.882490   7.058267
    28  H    0.975957   2.810169   3.317459   6.150287   5.085607
    29  H    4.959049   2.121841   1.096102   4.797290   4.519532
    30  H    3.731619   2.115943   1.097209   4.789221   4.016929
    31  H    2.572754   2.102347   2.569921   6.668595   5.900452
    32  C    3.773098   3.100473   4.539871   7.582380   7.171859
    33  H    4.615030   3.546178   4.879084   8.142755   7.836135
    34  H    4.111748   2.827760   4.258344   6.788858   6.507158
    35  H    4.035827   4.068582   5.521686   8.344767   7.890849
    36  H    4.163280   1.020839   2.035359   5.006219   4.784941
                   11         12         13         14         15
    11  C    0.000000
    12  C    1.395801   0.000000
    13  C    2.389965   1.395504   0.000000
    14  C    2.775880   2.434548   1.394406   0.000000
    15  H    3.400235   3.904180   3.399966   2.156770   0.000000
    16  H    2.147909   3.409398   3.860717   3.399624   2.495417
    17  H    3.861673   3.409983   2.148567   1.085927   2.495447
    18  F    1.341204   2.369903   3.622251   4.116883   4.505439
    19  F    3.621208   2.367960   1.341162   2.353009   4.506488
    20  H    7.426260   6.521961   7.167029   8.506216  10.267221
    21  H    6.910668   6.089174   6.911160   8.285648   9.982677
    22  H    7.600225   6.528073   7.026505   8.411065  10.327249
    23  H    5.869118   4.708519   5.015397   6.334555   8.262965
    24  H    5.332344   4.195982   4.708536   6.102389   7.998310
    25  H    6.292572   5.746157   6.648029   7.853569   9.271733
    26  H    4.428609   4.356136   5.259648   6.084724   7.009273
    27  H    6.040099   5.937331   6.893311   7.806807   8.760667
    28  H    3.889265   4.018798   5.297445   6.237536   7.101477
    29  H    3.349474   2.130052   2.675682   4.041710   5.864095
    30  H    2.643414   2.124663   3.363474   4.527449   5.855540
    31  H    4.524516   3.944877   5.026284   6.296672   7.737394
    32  C    6.116630   5.415171   5.949778   7.029138   8.521001
    33  H    6.749136   5.870749   6.279260   7.432117   9.101455
    34  H    5.585483   4.872992   5.241839   6.212519   7.678289
    35  H    6.894101   6.326123   6.884375   7.882478   9.236258
    36  H    3.741301   2.690800   3.066156   4.273765   6.015353
                   16         17         18         19         20
    16  H    0.000000
    17  H    4.307132   0.000000
    18  F    2.580537   5.202748   0.000000
    19  F    5.201756   2.583241   4.735705   0.000000
    20  H    9.476188   9.109786   7.262540   6.721172   0.000000
    21  H    8.985352   8.986500   6.599182   6.596504   1.776643
    22  H    9.738020   8.928283   7.578656   6.384069   1.763978
    23  H    7.940088   6.804810   6.126844   4.366988   2.488926
    24  H    7.479690   6.683205   5.477443   4.190707   3.050111
    25  H    8.123640   8.619163   5.892630   6.614936   2.308526
    26  H    5.779538   6.922278   4.102614   5.719368   5.056693
    27  H    7.393417   8.634520   5.508807   7.219322   4.661427
    28  H    5.384189   7.232526   3.044431   5.903792   5.086344
    29  H    5.451117   4.733399   3.801845   2.530068   5.033540
    30  H    4.699304   5.466725   2.473389   3.831253   5.278683
    31  H    6.521935   7.153965   4.117011   5.138585   3.261552
    32  C    7.855175   7.621097   6.114662   5.771399   3.149016
    33  H    8.601952   7.935191   6.833680   5.871776   2.555497
    34  H    7.224789   6.745167   5.775303   5.088771   4.025069
    35  H    8.488427   8.474507   6.800282   6.772775   3.716609
    36  H    5.679994   4.897464   4.199497   2.912615   4.364806
                   21         22         23         24         25
    21  H    0.000000
    22  H    1.771013   0.000000
    23  H    3.068459   2.498909   0.000000
    24  H    2.515606   2.400573   1.752617   0.000000
    25  H    2.852878   3.813427   3.301726   3.804727   0.000000
    26  H    5.368900   6.222656   4.565119   5.055963   3.060937
    27  H    5.156349   6.160128   5.046038   5.643308   2.406493
    28  H    4.659094   5.952901   4.891073   4.616570   3.218301
    29  H    4.425380   4.644578   3.238244   2.244346   4.945046
    30  H    4.425417   5.265109   4.134672   3.112219   4.547008
    31  H    2.558643   3.743548   3.068512   2.464618   2.394984
    32  C    4.268564   4.468721   2.838278   4.118019   2.141884
    33  H    3.959015   3.768511   2.303574   3.829318   2.482504
    34  H    5.012863   5.098921   3.019743   4.322489   3.070154
    35  H    4.966007   5.240084   3.867339   5.155389   2.486153
    36  H    4.579757   4.695323   2.411419   2.869006   3.808294
                   26         27         28         29         30
    26  H    0.000000
    27  H    1.763201   0.000000
    28  H    2.167461   2.804019   0.000000
    29  H    4.816902   5.998368   4.250980   0.000000
    30  H    4.091566   5.218502   2.885926   1.756073   0.000000
    31  H    3.318877   3.730440   2.299738   2.969683   2.284274
    32  C    2.740087   2.754009   4.069173   4.923561   5.012099
    33  H    3.786204   3.724781   4.877438   5.028124   5.405486
    34  H    2.603185   3.199286   4.219985   4.687640   4.907064
    35  H    2.983352   2.488952   4.529078   5.979730   5.924851
    36  H    3.167926   4.427829   3.732423   2.366824   2.949300
                   31         32         33         34         35
    31  H    0.000000
    32  C    3.497851   0.000000
    33  H    3.814904   1.093629   0.000000
    34  H    3.872606   1.094734   1.772965   0.000000
    35  H    4.309255   1.095738   1.759534   1.767865   0.000000
    36  H    2.941013   2.940436   3.240242   2.419565   3.954018
                   36
    36  H    0.000000
 Stoichiometry    C13H19F2NO
 Framework group  C1[X(C13H19F2NO)]
 Deg. of freedom   102
 Full point group                 C1      NOp   1
 Largest Abelian subgroup         C1      NOp   1
 Largest concise Abelian subgroup C1      NOp   1
                         Standard orientation:                         
 ---------------------------------------------------------------------
 Center     Atomic      Atomic             Coordinates (Angstroms)
 Number     Number       Type             X           Y           Z
 ---------------------------------------------------------------------
      1          6           0       -3.903874   -1.745482   -1.195214
      2          6           0       -2.481945   -1.681201   -0.652518
      3          6           0       -1.988847   -0.242443   -0.372758
      4          6           0       -2.885357    0.550272    0.627240
      5          6           0       -2.372784    1.980853    0.882669
      6          8           0       -2.135996    2.675793   -0.334963
      7          7           0       -0.601681   -0.251009    0.123203
      8          6           0        0.388919   -0.494402   -0.925840
      9          6           0        4.361785    0.224929    0.604692
     10          6           0        3.656713    1.248750   -0.026515
     11          6           0        2.375940    1.006333   -0.522078
     12          6           0        1.775659   -0.248566   -0.407390
     13          6           0        2.494815   -1.257560    0.234621
     14          6           0        3.776486   -1.033509    0.736106
     15          1           0        5.359698    0.408080    0.994787
     16          1           0        4.093074    2.237289   -0.135154
     17          1           0        4.307464   -1.842539    1.228825
     18          9           0        1.720767    2.009471   -1.124813
     19          9           0        1.950759   -2.474689    0.380616
     20          1           0       -4.637586   -1.433772   -0.446641
     21          1           0       -4.015865   -1.109756   -2.079105
     22          1           0       -4.147375   -2.772921   -1.484904
     23          1           0       -2.410792   -2.301124    0.248947
     24          1           0       -1.830079   -2.152173   -1.397945
     25          1           0       -3.870484    0.658910    0.154636
     26          1           0       -1.451721    1.990009    1.476414
     27          1           0       -3.123367    2.549747    1.442176
     28          1           0       -1.264882    2.368145   -0.649613
     29          1           0        0.321642   -1.521023   -1.303944
     30          1           0        0.212025    0.164206   -1.785381
     31          1           0       -2.021012    0.303956   -1.325029
     32          6           0       -3.086149   -0.151897    1.975371
     33          1           0       -3.570394   -1.125025    1.854738
     34          1           0       -2.136265   -0.304522    2.497738
     35          1           0       -3.730959    0.447389    2.627842
     36          1           0       -0.495285   -0.963636    0.846359
 ---------------------------------------------------------------------
 Rotational constants (GHZ):      0.6930107      0.2651688      0.2221953
 Standard basis: 6-31G(d,p) (6D, 7F)
 There are   350 symmetry adapted cartesian basis functions of A   symmetry.
 There are   350 symmetry adapted basis functions of A   symmetry.
   350 basis functions,   609 primitive gaussians,   350 cartesian basis functions
    65 alpha electrons       65 beta electrons
       nuclear repulsion energy      1270.8888798820 Hartrees.
 NAtoms=   36 NActive=   36 NUniq=   36 SFac= 1.00D+00 NAtFMM=   60 NAOKFM=F Big=F
 Integral buffers will be    131072 words long.
 Raffenetti 2 integral format.
 Two-electron integral symmetry is turned on.
 ------------------------------------------------------------------------------
 Polarizable Continuum Model (PCM)
 =================================
 Model                : PCM (using non-symmetric T matrix).
 Atomic radii         : UFF (Universal Force Field).
 Polarization charges : Total charges.
 Charge compensation  : None.
 Solution method      : On-the-fly selection.
 Cavity type          : Scaled VdW (van der Waals Surface) (Alpha=1.100).
 Cavity algorithm     : GePol (No added spheres)
                        Default sphere list used, NSphG=   36.
                        Lebedev-Laikov grids with approx.  5.0 points / Ang**2.
                        Smoothing algorithm: Karplus/York (Gamma=1.0000).
                        Polarization charges: spherical gaussians, with
                                              point-specific exponents (IZeta= 3).
                        Self-potential: point-specific (ISelfS= 7).
                        Self-field    : sphere-specific E.n sum rule (ISelfD= 2).
 1st derivatives      : Analytical E(r).r(x)/FMM algorithm (CHGder, D1EAlg=3).
                        Cavity 1st derivative terms included.
 Solvent              : Chloroform, Eps=   4.711300 Eps(inf)=   2.090627
 ------------------------------------------------------------------------------
 One-electron integrals computed using PRISM.
 NBasis=   350 RedAO= T EigKep=  4.09D-04  NBF=   350
 NBsUse=   350 1.00D-06 EigRej= -1.00D+00 NBFU=   350
 ExpMin= 1.61D-01 ExpMax= 7.00D+03 ExpMxC= 1.05D+03 IAcc=1 IRadAn=         1 AccDes= 0.00D+00
 Harris functional with IExCor=  402 and IRadAn=       1 diagonalized for initial guess.
 HarFok:  IExCor=  402 AccDes= 0.00D+00 IRadAn=         1 IDoV= 1 UseB2=F ITyADJ=14
 ICtDFT=  3500011 ScaDFX=  1.000000  1.000000  1.000000  1.000000
 FoFCou: FMM=F IPFlag=           0 FMFlag=      100000 FMFlg1=           0
         NFxFlg=           0 DoJE=T BraDBF=F KetDBF=T FulRan=T
         wScrn=  0.000000 ICntrl=     500 IOpCl=  0 I1Cent=   200000004 NGrid=           0
         NMat0=    1 NMatS0=      1 NMatT0=    0 NMatD0=    1 NMtDS0=    0 NMtDT0=    0
 Petite list used in FoFCou.
 Requested convergence on RMS density matrix=1.00D-08 within 128 cycles.
 Requested convergence on MAX density matrix=1.00D-06.
 Requested convergence on             energy=1.00D-06.
 No special actions if energy rises.
 Inv3:  Mode=1 IEnd=    18930432.
 Iteration    1 A*A^-1 deviation from unit magnitude is 7.99D-15 for    516.
 Iteration    1 A*A^-1 deviation from orthogonality  is 7.11D-15 for   2300   1134.
 Iteration    1 A^-1*A deviation from unit magnitude is 7.11D-15 for   1305.
 Iteration    1 A^-1*A deviation from orthogonality  is 6.13D-12 for   2087   2086.
 Error on total polarization charges =  0.00776
 SCF Done:  E(RB3LYP) =  -836.490493306     A.U. after   12 cycles
            NFock= 12  Conv=0.67D-08     -V/T= 2.0088

 **********************************************************************

            Population analysis using the SCF density.

 **********************************************************************

 Orbital symmetries:
       Occupied  (A) (A) (A) (A) (A) (A) (A) (A) (A) (A) (A) (A)
                 (A) (A) (A) (A) (A) (A) (A) (A) (A) (A) (A) (A)
                 (A) (A) (A) (A) (A) (A) (A) (A) (A) (A) (A) (A)
                 (A) (A) (A) (A) (A) (A) (A) (A) (A) (A) (A) (A)
                 (A) (A) (A) (A) (A) (A) (A) (A) (A) (A) (A) (A)
                 (A) (A) (A) (A) (A)
       Virtual   (A) (A) (A) (A) (A) (A) (A) (A) (A) (A) (A) (A)
                 (A) (A) (A) (A) (A) (A) (A) (A) (A) (A) (A) (A)
                 (A) (A) (A) (A) (A) (A) (A) (A) (A) (A) (A) (A)
                 (A) (A) (A) (A) (A) (A) (A) (A) (A) (A) (A) (A)
                 (A) (A) (A) (A) (A) (A) (A) (A) (A) (A) (A) (A)
                 (A) (A) (A) (A) (A) (A) (A) (A) (A) (A) (A) (A)
                 (A) (A) (A) (A) (A) (A) (A) (A) (A) (A) (A) (A)
                 (A) (A) (A) (A) (A) (A) (A) (A) (A) (A) (A) (A)
                 (A) (A) (A) (A) (A) (A) (A) (A) (A) (A) (A) (A)
                 (A) (A) (A) (A) (A) (A) (A) (A) (A) (A) (A) (A)
                 (A) (A) (A) (A) (A) (A) (A) (A) (A) (A) (A) (A)
                 (A) (A) (A) (A) (A) (A) (A) (A) (A) (A) (A) (A)
                 (A) (A) (A) (A) (A) (A) (A) (A) (A) (A) (A) (A)
                 (A) (A) (A) (A) (A) (A) (A) (A) (A) (A) (A) (A)
                 (A) (A) (A) (A) (A) (A) (A) (A) (A) (A) (A) (A)
                 (A) (A) (A) (A) (A) (A) (A) (A) (A) (A) (A) (A)
                 (A) (A) (A) (A) (A) (A) (A) (A) (A) (A) (A) (A)
                 (A) (A) (A) (A) (A) (A) (A) (A) (A) (A) (A) (A)
                 (A) (A) (A) (A) (A) (A) (A) (A) (A) (A) (A) (A)
                 (A) (A) (A) (A) (A) (A) (A) (A) (A) (A) (A) (A)
                 (A) (A) (A) (A) (A) (A) (A) (A) (A) (A) (A) (A)
                 (A) (A) (A) (A) (A) (A) (A) (A) (A) (A) (A) (A)
                 (A) (A) (A) (A) (A) (A) (A) (A) (A) (A) (A) (A)
                 (A) (A) (A) (A) (A) (A) (A) (A) (A)
 The electronic state is 1-A.
 Alpha  occ. eigenvalues --  -24.72025 -24.72021 -19.13560 -14.31894 -10.28161
 Alpha  occ. eigenvalues --  -10.28156 -10.21709 -10.21669 -10.20896 -10.20734
 Alpha  occ. eigenvalues --  -10.20693 -10.19886 -10.19869 -10.17967 -10.17707
 Alpha  occ. eigenvalues --  -10.17178 -10.17112  -1.23382  -1.23310  -1.00646
 Alpha  occ. eigenvalues --   -0.91073  -0.86899  -0.80004  -0.76853  -0.75423
 Alpha  occ. eigenvalues --   -0.75364  -0.68941  -0.66362  -0.64918  -0.63024
 Alpha  occ. eigenvalues --   -0.60971  -0.60440  -0.56196  -0.54983  -0.52917
 Alpha  occ. eigenvalues --   -0.50140  -0.49733  -0.49331  -0.48617  -0.47220
 Alpha  occ. eigenvalues --   -0.46583  -0.45769  -0.44916  -0.44371  -0.44170
 Alpha  occ. eigenvalues --   -0.42060  -0.41019  -0.40282  -0.39936  -0.38997
 Alpha  occ. eigenvalues --   -0.38835  -0.37458  -0.37171  -0.36029  -0.35699
 Alpha  occ. eigenvalues --   -0.35343  -0.34528  -0.34039  -0.33263  -0.31525
 Alpha  occ. eigenvalues --   -0.30346  -0.25773  -0.25518  -0.24756  -0.22073
 Alpha virt. eigenvalues --   -0.01389  -0.00246   0.06511   0.08163   0.08763
 Alpha virt. eigenvalues --    0.09791   0.11319   0.13510   0.13948   0.14548
 Alpha virt. eigenvalues --    0.14833   0.15222   0.15681   0.16064   0.16728
 Alpha virt. eigenvalues --    0.17114   0.17987   0.18334   0.18816   0.19978
 Alpha virt. eigenvalues --    0.20241   0.20623   0.21494   0.22377   0.22759
 Alpha virt. eigenvalues --    0.23727   0.24197   0.25584   0.27043   0.27834
 Alpha virt. eigenvalues --    0.27912   0.29272   0.29972   0.30705   0.33216
 Alpha virt. eigenvalues --    0.37325   0.38541   0.46227   0.49583   0.49719
 Alpha virt. eigenvalues --    0.50917   0.51570   0.51862   0.52662   0.52928
 Alpha virt. eigenvalues --    0.53887   0.55267   0.55606   0.57527   0.57641
 Alpha virt. eigenvalues --    0.58505   0.59049   0.59453   0.59717   0.60779
 Alpha virt. eigenvalues --    0.62074   0.62276   0.62981   0.64860   0.65404
 Alpha virt. eigenvalues --    0.65956   0.67010   0.67634   0.68651   0.70293
 Alpha virt. eigenvalues --    0.72195   0.74099   0.76271   0.77315   0.79066
 Alpha virt. eigenvalues --    0.79603   0.81346   0.82191   0.82452   0.83353
 Alpha virt. eigenvalues --    0.84394   0.84804   0.85881   0.86390   0.86873
 Alpha virt. eigenvalues --    0.87516   0.87973   0.88597   0.89633   0.90759
 Alpha virt. eigenvalues --    0.91059   0.91708   0.93045   0.93694   0.94180
 Alpha virt. eigenvalues --    0.95066   0.96614   0.97267   0.97874   0.98382
 Alpha virt. eigenvalues --    0.99654   1.02744   1.02983   1.04155   1.05664
 Alpha virt. eigenvalues --    1.07036   1.09605   1.10293   1.11819   1.13959
 Alpha virt. eigenvalues --    1.17297   1.19108   1.21273   1.21701   1.22006
 Alpha virt. eigenvalues --    1.23431   1.24703   1.28050   1.29601   1.31469
 Alpha virt. eigenvalues --    1.35213   1.35963   1.37329   1.38554   1.39032
 Alpha virt. eigenvalues --    1.39465   1.42053   1.42529   1.43491   1.45140
 Alpha virt. eigenvalues --    1.47604   1.48917   1.49173   1.51389   1.54361
 Alpha virt. eigenvalues --    1.55365   1.59036   1.60659   1.62142   1.66471
 Alpha virt. eigenvalues --    1.68311   1.69267   1.71524   1.72833   1.73918
 Alpha virt. eigenvalues --    1.76174   1.76609   1.77361   1.78542   1.80720
 Alpha virt. eigenvalues --    1.81641   1.82439   1.84016   1.85106   1.86563
 Alpha virt. eigenvalues --    1.86681   1.87388   1.88194   1.88770   1.89098
 Alpha virt. eigenvalues --    1.89567   1.90670   1.91562   1.93473   1.94413
 Alpha virt. eigenvalues --    1.95852   1.98215   1.98396   2.00317   2.00868
 Alpha virt. eigenvalues --    2.02587   2.03797   2.04752   2.05386   2.05893
 Alpha virt. eigenvalues --    2.06049   2.07166   2.07678   2.09739   2.10866
 Alpha virt. eigenvalues --    2.12917   2.13140   2.15272   2.17629   2.18612
 Alpha virt. eigenvalues --    2.18845   2.21700   2.22601   2.23009   2.26165
 Alpha virt. eigenvalues --    2.27060   2.27968   2.29045   2.29944   2.30745
 Alpha virt. eigenvalues --    2.31242   2.31622   2.33204   2.35151   2.36137
 Alpha virt. eigenvalues --    2.37132   2.37620   2.38120   2.38807   2.40708
 Alpha virt. eigenvalues --    2.41033   2.43051   2.45226   2.47313   2.48430
 Alpha virt. eigenvalues --    2.49362   2.50645   2.52404   2.54486   2.55556
 Alpha virt. eigenvalues --    2.56610   2.57726   2.57857   2.58734   2.62516
 Alpha virt. eigenvalues --    2.64767   2.65382   2.65957   2.67173   2.68447
 Alpha virt. eigenvalues --    2.70208   2.71360   2.73123   2.73500   2.74896
 Alpha virt. eigenvalues --    2.75669   2.76020   2.76917   2.78484   2.81088
 Alpha virt. eigenvalues --    2.82624   2.84518   2.86137   2.88094   2.90341
 Alpha virt. eigenvalues --    2.91577   2.92154   2.93118   2.94759   2.95864
 Alpha virt. eigenvalues --    3.00547   3.01423   3.04035   3.04380   3.06427
 Alpha virt. eigenvalues --    3.09962   3.14693   3.20130   3.20420   3.22501
 Alpha virt. eigenvalues --    3.25547   3.27652   3.30409   3.31202   3.34964
 Alpha virt. eigenvalues --    3.35745   3.35835   3.39895   3.41710   3.46035
 Alpha virt. eigenvalues --    3.46744   3.48576   3.52003   3.52297   3.53699
 Alpha virt. eigenvalues --    3.55208   3.57210   3.80333   3.93241   4.07420
 Alpha virt. eigenvalues --    4.09820   4.12368   4.18220   4.33832   4.38177
 Alpha virt. eigenvalues --    4.42091   4.43010   4.51709   4.56768   4.60362
 Alpha virt. eigenvalues --    4.66801   4.76021   4.78981   5.50627   5.63620
          Condensed to atoms (all electrons):
               1          2          3          4          5          6
     1  C    4.944754   0.344437  -0.040783  -0.000104  -0.000056  -0.000008
     2  C    0.344437   4.965789   0.376507  -0.053080   0.005198   0.000305
     3  C   -0.040783   0.376507   4.868624   0.353856  -0.032695  -0.002301
     4  C   -0.000104  -0.053080   0.353856   5.079549   0.336322  -0.055543
     5  C   -0.000056   0.005198  -0.032695   0.336322   4.759753   0.241424
     6  O   -0.000008   0.000305  -0.002301  -0.055543   0.241424   8.159465
     7  N    0.005013  -0.055599   0.280307  -0.058859  -0.003619  -0.002592
     8  C    0.000122  -0.003432  -0.042063   0.005691  -0.000042  -0.000045
     9  C    0.000000   0.000000   0.000000   0.000000   0.000000   0.000000
    10  C    0.000000   0.000000   0.000004   0.000000   0.000000   0.000000
    11  C    0.000000  -0.000001   0.000057  -0.000041  -0.000003  -0.000005
    12  C    0.000000   0.000138   0.004664  -0.000182  -0.000023   0.000010
    13  C    0.000000  -0.000007   0.000082   0.000009   0.000000   0.000000
    14  C    0.000000   0.000000   0.000005   0.000000   0.000000   0.000000
    15  H    0.000000   0.000000   0.000000   0.000000   0.000000   0.000000
    16  H    0.000000   0.000000   0.000000   0.000000   0.000000   0.000000
    17  H    0.000000   0.000000   0.000000   0.000000   0.000000   0.000000
    18  F    0.000000   0.000000  -0.000044   0.000005  -0.000027  -0.000079
    19  F    0.000000  -0.000014   0.000014   0.000000   0.000000   0.000000
    20  H    0.388854  -0.034715  -0.005939   0.002401  -0.000031  -0.000001
    21  H    0.388278  -0.036987  -0.004906  -0.001566  -0.000040  -0.000005
    22  H    0.375900  -0.025987   0.004138   0.000084   0.000000   0.000000
    23  H   -0.037679   0.380114  -0.032464  -0.009178  -0.000058  -0.000004
    24  H   -0.038627   0.383386  -0.034013   0.004876  -0.000115   0.000002
    25  H    0.002289  -0.003784  -0.041665   0.370814  -0.038403   0.002582
    26  H   -0.000010   0.000149  -0.010498  -0.049248   0.375232  -0.032170
    27  H   -0.000003  -0.000057   0.005031  -0.044161   0.381280  -0.035650
    28  H   -0.000014   0.000119   0.005152  -0.006856  -0.031367   0.283206
    29  H   -0.000496   0.002734  -0.001258  -0.000378   0.000027  -0.000004
    30  H    0.000028  -0.001053  -0.005493   0.000540  -0.000117   0.000075
    31  H   -0.003217  -0.045529   0.373767  -0.042433  -0.008649   0.013824
    32  C   -0.002331  -0.005462  -0.037237   0.327049  -0.040947   0.003286
    33  H    0.000111   0.001984  -0.005638  -0.024594   0.003859  -0.000073
    34  H    0.000064  -0.000205  -0.006582  -0.035429  -0.005886  -0.000018
    35  H    0.000017   0.000111   0.004785  -0.031040  -0.004325   0.000044
    36  H    0.000059  -0.007127  -0.035370  -0.002351  -0.000158   0.000020
               7          8          9         10         11         12
     1  C    0.005013   0.000122   0.000000   0.000000   0.000000   0.000000
     2  C   -0.055599  -0.003432   0.000000   0.000000  -0.000001   0.000138
     3  C    0.280307  -0.042063   0.000000   0.000004   0.000057   0.004664
     4  C   -0.058859   0.005691   0.000000   0.000000  -0.000041  -0.000182
     5  C   -0.003619  -0.000042   0.000000   0.000000  -0.000003  -0.000023
     6  O   -0.002592  -0.000045   0.000000   0.000000  -0.000005   0.000010
     7  N    6.924137   0.287665   0.000021  -0.000004   0.006556  -0.056841
     8  C    0.287665   4.927546  -0.000584   0.008272  -0.049571   0.303076
     9  C    0.000021  -0.000584   4.853455   0.486720  -0.009212  -0.028580
    10  C   -0.000004   0.008272   0.486720   5.051838   0.476652  -0.072877
    11  C    0.006556  -0.049571  -0.009212   0.476652   4.596946   0.405769
    12  C   -0.056841   0.303076  -0.028580  -0.072877   0.405769   5.325005
    13  C   -0.007209  -0.047049  -0.008865  -0.049732   0.014035   0.396721
    14  C   -0.000153   0.008689   0.487630  -0.031429  -0.049695  -0.074822
    15  H    0.000000   0.000004   0.375574  -0.034552   0.003633   0.000206
    16  H    0.000003  -0.000149  -0.037220   0.358904  -0.032640   0.006364
    17  H    0.000001  -0.000156  -0.037395   0.004701   0.000489   0.006567
    18  F   -0.000495  -0.000586   0.003000  -0.046738   0.307583  -0.053218
    19  F   -0.001282   0.002039   0.002979  -0.000066   0.002385  -0.058229
    20  H    0.000002   0.000002   0.000000   0.000000   0.000000   0.000000
    21  H    0.000050  -0.000014   0.000000   0.000000   0.000000   0.000000
    22  H   -0.000139  -0.000003   0.000000   0.000000   0.000000   0.000000
    23  H   -0.004018  -0.000242   0.000000   0.000000   0.000001  -0.000012
    24  H   -0.003539   0.001324   0.000000   0.000000  -0.000009  -0.000035
    25  H    0.004772  -0.000180   0.000000   0.000000   0.000000   0.000003
    26  H    0.012507  -0.000444   0.000000   0.000001   0.000112   0.000017
    27  H    0.000275   0.000001   0.000000   0.000000   0.000000  -0.000001
    28  H    0.005958   0.000563  -0.000001   0.000014   0.000398  -0.000643
    29  H   -0.049717   0.357198  -0.000043  -0.000130   0.006460  -0.035452
    30  H   -0.042678   0.375806  -0.000013   0.000251  -0.009697  -0.028222
    31  H   -0.044541  -0.007666   0.000000   0.000000   0.000001   0.000244
    32  C   -0.008086   0.000137   0.000000   0.000000   0.000000   0.000000
    33  H    0.000064  -0.000016   0.000000   0.000000   0.000000   0.000000
    34  H    0.004942  -0.000211   0.000000   0.000000   0.000003   0.000027
    35  H   -0.000018   0.000001   0.000000   0.000000   0.000000   0.000000
    36  H    0.331374  -0.033804  -0.000013  -0.000002  -0.000458  -0.006246
              13         14         15         16         17         18
     1  C    0.000000   0.000000   0.000000   0.000000   0.000000   0.000000
     2  C   -0.000007   0.000000   0.000000   0.000000   0.000000   0.000000
     3  C    0.000082   0.000005   0.000000   0.000000   0.000000  -0.000044
     4  C    0.000009   0.000000   0.000000   0.000000   0.000000   0.000005
     5  C    0.000000   0.000000   0.000000   0.000000   0.000000  -0.000027
     6  O    0.000000   0.000000   0.000000   0.000000   0.000000  -0.000079
     7  N   -0.007209  -0.000153   0.000000   0.000003   0.000001  -0.000495
     8  C   -0.047049   0.008689   0.000004  -0.000149  -0.000156  -0.000586
     9  C   -0.008865   0.487630   0.375574  -0.037220  -0.037395   0.003000
    10  C   -0.049732  -0.031429  -0.034552   0.358904   0.004701  -0.046738
    11  C    0.014035  -0.049695   0.003633  -0.032640   0.000489   0.307583
    12  C    0.396721  -0.074822   0.000206   0.006364   0.006567  -0.053218
    13  C    4.618527   0.473445   0.003632   0.000477  -0.032448   0.002491
    14  C    0.473445   5.057466  -0.034753   0.004719   0.358402  -0.000057
    15  H    0.003632  -0.034753   0.580633  -0.005926  -0.005944  -0.000023
    16  H    0.000477   0.004719  -0.005926   0.593635  -0.000150  -0.000485
    17  H   -0.032448   0.358402  -0.005944  -0.000150   0.594650   0.000001
    18  F    0.002491  -0.000057  -0.000023  -0.000485   0.000001   9.067796
    19  F    0.310666  -0.047559  -0.000022   0.000001  -0.000408   0.000000
    20  H    0.000000   0.000000   0.000000   0.000000   0.000000   0.000000
    21  H    0.000000   0.000000   0.000000   0.000000   0.000000   0.000000
    22  H    0.000000   0.000000   0.000000   0.000000   0.000000   0.000000
    23  H   -0.000008   0.000000   0.000000   0.000000   0.000000   0.000000
    24  H    0.000018   0.000000   0.000000   0.000000   0.000000   0.000000
    25  H    0.000000   0.000000   0.000000   0.000000   0.000000   0.000000
    26  H   -0.000007   0.000000   0.000000   0.000000   0.000000  -0.000005
    27  H    0.000000   0.000000   0.000000   0.000000   0.000000   0.000000
    28  H   -0.000011   0.000000   0.000000   0.000000   0.000000   0.002989
    29  H   -0.013203   0.000121   0.000000   0.000003   0.000002   0.000172
    30  H    0.005439  -0.000190   0.000000  -0.000008   0.000002   0.007545
    31  H   -0.000009   0.000000   0.000000   0.000000   0.000000  -0.000052
    32  C   -0.000001   0.000000   0.000000   0.000000   0.000000   0.000000
    33  H    0.000000   0.000000   0.000000   0.000000   0.000000   0.000000
    34  H   -0.000009   0.000000   0.000000   0.000000   0.000000   0.000000
    35  H    0.000000   0.000000   0.000000   0.000000   0.000000   0.000000
    36  H    0.004463  -0.000028   0.000000   0.000000   0.000001  -0.000010
              19         20         21         22         23         24
     1  C    0.000000   0.388854   0.388278   0.375900  -0.037679  -0.038627
     2  C   -0.000014  -0.034715  -0.036987  -0.025987   0.380114   0.383386
     3  C    0.000014  -0.005939  -0.004906   0.004138  -0.032464  -0.034013
     4  C    0.000000   0.002401  -0.001566   0.000084  -0.009178   0.004876
     5  C    0.000000  -0.000031  -0.000040   0.000000  -0.000058  -0.000115
     6  O    0.000000  -0.000001  -0.000005   0.000000  -0.000004   0.000002
     7  N   -0.001282   0.000002   0.000050  -0.000139  -0.004018  -0.003539
     8  C    0.002039   0.000002  -0.000014  -0.000003  -0.000242   0.001324
     9  C    0.002979   0.000000   0.000000   0.000000   0.000000   0.000000
    10  C   -0.000066   0.000000   0.000000   0.000000   0.000000   0.000000
    11  C    0.002385   0.000000   0.000000   0.000000   0.000001  -0.000009
    12  C   -0.058229   0.000000   0.000000   0.000000  -0.000012  -0.000035
    13  C    0.310666   0.000000   0.000000   0.000000  -0.000008   0.000018
    14  C   -0.047559   0.000000   0.000000   0.000000   0.000000   0.000000
    15  H   -0.000022   0.000000   0.000000   0.000000   0.000000   0.000000
    16  H    0.000001   0.000000   0.000000   0.000000   0.000000   0.000000
    17  H   -0.000408   0.000000   0.000000   0.000000   0.000000   0.000000
    18  F    0.000000   0.000000   0.000000   0.000000   0.000000   0.000000
    19  F    9.071650   0.000000   0.000000   0.000000  -0.000005  -0.000019
    20  H    0.000000   0.600421  -0.032229  -0.031520  -0.006348   0.005536
    21  H    0.000000  -0.032229   0.603839  -0.031248   0.005589  -0.004179
    22  H    0.000000  -0.031520  -0.031248   0.615860  -0.002420  -0.005207
    23  H   -0.000005  -0.006348   0.005589  -0.002420   0.634433  -0.039766
    24  H   -0.000019   0.005536  -0.004179  -0.005207  -0.039766   0.633991
    25  H    0.000000   0.000950   0.000656   0.000005   0.000056  -0.000042
    26  H    0.000000  -0.000001   0.000000   0.000000  -0.000010  -0.000002
    27  H    0.000000   0.000007   0.000000   0.000000  -0.000003   0.000002
    28  H    0.000000   0.000000   0.000001   0.000000   0.000003   0.000002
    29  H    0.005949   0.000000   0.000012   0.000026   0.000297   0.002200
    30  H    0.000203   0.000001  -0.000004  -0.000002   0.000028   0.000561
    31  H    0.000000  -0.000293   0.005248  -0.000096   0.005658  -0.005201
    32  C    0.000000   0.000426   0.000166  -0.000004   0.003256   0.000097
    33  H    0.000000   0.001782  -0.000040  -0.000051   0.001551  -0.000037
    34  H   -0.000001  -0.000042  -0.000004   0.000003   0.000165  -0.000025
    35  H    0.000000  -0.000046   0.000000   0.000000  -0.000108   0.000000
    36  H    0.003023   0.000003   0.000021  -0.000005   0.006141  -0.000123
              25         26         27         28         29         30
     1  C    0.002289  -0.000010  -0.000003  -0.000014  -0.000496   0.000028
     2  C   -0.003784   0.000149  -0.000057   0.000119   0.002734  -0.001053
     3  C   -0.041665  -0.010498   0.005031   0.005152  -0.001258  -0.005493
     4  C    0.370814  -0.049248  -0.044161  -0.006856  -0.000378   0.000540
     5  C   -0.038403   0.375232   0.381280  -0.031367   0.000027  -0.000117
     6  O    0.002582  -0.032170  -0.035650   0.283206  -0.000004   0.000075
     7  N    0.004772   0.012507   0.000275   0.005958  -0.049717  -0.042678
     8  C   -0.000180  -0.000444   0.000001   0.000563   0.357198   0.375806
     9  C    0.000000   0.000000   0.000000  -0.000001  -0.000043  -0.000013
    10  C    0.000000   0.000001   0.000000   0.000014  -0.000130   0.000251
    11  C    0.000000   0.000112   0.000000   0.000398   0.006460  -0.009697
    12  C    0.000003   0.000017  -0.000001  -0.000643  -0.035452  -0.028222
    13  C    0.000000  -0.000007   0.000000  -0.000011  -0.013203   0.005439
    14  C    0.000000   0.000000   0.000000   0.000000   0.000121  -0.000190
    15  H    0.000000   0.000000   0.000000   0.000000   0.000000   0.000000
    16  H    0.000000   0.000000   0.000000   0.000000   0.000003  -0.000008
    17  H    0.000000   0.000000   0.000000   0.000000   0.000002   0.000002
    18  F    0.000000  -0.000005   0.000000   0.002989   0.000172   0.007545
    19  F    0.000000   0.000000   0.000000   0.000000   0.005949   0.000203
    20  H    0.000950  -0.000001   0.000007   0.000000   0.000000   0.000001
    21  H    0.000656   0.000000   0.000000   0.000001   0.000012  -0.000004
    22  H    0.000005   0.000000   0.000000   0.000000   0.000026  -0.000002
    23  H    0.000056  -0.000010  -0.000003   0.000003   0.000297   0.000028
    24  H   -0.000042  -0.000002   0.000002   0.000002   0.002200   0.000561
    25  H    0.657775   0.006770  -0.007421  -0.000310   0.000017  -0.000036
    26  H    0.006770   0.653917  -0.043808  -0.010310   0.000026  -0.000090
    27  H   -0.007421  -0.043808   0.639481   0.007050   0.000001  -0.000001
    28  H   -0.000310  -0.010310   0.007050   0.426074   0.000099   0.000154
    29  H    0.000017   0.000026   0.000001   0.000099   0.678661  -0.046076
    30  H   -0.000036  -0.000090  -0.000001   0.000154  -0.046076   0.612512
    31  H   -0.003026   0.000678   0.000083  -0.001147  -0.000672   0.006735
    32  C   -0.040795   0.000187  -0.001470  -0.000215  -0.000021   0.000003
    33  H   -0.004505  -0.000081  -0.000264   0.000003   0.000002   0.000000
    34  H    0.006052   0.005324  -0.000232   0.000023   0.000029  -0.000008
    35  H   -0.004310  -0.000604   0.004692   0.000005   0.000000   0.000000
    36  H   -0.000146  -0.000455  -0.000022  -0.000069  -0.007287   0.006316
              31         32         33         34         35         36
     1  C   -0.003217  -0.002331   0.000111   0.000064   0.000017   0.000059
     2  C   -0.045529  -0.005462   0.001984  -0.000205   0.000111  -0.007127
     3  C    0.373767  -0.037237  -0.005638  -0.006582   0.004785  -0.035370
     4  C   -0.042433   0.327049  -0.024594  -0.035429  -0.031040  -0.002351
     5  C   -0.008649  -0.040947   0.003859  -0.005886  -0.004325  -0.000158
     6  O    0.013824   0.003286  -0.000073  -0.000018   0.000044   0.000020
     7  N   -0.044541  -0.008086   0.000064   0.004942  -0.000018   0.331374
     8  C   -0.007666   0.000137  -0.000016  -0.000211   0.000001  -0.033804
     9  C    0.000000   0.000000   0.000000   0.000000   0.000000  -0.000013
    10  C    0.000000   0.000000   0.000000   0.000000   0.000000  -0.000002
    11  C    0.000001   0.000000   0.000000   0.000003   0.000000  -0.000458
    12  C    0.000244   0.000000   0.000000   0.000027   0.000000  -0.006246
    13  C   -0.000009  -0.000001   0.000000  -0.000009   0.000000   0.004463
    14  C    0.000000   0.000000   0.000000   0.000000   0.000000  -0.000028
    15  H    0.000000   0.000000   0.000000   0.000000   0.000000   0.000000
    16  H    0.000000   0.000000   0.000000   0.000000   0.000000   0.000000
    17  H    0.000000   0.000000   0.000000   0.000000   0.000000   0.000001
    18  F   -0.000052   0.000000   0.000000   0.000000   0.000000  -0.000010
    19  F    0.000000   0.000000   0.000000  -0.000001   0.000000   0.003023
    20  H   -0.000293   0.000426   0.001782  -0.000042  -0.000046   0.000003
    21  H    0.005248   0.000166  -0.000040  -0.000004   0.000000   0.000021
    22  H   -0.000096  -0.000004  -0.000051   0.000003   0.000000  -0.000005
    23  H    0.005658   0.003256   0.001551   0.000165  -0.000108   0.006141
    24  H   -0.005201   0.000097  -0.000037  -0.000025   0.000000  -0.000123
    25  H   -0.003026  -0.040795  -0.004505   0.006052  -0.004310  -0.000146
    26  H    0.000678   0.000187  -0.000081   0.005324  -0.000604  -0.000455
    27  H    0.000083  -0.001470  -0.000264  -0.000232   0.004692  -0.000022
    28  H   -0.001147  -0.000215   0.000003   0.000023   0.000005  -0.000069
    29  H   -0.000672  -0.000021   0.000002   0.000029   0.000000  -0.007287
    30  H    0.006735   0.000003   0.000000  -0.000008   0.000000   0.006316
    31  H    0.650597   0.006179  -0.000091   0.000010  -0.000147   0.006361
    32  C    0.006179   4.992531   0.375494   0.381212   0.382173   0.002869
    33  H   -0.000091   0.375494   0.606041  -0.031985  -0.030827   0.000012
    34  H    0.000010   0.381212  -0.031985   0.608215  -0.032153   0.000772
    35  H   -0.000147   0.382173  -0.030827  -0.032153   0.606661  -0.000081
    36  H    0.006361   0.002869   0.000012   0.000772  -0.000081   0.483429
 Mulliken charges:
               1
     1  C   -0.326600
     2  C   -0.187932
     3  C    0.061953
     4  C   -0.066150
     5  C    0.063468
     6  O   -0.575746
     7  N   -0.524255
     8  C   -0.091879
     9  C   -0.087454
    10  C   -0.151826
    11  C    0.330251
    12  C   -0.033427
    13  C    0.328554
    14  C   -0.151792
    15  H    0.117537
    16  H    0.112473
    17  H    0.111684
    18  F   -0.289765
    19  F   -0.291304
    20  H    0.110781
    21  H    0.107364
    22  H    0.100664
    23  H    0.095033
    24  H    0.098947
    25  H    0.091882
    26  H    0.092825
    27  H    0.095193
    28  H    0.319128
    29  H    0.100703
    30  H    0.117488
    31  H    0.093385
    32  C   -0.338495
    33  H    0.107299
    34  H    0.105951
    35  H    0.105169
    36  H    0.248891
 Sum of Mulliken charges =   0.00000
 Mulliken charges with hydrogens summed into heavy atoms:
               1
     1  C   -0.007790
     2  C    0.006048
     3  C    0.155338
     4  C    0.025732
     5  C    0.251486
     6  O   -0.256618
     7  N   -0.275364
     8  C    0.126312
     9  C    0.030083
    10  C   -0.039353
    11  C    0.330251
    12  C   -0.033427
    13  C    0.328554
    14  C   -0.040108
    18  F   -0.289765
    19  F   -0.291304
    32  C   -0.020076
 Electronic spatial extent (au):  <R**2>=           5080.4971
 Charge=              0.0000 electrons
 Dipole moment (field-independent basis, Debye):
    X=              2.0531    Y=             -2.3320    Z=              0.7512  Tot=              3.1966
 Quadrupole moment (field-independent basis, Debye-Ang):
   XX=            -91.5556   YY=           -108.6489   ZZ=            -99.3429
   XY=              8.0277   XZ=              0.7436   YZ=              1.5865
 Traceless Quadrupole moment (field-independent basis, Debye-Ang):
   XX=              8.2935   YY=             -8.7997   ZZ=              0.5062
   XY=              8.0277   XZ=              0.7436   YZ=              1.5865
 Octapole moment (field-independent basis, Debye-Ang**2):
  XXX=             78.8519  YYY=            -14.6888  ZZZ=             -9.2450  XYY=             26.0003
  XXY=             -3.8824  XXZ=             26.7066  XZZ=              0.0733  YZZ=              1.0906
  YYZ=              5.6046  XYZ=             -9.1929
 Hexadecapole moment (field-independent basis, Debye-Ang**3):
 XXXX=          -4360.6389 YYYY=          -1419.7993 ZZZZ=           -610.2643 XXXY=             22.9451
 XXXZ=             64.4048 YYYX=             58.8149 YYYZ=            -10.1749 ZZZX=             -4.3664
 ZZZY=            -30.1994 XXYY=          -1010.0506 XXZZ=           -882.0406 YYZZ=           -317.3669
 XXYZ=             -1.6122 YYXZ=            -14.2357 ZZXY=            -25.1894
 N-N= 1.270888879882D+03 E-N=-4.495610323145D+03  KE= 8.291721292026D+02
 D1PCM: PCM CHGder 1st derivatives, ID1Alg=3 FixD1E=F DoIter=F DoCFld=F I1PDM=0.
 Calling FoFJK, ICntrl=      2127 FMM=F ISym2X=0 I1Cent= 0 IOpClX= 0 NMat=1 NMatS=1 NMatT=0.
 ***** Axes restored to original set *****
 -------------------------------------------------------------------
 Center     Atomic                   Forces (Hartrees/Bohr)
 Number     Number              X              Y              Z
 -------------------------------------------------------------------
      1        6           0.004385901    0.000216020   -0.004038826
      2        6           0.004807826   -0.003569078    0.003568711
      3        6           0.001519633    0.012650573   -0.007544589
      4        6           0.001123652    0.003247895   -0.000403855
      5        6          -0.002681942   -0.005176953   -0.002859303
      6        8          -0.007889811   -0.008723366    0.002501933
      7        7          -0.000022779   -0.004583451    0.012987281
      8        6           0.001291459   -0.002297812   -0.007203376
      9        6           0.005844795   -0.001151287   -0.000326457
     10        6          -0.001798915   -0.001997368    0.008253932
     11        6          -0.017787020    0.009304042   -0.013187867
     12        6           0.008595573   -0.003963789   -0.001351092
     13        6          -0.018735643   -0.000008303    0.015952665
     14        6          -0.002153769    0.002891875   -0.007800992
     15        1           0.001878811   -0.000479010   -0.000148392
     16        1           0.001317839   -0.000442571   -0.000164511
     17        1           0.001385849   -0.000395718   -0.000150018
     18        9           0.006906792   -0.002647980    0.004221511
     19        9           0.006726991   -0.000185390   -0.005189916
     20        1           0.001304944   -0.000878762    0.000988385
     21        1           0.001329570   -0.000214204    0.000630964
     22        1           0.001747113   -0.000733333    0.000595761
     23        1          -0.001911549    0.001543558    0.001269106
     24        1          -0.003425455    0.000964944    0.001454902
     25        1          -0.000256938   -0.000670743   -0.000070326
     26        1           0.000845367    0.002943697   -0.005198118
     27        1           0.001753746   -0.001053421   -0.000117291
     28        1           0.006775524    0.003717277    0.004344338
     29        1          -0.002402592   -0.004109940   -0.002215861
     30        1           0.002256940    0.004854890    0.000839923
     31        1          -0.003742767    0.001561043    0.000341335
     32        6           0.002180799   -0.000067724   -0.001944295
     33        1          -0.000468981    0.000925557   -0.000663553
     34        1          -0.000546885    0.000481829   -0.000187031
     35        1          -0.000803726    0.000165961    0.000112656
     36        1           0.000649650   -0.002118957    0.002702265
 -------------------------------------------------------------------
 Cartesian Forces:  Max     0.018735643 RMS     0.004916621

 GradGradGradGradGradGradGradGradGradGradGradGradGradGradGradGradGradGrad
 Berny optimization.
 FormGI is forming the generalized inverse of G from B-inverse, IUseBI=4.
 Internal  Forces:  Max     0.008808209 RMS     0.003003384
 Search for a local minimum.
 Step number   1 out of a maximum of   50
 All quantities printed in internal units (Hartrees-Bohrs-Radians)
 Mixed Optimization -- RFO/linear search
 Second derivative matrix not updated -- first step.
 ITU=  0
     Eigenvalues ---    0.00230   0.00230   0.00230   0.00326   0.00457
     Eigenvalues ---    0.00724   0.00756   0.00855   0.01403   0.01573
     Eigenvalues ---    0.02148   0.02153   0.02156   0.02160   0.02163
     Eigenvalues ---    0.02165   0.02165   0.02166   0.02695   0.03169
     Eigenvalues ---    0.03393   0.03675   0.04550   0.04658   0.04767
     Eigenvalues ---    0.04781   0.05096   0.05212   0.05351   0.05494
     Eigenvalues ---    0.05538   0.05582   0.05705   0.05972   0.06572
     Eigenvalues ---    0.08520   0.09761   0.11187   0.11699   0.12339
     Eigenvalues ---    0.13131   0.13924   0.16000   0.16000   0.16000
     Eigenvalues ---    0.16000   0.16000   0.16000   0.16000   0.16000
     Eigenvalues ---    0.16000   0.16000   0.16773   0.17267   0.17647
     Eigenvalues ---    0.18021   0.21913   0.21918   0.21991   0.22085
     Eigenvalues ---    0.23377   0.23490   0.24905   0.24990   0.25000
     Eigenvalues ---    0.25000   0.26857   0.27957   0.28435   0.29126
     Eigenvalues ---    0.30048   0.32298   0.33864   0.33903   0.33993
     Eigenvalues ---    0.34067   0.34088   0.34117   0.34141   0.34158
     Eigenvalues ---    0.34188   0.34251   0.34271   0.34297   0.34397
     Eigenvalues ---    0.34405   0.35163   0.35278   0.35288   0.35361
     Eigenvalues ---    0.36564   0.42184   0.42362   0.42485   0.44204
     Eigenvalues ---    0.46384   0.46481   0.46549   0.46595   0.52178
     Eigenvalues ---    0.56936   0.56945
 RFO step:  Lambda=-9.56451990D-03 EMin= 2.30000000D-03
 Linear search not attempted -- first point.
 Iteration  1 RMS(Cart)=  0.12456343 RMS(Int)=  0.00361901
 Iteration  2 RMS(Cart)=  0.00676425 RMS(Int)=  0.00030766
 Iteration  3 RMS(Cart)=  0.00002547 RMS(Int)=  0.00030705
 Iteration  4 RMS(Cart)=  0.00000001 RMS(Int)=  0.00030705
 Variable       Old X    -DE/DX   Delta X   Delta X   Delta X     New X
                                 (Linear)    (Quad)   (Total)
    R1        2.87868   0.00874   0.00000   0.02819   0.02819   2.90686
    R2        2.06652   0.00033   0.00000   0.00094   0.00094   2.06746
    R3        2.06832   0.00075   0.00000   0.00212   0.00212   2.07044
    R4        2.06909   0.00029   0.00000   0.00082   0.00082   2.06992
    R5        2.92232   0.00016   0.00000   0.00056   0.00056   2.92289
    R6        2.07182   0.00065   0.00000   0.00186   0.00186   2.07368
    R7        2.07217   0.00013   0.00000   0.00036   0.00036   2.07253
    R8        2.94708  -0.00546   0.00000  -0.01965  -0.01965   2.92743
    R9        2.78392   0.00350   0.00000   0.00965   0.00965   2.79357
   R10        2.07561  -0.00145   0.00000  -0.00417  -0.00417   2.07144
   R11        2.91198  -0.00189   0.00000  -0.00642  -0.00642   2.90556
   R12        2.07494  -0.00005   0.00000  -0.00015  -0.00015   2.07479
   R13        2.89740   0.00263   0.00000   0.00875   0.00875   2.90615
   R14        2.68689   0.00790   0.00000   0.01831   0.01831   2.70520
   R15        2.07093   0.00104   0.00000   0.00295   0.00295   2.07388
   R16        2.07015   0.00024   0.00000   0.00069   0.00069   2.07084
   R17        1.84429  -0.00881   0.00000  -0.01658  -0.01658   1.82771
   R18        2.76509   0.00589   0.00000   0.01569   0.01569   2.78078
   R19        1.92911  -0.00348   0.00000  -0.00771  -0.00771   1.92140
   R20        2.83602   0.00783   0.00000   0.02354   0.02354   2.85956
   R21        2.07133   0.00301   0.00000   0.00859   0.00859   2.07992
   R22        2.07342  -0.00256   0.00000  -0.00733  -0.00733   2.06610
   R23        2.63463   0.00128   0.00000   0.00286   0.00284   2.63747
   R24        2.63447   0.00111   0.00000   0.00255   0.00252   2.63699
   R25        2.05412  -0.00194   0.00000  -0.00538  -0.00538   2.04873
   R26        2.63529  -0.00355   0.00000  -0.00751  -0.00751   2.62778
   R27        2.05226  -0.00073   0.00000  -0.00200  -0.00200   2.05026
   R28        2.63768  -0.00060   0.00000  -0.00147  -0.00144   2.63624
   R29        2.53451   0.00754   0.00000   0.01302   0.01302   2.54753
   R30        2.63712  -0.00035   0.00000  -0.00091  -0.00089   2.63623
   R31        2.63504  -0.00305   0.00000  -0.00640  -0.00640   2.62864
   R32        2.53443   0.00773   0.00000   0.01335   0.01335   2.54778
   R33        2.05211  -0.00065   0.00000  -0.00181  -0.00181   2.05030
   R34        2.06666   0.00022   0.00000   0.00061   0.00061   2.06727
   R35        2.06875   0.00071   0.00000   0.00201   0.00201   2.07076
   R36        2.07065  -0.00017   0.00000  -0.00049  -0.00049   2.07016
    A1        1.95022   0.00146   0.00000   0.00839   0.00832   1.95854
    A2        1.93767   0.00069   0.00000   0.00172   0.00171   1.93939
    A3        1.91925   0.00242   0.00000   0.01679   0.01669   1.93594
    A4        1.89504  -0.00180   0.00000  -0.01521  -0.01519   1.87985
    A5        1.87483  -0.00141   0.00000  -0.00381  -0.00396   1.87088
    A6        1.88453  -0.00157   0.00000  -0.00896  -0.00899   1.87555
    A7        1.98378   0.00596   0.00000   0.02864   0.02874   2.01252
    A8        1.90672  -0.00043   0.00000   0.00874   0.00901   1.91573
    A9        1.86983   0.00059   0.00000   0.01927   0.01952   1.88935
   A10        1.93545  -0.00354   0.00000  -0.02716  -0.02752   1.90793
   A11        1.91031  -0.00384   0.00000  -0.02775  -0.02828   1.88203
   A12        1.85200   0.00108   0.00000  -0.00235  -0.00309   1.84891
   A13        1.98845  -0.00303   0.00000   0.00400   0.00271   1.99116
   A14        1.93450   0.00757   0.00000   0.06117   0.06092   1.99542
   A15        1.87198  -0.00030   0.00000  -0.00451  -0.00358   1.86840
   A16        1.90538  -0.00146   0.00000   0.00656   0.00501   1.91039
   A17        1.86109   0.00132   0.00000  -0.01415  -0.01446   1.84663
   A18        1.89900  -0.00451   0.00000  -0.06057  -0.06039   1.83861
   A19        1.96814  -0.00497   0.00000  -0.03510  -0.03506   1.93307
   A20        1.86509   0.00053   0.00000   0.00013   0.00017   1.86525
   A21        1.98920   0.00166   0.00000   0.00457   0.00452   1.99372
   A22        1.85243   0.00128   0.00000   0.01318   0.01300   1.86543
   A23        1.89967   0.00238   0.00000   0.00943   0.00926   1.90892
   A24        1.88207  -0.00081   0.00000   0.01030   0.01016   1.89222
   A25        1.94679   0.00862   0.00000   0.04099   0.04120   1.98799
   A26        1.95750  -0.00720   0.00000  -0.04334  -0.04396   1.91353
   A27        1.91651  -0.00243   0.00000  -0.01945  -0.01979   1.89672
   A28        1.89645   0.00136   0.00000   0.02886   0.02934   1.92578
[...]
    29  H   -0.000297   0.002480  -0.001527  -0.000266   0.000027  -0.000016
    30  H    0.000000  -0.002065  -0.004162   0.000353  -0.000122   0.000196
    31  H   -0.003261  -0.051798   0.375099  -0.035901  -0.008504   0.013447
    32  C   -0.002649  -0.006285  -0.038971   0.332532  -0.039102   0.002843
    33  H    0.000245   0.001577  -0.005321  -0.023580   0.003658  -0.000061
    34  H    0.000149  -0.000729  -0.005838  -0.034490  -0.005941  -0.000010
    35  H    0.000020   0.000137   0.004756  -0.032560  -0.003759   0.000045
    36  H   -0.000023  -0.005277  -0.036552  -0.004148  -0.001025   0.000409
               7          8          9         10         11         12
     1  C    0.004241   0.000068   0.000000   0.000000   0.000000  -0.000001
     2  C   -0.051889  -0.003917   0.000000   0.000000   0.000010   0.000287
     3  C    0.277809  -0.038394   0.000000   0.000006   0.000199   0.004087
     4  C   -0.051932   0.005349   0.000000   0.000000  -0.000065  -0.000118
     5  C    0.001119  -0.000023   0.000000   0.000000   0.000046  -0.000006
     6  O   -0.012203  -0.000070   0.000000  -0.000002   0.000010   0.000113
     7  N    6.940303   0.282106   0.000021   0.000015   0.007093  -0.060419
     8  C    0.282106   4.909473  -0.000582   0.007230  -0.055351   0.320297
     9  C    0.000021  -0.000582   4.858258   0.490260  -0.008650  -0.026572
    10  C    0.000015   0.007230   0.490260   5.024596   0.492080  -0.081096
    11  C    0.007093  -0.055351  -0.008650   0.492080   4.616822   0.389970
    12  C   -0.060419   0.320297  -0.026572  -0.081096   0.389970   5.305477
    13  C   -0.003438  -0.048610  -0.004856  -0.046895   0.019507   0.410474
    14  C   -0.000097   0.007529   0.485132  -0.037871  -0.046241  -0.075765
    15  H    0.000000   0.000005   0.374099  -0.034651   0.003677   0.000394
    16  H    0.000005  -0.000132  -0.035613   0.361005  -0.031755   0.006070
    17  H    0.000001  -0.000123  -0.036625   0.004475   0.000291   0.006296
    18  F   -0.001916   0.002013   0.002722  -0.044027   0.285641  -0.052304
    19  F   -0.000263  -0.003585   0.002992   0.000003   0.002620  -0.052810
    20  H   -0.000011   0.000006   0.000000   0.000000   0.000000   0.000000
    21  H    0.000057  -0.000023   0.000000   0.000000   0.000000   0.000000
    22  H   -0.000112  -0.000001   0.000000   0.000000   0.000000   0.000000
    23  H   -0.001254  -0.000386   0.000000   0.000000   0.000000  -0.000035
    24  H   -0.005277   0.003190   0.000000   0.000000  -0.000012   0.000140
    25  H    0.004715  -0.000165   0.000000   0.000000   0.000001   0.000003
    26  H    0.007779  -0.000254   0.000000  -0.000001   0.000042   0.000033
    27  H    0.000331  -0.000004   0.000000   0.000000   0.000001  -0.000001
    28  H    0.023545  -0.000029  -0.000007   0.000089   0.001062  -0.002324
    29  H   -0.039854   0.363287  -0.000051  -0.000101   0.006672  -0.039311
    30  H   -0.046991   0.375719   0.000010   0.000008  -0.008942  -0.025922
    31  H   -0.051937  -0.006812   0.000000  -0.000001  -0.000076   0.000142
    32  C   -0.006298   0.000050   0.000000   0.000000   0.000000  -0.000003
    33  H    0.000093  -0.000005   0.000000   0.000000   0.000000   0.000000
    34  H    0.001825  -0.000152   0.000000   0.000000   0.000001   0.000008
    35  H   -0.000007   0.000002   0.000000   0.000000   0.000000   0.000000
    36  H    0.328803  -0.035922  -0.000010  -0.000027  -0.000586  -0.001009
              13         14         15         16         17         18
     1  C    0.000000   0.000000   0.000000   0.000000   0.000000   0.000000
     2  C   -0.000006   0.000000   0.000000   0.000000   0.000000   0.000000
     3  C   -0.000015   0.000003   0.000000   0.000000   0.000000  -0.000243
     4  C    0.000005   0.000000   0.000000   0.000000   0.000000   0.000032
     5  C   -0.000001   0.000000   0.000000   0.000000   0.000000  -0.000209
     6  O    0.000000   0.000000   0.000000   0.000000   0.000000  -0.001777
     7  N   -0.003438  -0.000097   0.000000   0.000005   0.000001  -0.001916
     8  C   -0.048610   0.007529   0.000005  -0.000132  -0.000123   0.002013
     9  C   -0.004856   0.485132   0.374099  -0.035613  -0.036625   0.002722
    10  C   -0.046895  -0.037871  -0.034651   0.361005   0.004475  -0.044027
    11  C    0.019507  -0.046241   0.003677  -0.031755   0.000291   0.285641
    12  C    0.410474  -0.075765   0.000394   0.006070   0.006296  -0.052304
    13  C    4.617344   0.472448   0.003563   0.000329  -0.032332   0.002605
    14  C    0.472448   5.047152  -0.034237   0.004379   0.361885   0.000011
    15  H    0.003563  -0.034237   0.580347  -0.005662  -0.005691  -0.000025
    16  H    0.000329   0.004379  -0.005662   0.582479  -0.000129  -0.000289
    17  H   -0.032332   0.361885  -0.005691  -0.000129   0.585615   0.000001
    18  F    0.002605   0.000011  -0.000025  -0.000289   0.000001   9.079608
    19  F    0.298749  -0.045217  -0.000025   0.000001  -0.000562   0.000000
    20  H    0.000000   0.000000   0.000000   0.000000   0.000000   0.000000
    21  H    0.000000   0.000000   0.000000   0.000000   0.000000   0.000000
    22  H    0.000000   0.000000   0.000000   0.000000   0.000000   0.000000
    23  H    0.000000   0.000000   0.000000   0.000000   0.000000   0.000000
    24  H    0.000000   0.000000   0.000000   0.000000   0.000000   0.000000
    25  H    0.000000   0.000000   0.000000   0.000000   0.000000   0.000000
    26  H   -0.000001   0.000000   0.000000   0.000000   0.000000   0.000003
    27  H    0.000000   0.000000   0.000000   0.000000   0.000000  -0.000002
    28  H   -0.000040   0.000002   0.000000   0.000005   0.000000   0.018879
    29  H   -0.010357   0.000315   0.000000   0.000002   0.000001   0.000145
    30  H    0.004178  -0.000182   0.000000  -0.000005   0.000002   0.004415
    31  H    0.000001   0.000000   0.000000   0.000000   0.000000  -0.000010
    32  C    0.000000   0.000000   0.000000   0.000000   0.000000   0.000000
    33  H    0.000000   0.000000   0.000000   0.000000   0.000000   0.000000
    34  H   -0.000001   0.000000   0.000000   0.000000   0.000000   0.000000
    35  H    0.000000   0.000000   0.000000   0.000000   0.000000   0.000000
    36  H    0.002602  -0.000032   0.000000   0.000000   0.000000   0.000003
              19         20         21         22         23         24
     1  C    0.000000   0.387445   0.387113   0.378249  -0.035791  -0.036825
     2  C   -0.000003  -0.033838  -0.037046  -0.025028   0.375156   0.382405
     3  C    0.000005  -0.005597  -0.004360   0.003685  -0.033767  -0.035701
     4  C    0.000000   0.002756  -0.001376   0.000069  -0.010563   0.005192
     5  C    0.000000  -0.000034  -0.000033   0.000000  -0.000064  -0.000135
     6  O    0.000000   0.000000  -0.000003   0.000000  -0.000005   0.000002
     7  N   -0.000263  -0.000011   0.000057  -0.000112  -0.001254  -0.005277
     8  C   -0.003585   0.000006  -0.000023  -0.000001  -0.000386   0.003190
     9  C    0.002992   0.000000   0.000000   0.000000   0.000000   0.000000
    10  C    0.000003   0.000000   0.000000   0.000000   0.000000   0.000000
    11  C    0.002620   0.000000   0.000000   0.000000   0.000000  -0.000012
    12  C   -0.052810   0.000000   0.000000   0.000000  -0.000035   0.000140
    13  C    0.298749   0.000000   0.000000   0.000000   0.000000   0.000000
    14  C   -0.045217   0.000000   0.000000   0.000000   0.000000   0.000000
    15  H   -0.000025   0.000000   0.000000   0.000000   0.000000   0.000000
    16  H    0.000001   0.000000   0.000000   0.000000   0.000000   0.000000
    17  H   -0.000562   0.000000   0.000000   0.000000   0.000000   0.000000
    18  F    0.000000   0.000000   0.000000   0.000000   0.000000   0.000000
    19  F    9.088771   0.000000   0.000000   0.000000   0.000000  -0.000010
    20  H    0.000000   0.599868  -0.032765  -0.031456  -0.005698   0.005198
    21  H    0.000000  -0.032765   0.605001  -0.031842   0.005432  -0.004118
    22  H    0.000000  -0.031456  -0.031842   0.609702  -0.002603  -0.004440
    23  H    0.000000  -0.005698   0.005432  -0.002603   0.638569  -0.039706
    24  H   -0.000010   0.005198  -0.004118  -0.004440  -0.039706   0.634695
    25  H    0.000000   0.000828   0.000423  -0.000009  -0.000046  -0.000069
    26  H    0.000000   0.000000  -0.000001   0.000000  -0.000028   0.000000
    27  H    0.000000   0.000006  -0.000001   0.000000  -0.000004   0.000003
    28  H    0.000000   0.000000  -0.000001   0.000000  -0.000002   0.000008
    29  H    0.009602  -0.000001   0.000004   0.000017   0.000162   0.001435
    30  H    0.000217   0.000001   0.000016  -0.000002   0.000131   0.000715
    31  H    0.000000  -0.000260   0.005494  -0.000103   0.006148  -0.004700
    32  C    0.000000   0.000144   0.000196   0.000004   0.004775   0.000076
    33  H    0.000000   0.002230  -0.000054  -0.000049   0.000930  -0.000013
    34  H    0.000000  -0.000038  -0.000005   0.000001   0.000314  -0.000029
    35  H    0.000000  -0.000046   0.000000   0.000000  -0.000105  -0.000001
    36  H    0.000300   0.000000   0.000014   0.000000   0.004512  -0.000192
              25         26         27         28         29         30
     1  C    0.002551  -0.000005  -0.000003  -0.000019  -0.000297   0.000000
     2  C   -0.002660   0.000161  -0.000056   0.000284   0.002480  -0.002065
     3  C   -0.041087  -0.008233   0.005186   0.002625  -0.001527  -0.004162
     4  C    0.375313  -0.060928  -0.041195  -0.007000  -0.000266   0.000353
     5  C   -0.034408   0.376566   0.382487  -0.034483   0.000027  -0.000122
     6  O    0.002114  -0.034009  -0.036301   0.278680  -0.000016   0.000196
     7  N    0.004715   0.007779   0.000331   0.023545  -0.039854  -0.046991
     8  C   -0.000165  -0.000254  -0.000004  -0.000029   0.363287   0.375719
     9  C    0.000000   0.000000   0.000000  -0.000007  -0.000051   0.000010
    10  C    0.000000  -0.000001   0.000000   0.000089  -0.000101   0.000008
    11  C    0.000001   0.000042   0.000001   0.001062   0.006672  -0.008942
    12  C    0.000003   0.000033  -0.000001  -0.002324  -0.039311  -0.025922
    13  C    0.000000  -0.000001   0.000000  -0.000040  -0.010357   0.004178
    14  C    0.000000   0.000000   0.000000   0.000002   0.000315  -0.000182
    15  H    0.000000   0.000000   0.000000   0.000000   0.000000   0.000000
    16  H    0.000000   0.000000   0.000000   0.000005   0.000002  -0.000005
    17  H    0.000000   0.000000   0.000000   0.000000   0.000001   0.000002
    18  F    0.000000   0.000003  -0.000002   0.018879   0.000145   0.004415
    19  F    0.000000   0.000000   0.000000   0.000000   0.009602   0.000217
    20  H    0.000828   0.000000   0.000006   0.000000  -0.000001   0.000001
    21  H    0.000423  -0.000001  -0.000001  -0.000001   0.000004   0.000016
    22  H   -0.000009   0.000000   0.000000   0.000000   0.000017  -0.000002
    23  H   -0.000046  -0.000028  -0.000004  -0.000002   0.000162   0.000131
    24  H   -0.000069   0.000000   0.000003   0.000008   0.001435   0.000715
    25  H    0.649957   0.006894  -0.009005  -0.000217   0.000008  -0.000024
    26  H    0.006894   0.680788  -0.044937  -0.008244   0.000011  -0.000023
    27  H   -0.009005  -0.044937   0.641363   0.006776   0.000000   0.000000
    28  H   -0.000217  -0.008244   0.006776   0.403225   0.000213  -0.000679
    29  H    0.000008   0.000011   0.000000   0.000213   0.649403  -0.043081
    30  H   -0.000024  -0.000023   0.000000  -0.000679  -0.043081   0.605638
    31  H   -0.005680   0.000430  -0.000022  -0.002734  -0.000880   0.009070
    32  C   -0.042919  -0.000401  -0.000778  -0.000200  -0.000010   0.000004
    33  H   -0.004565   0.000013  -0.000324  -0.000001  -0.000001   0.000000
    34  H    0.005802   0.006066  -0.000222   0.000020   0.000010  -0.000003
    35  H   -0.003613  -0.000721   0.003892   0.000007   0.000000   0.000000
    36  H   -0.000076  -0.000381  -0.000030  -0.000498  -0.006367   0.006916
              31         32         33         34         35         36
     1  C   -0.003261  -0.002649   0.000245   0.000149   0.000020  -0.000023
     2  C   -0.051798  -0.006285   0.001577  -0.000729   0.000137  -0.005277
     3  C    0.375099  -0.038971  -0.005321  -0.005838   0.004756  -0.036552
     4  C   -0.035901   0.332532  -0.023580  -0.034490  -0.032560  -0.004148
     5  C   -0.008504  -0.039102   0.003658  -0.005941  -0.003759  -0.001025
     6  O    0.013447   0.002843  -0.000061  -0.000010   0.000045   0.000409
     7  N   -0.051937  -0.006298   0.000093   0.001825  -0.000007   0.328803
     8  C   -0.006812   0.000050  -0.000005  -0.000152   0.000002  -0.035922
     9  C    0.000000   0.000000   0.000000   0.000000   0.000000  -0.000010
    10  C   -0.000001   0.000000   0.000000   0.000000   0.000000  -0.000027
    11  C   -0.000076   0.000000   0.000000   0.000001   0.000000  -0.000586
    12  C    0.000142  -0.000003   0.000000   0.000008   0.000000  -0.001009
    13  C    0.000001   0.000000   0.000000  -0.000001   0.000000   0.002602
    14  C    0.000000   0.000000   0.000000   0.000000   0.000000  -0.000032
    15  H    0.000000   0.000000   0.000000   0.000000   0.000000   0.000000
    16  H    0.000000   0.000000   0.000000   0.000000   0.000000   0.000000
    17  H    0.000000   0.000000   0.000000   0.000000   0.000000   0.000000
    18  F   -0.000010   0.000000   0.000000   0.000000   0.000000   0.000003
    19  F    0.000000   0.000000   0.000000   0.000000   0.000000   0.000300
    20  H   -0.000260   0.000144   0.002230  -0.000038  -0.000046   0.000000
    21  H    0.005494   0.000196  -0.000054  -0.000005   0.000000   0.000014
    22  H   -0.000103   0.000004  -0.000049   0.000001   0.000000   0.000000
    23  H    0.006148   0.004775   0.000930   0.000314  -0.000105   0.004512
    24  H   -0.004700   0.000076  -0.000013  -0.000029  -0.000001  -0.000192
    25  H   -0.005680  -0.042919  -0.004565   0.005802  -0.003613  -0.000076
    26  H    0.000430  -0.000401   0.000013   0.006066  -0.000721  -0.000381
    27  H   -0.000022  -0.000778  -0.000324  -0.000222   0.003892  -0.000030
    28  H   -0.002734  -0.000200  -0.000001   0.000020   0.000007  -0.000498
    29  H   -0.000880  -0.000010  -0.000001   0.000010   0.000000  -0.006367
    30  H    0.009070   0.000004   0.000000  -0.000003   0.000000   0.006916
    31  H    0.653033   0.006185  -0.000069  -0.000002  -0.000146   0.007278
    32  C    0.006185   4.981756   0.377106   0.380860   0.382070   0.003474
    33  H   -0.000069   0.377106   0.601213  -0.032427  -0.030845  -0.000088
    34  H   -0.000002   0.380860  -0.032427   0.612722  -0.032469   0.002718
    35  H   -0.000146   0.382070  -0.030845  -0.032469   0.606433  -0.000135
    36  H    0.007278   0.003474  -0.000088   0.002718  -0.000135   0.486530
 Mulliken charges:
               1
     1  C   -0.328442
     2  C   -0.184283
     3  C    0.078281
     4  C   -0.087503
     5  C    0.073381
     6  O   -0.589251
     7  N   -0.545963
     8  C   -0.081785
     9  C   -0.100530
    10  C   -0.135094
    11  C    0.325935
    12  C   -0.026095
    13  C    0.314748
    14  C   -0.139213
    15  H    0.118205
    16  H    0.119310
    17  H    0.116894
    18  F   -0.295276
    19  F   -0.300785
    20  H    0.111258
    21  H    0.107877
    22  H    0.103918
    23  H    0.093926
    24  H    0.098171
    25  H    0.095931
    26  H    0.079380
    27  H    0.092840
    28  H    0.321058
    29  H    0.108324
    30  H    0.124612
    31  H    0.096570
    32  C   -0.334458
    33  H    0.110335
    34  H    0.101858
    35  H    0.107044
    36  H    0.248820
 Sum of Mulliken charges =   0.00000
 Mulliken charges with hydrogens summed into heavy atoms:
               1
     1  C   -0.005388
     2  C    0.007814
     3  C    0.174851
     4  C    0.008428
     5  C    0.245601
     6  O   -0.268193
     7  N   -0.297143
     8  C    0.151151
     9  C    0.017675
    10  C   -0.015785
    11  C    0.325935
    12  C   -0.026095
    13  C    0.314748
    14  C   -0.022318
    18  F   -0.295276
    19  F   -0.300785
    32  C   -0.015221
 Electronic spatial extent (au):  <R**2>=           5045.2286
 Charge=              0.0000 electrons
 Dipole moment (field-independent basis, Debye):
    X=              1.6898    Y=             -2.5799    Z=              1.2607  Tot=              3.3318
 Quadrupole moment (field-independent basis, Debye-Ang):
   XX=            -86.9598   YY=           -110.1526   ZZ=            -99.7418
   XY=              7.7765   XZ=              0.1491   YZ=              3.0247
 Traceless Quadrupole moment (field-independent basis, Debye-Ang):
   XX=             11.9916   YY=            -11.2012   ZZ=             -0.7904
   XY=              7.7765   XZ=              0.1491   YZ=              3.0247
 Octapole moment (field-independent basis, Debye-Ang**2):
  XXX=             71.7668  YYY=            -14.8689  ZZZ=             -6.6736  XYY=             20.1720
  XXY=              9.6120  XXZ=             20.6109  XZZ=              1.0950  YZZ=             -1.9649
  YYZ=              5.1988  XYZ=             -8.7288
 Hexadecapole moment (field-independent basis, Debye-Ang**3):
 XXXX=          -4328.9166 YYYY=          -1405.6567 ZZZZ=           -565.2261 XXXY=             -0.5920
 XXXZ=             74.6191 YYYX=             40.9094 YYYZ=             -5.0112 ZZZX=              1.6098
 ZZZY=            -31.4540 XXYY=           -976.9153 XXZZ=           -885.3841 YYZZ=           -314.8831
 XXYZ=             -9.6432 YYXZ=            -17.2178 ZZXY=            -22.1469
 N-N= 1.276920867939D+03 E-N=-4.507668282559D+03  KE= 8.290815333088D+02
 1\1\GINC-SWANNODE-0-11\FOpt\RB3LYP\6-31G(d,p)\C13H19F2N1O1\KE291\06-Ma
 r-2019\0\\# b3lyp/6-31g(d,p) Opt=(maxcycles=50) scrf=(solvent=chlorofo
 rm)\\AT3_2ginp009\\0,1\C,-0.7692959393,-1.7422435523,0.6664822792\C,-2
 .2308355733,-1.3064947301,0.5037033169\C,-2.9670061995,-1.0325502407,1
 .8319964978\C,-2.3167655307,0.0788521082,2.6987146682\C,-3.1784839864,
 0.3946219322,3.9421395963\O,-3.7395041851,-0.7510937935,4.5673384264\N
 ,-4.4096731039,-0.7550677428,1.6818961804\C,-5.2092116607,-1.841383542
 1,1.0993567451\C,-9.4244831452,-1.0607946875,1.7645665736\C,-8.6123730
 718,-1.4573084628,2.8296548247\C,-7.2706592175,-1.7037365077,2.5758582
 898\C,-6.6822608742,-1.5840523232,1.3146019312\C,-7.5416600553,-1.1800
 123761,0.2921374496\C,-8.8945195509,-0.9189266776,0.4825027565\H,-10.4
 769539913,-0.861633344,1.9367561125\H,-8.9998090847,-1.5764889806,3.83
 47620614\H,-9.5034028026,-0.611658431,-0.3598062956\F,-6.480001544,-2.
 0979987943,3.605859013\F,-7.0292017162,-1.037340771,-0.9537099445\H,-0
 .147070345,-0.9492704549,1.0926463088\H,-0.6900567815,-2.6147759877,1.
 3252465771\H,-0.3351284858,-2.0174282656,-0.299983449\H,-2.2874719261,
 -0.4172624173,-0.1374458626\H,-2.7689574243,-2.0982085314,-0.030880587
 \H,-1.3606901631,-0.3289550727,3.0508802641\H,-3.9699068952,1.10411147
 07,3.6589082767\H,-2.5542123801,0.8918453139,4.6933957942\H,-4.4404298
 431,-1.0413410115,3.9603088184\H,-5.0319767973,-2.0058915999,0.0291185
 431\H,-4.9306479844,-2.7652428222,1.6180813105\H,-2.9138337236,-1.9512
 739092,2.4316828093\C,-2.0259566458,1.3898346737,1.9508484088\H,-1.290
 8973016,1.2592606305,1.1521158793\H,-2.9331714646,1.8154324163,1.50539
 85386\H,-1.6264273431,2.1403881515,2.642101031\H,-4.5514612628,0.09218
 23325,1.1356608562\\Version=EM64L-G09RevD.01\State=1-A\HF=-836.497548\
 RMSD=2.672e-09\RMSF=7.666e-06\Dipole=-0.59759,0.2692699,-1.1351722\Qua
 drupole=9.9663507,-0.2028842,-9.7634665,0.4655401,-3.9131823,0.4605358
 \PG=C01 [X(C13H19F2N1O1)]\\@


 AN AIRPLANE IS A COLLECTION OF SPARE PARTS
 FLYING IN CLOSE FORMATION.
 Job cpu time:       0 days  2 hours 11 minutes 31.7 seconds.
 File lengths (MBytes):  RWF=    280 Int=      0 D2E=      0 Chk=     13 Scr=      1
 Normal termination of Gaussian 09 at Wed Mar  6 12:13:50 2019.
