 Entering Gaussian System, Link 0=/usr/local/shared/gaussian/em64t/09-D01/g09/g09
 Initial command:
 /usr/local/shared/gaussian/em64t/09-D01/g09/l1.exe "/scratch/ke291/AT3_1ginp005/Gau-20932.inp" -scrdir="/scratch/ke291/AT3_1ginp005/"
 Entering Link 1 = /usr/local/shared/gaussian/em64t/09-D01/g09/l1.exe PID=     20935.
  
 Copyright (c) 1988,1990,1992,1993,1995,1998,2003,2009,2013,
            Gaussian, Inc.  All Rights Reserved.
  
 This is part of the Gaussian(R) 09 program.  It is based on
 the Gaussian(R) 03 system (copyright 2003, Gaussian, Inc.),
 the Gaussian(R) 98 system (copyright 1998, Gaussian, Inc.),
 the Gaussian(R) 94 system (copyright 1995, Gaussian, Inc.),
 the Gaussian 92(TM) system (copyright 1992, Gaussian, Inc.),
 the Gaussian 90(TM) system (copyright 1990, Gaussian, Inc.),
 the Gaussian 88(TM) system (copyright 1988, Gaussian, Inc.),
 the Gaussian 86(TM) system (copyright 1986, Carnegie Mellon
 University), and the Gaussian 82(TM) system (copyright 1983,
 Carnegie Mellon University). Gaussian is a federally registered
 trademark of Gaussian, Inc.
  
 This software contains proprietary and confidential information,
 including trade secrets, belonging to Gaussian, Inc.
  
 This software is provided under written license and may be
 used, copied, transmitted, or stored only in accord with that
 written license.
  
 The following legend is applicable only to US Government
 contracts under FAR:
  
                    RESTRICTED RIGHTS LEGEND
  
 Use, reproduction and disclosure by the US Government is
 subject to restrictions as set forth in subparagraphs (a)
 and (c) of the Commercial Computer Software - Restricted
 Rights clause in FAR 52.227-19.
  
 Gaussian, Inc.
 340 Quinnipiac St., Bldg. 40, Wallingford CT 06492
  
  
 ---------------------------------------------------------------
 Warning -- This program may not be used in any manner that
 competes with the business of Gaussian, Inc. or will provide
 assistance to any competitor of Gaussian, Inc.  The licensee
 of this program is prohibited from giving any competitor of
 Gaussian, Inc. access to this program.  By using this program,
 the user acknowledges that Gaussian, Inc. is engaged in the
 business of creating and licensing software in the field of
 computational chemistry and represents and warrants to the
 licensee that it is not a competitor of Gaussian, Inc. and that
 it will not use this program in any manner prohibited above.
 ---------------------------------------------------------------
  

 Cite this work as:
 Gaussian 09, Revision D.01,
 M. J. Frisch, G. W. Trucks, H. B. Schlegel, G. E. Scuseria, 
 M. A. Robb, J. R. Cheeseman, G. Scalmani, V. Barone, B. Mennucci, 
 G. A. Petersson, H. Nakatsuji, M. Caricato, X. Li, H. P. Hratchian, 
 A. F. Izmaylov, J. Bloino, G. Zheng, J. L. Sonnenberg, M. Hada, 
 M. Ehara, K. Toyota, R. Fukuda, J. Hasegawa, M. Ishida, T. Nakajima, 
 Y. Honda, O. Kitao, H. Nakai, T. Vreven, J. A. Montgomery, Jr., 
 J. E. Peralta, F. Ogliaro, M. Bearpark, J. J. Heyd, E. Brothers, 
 K. N. Kudin, V. N. Staroverov, T. Keith, R. Kobayashi, J. Normand, 
 K. Raghavachari, A. Rendell, J. C. Burant, S. S. Iyengar, J. Tomasi, 
 M. Cossi, N. Rega, J. M. Millam, M. Klene, J. E. Knox, J. B. Cross, 
 V. Bakken, C. Adamo, J. Jaramillo, R. Gomperts, R. E. Stratmann, 
 O. Yazyev, A. J. Austin, R. Cammi, C. Pomelli, J. W. Ochterski, 
 R. L. Martin, K. Morokuma, V. G. Zakrzewski, G. A. Voth, 
 P. Salvador, J. J. Dannenberg, S. Dapprich, A. D. Daniels, 
 O. Farkas, J. B. Foresman, J. V. Ortiz, J. Cioslowski, 
 and D. J. Fox, Gaussian, Inc., Wallingford CT, 2013.
 
 ******************************************
 Gaussian 09:  EM64L-G09RevD.01 24-Apr-2013
                 6-Mar-2019 
 ******************************************
 %nprocshared=2
 Will use up to    2 processors via shared memory.
 %mem=6000MB
 %chk=AT3_1ginp005.chk
 ---------------------------------------------------------------
 # b3lyp/6-31g(d,p) Opt=(maxcycles=50) scrf=(solvent=chloroform)
 ---------------------------------------------------------------
 1/6=50,14=-1,18=20,19=15,26=3,38=1/1,3;
 2/9=110,12=2,17=6,18=5,40=1/2;
 3/5=1,6=6,7=101,11=2,16=1,25=1,30=1,70=2201,71=1,72=7,74=-5/1,2,3;
 4//1;
 5/5=2,38=5,53=7/2;
 6/7=2,8=2,9=2,10=2,28=1/1;
 7//1,2,3,16;
 1/6=50,14=-1,18=20,19=15,26=3/3(2);
 2/9=110/2;
 99//99;
 2/9=110/2;
 3/5=1,6=6,7=101,11=2,16=1,25=1,30=1,70=2205,71=1,72=7,74=-5/1,2,3;
 4/5=5,16=3,69=1/1;
 5/5=2,38=5,53=7/2;
 7//1,2,3,16;
 1/6=50,14=-1,18=20,19=15,26=3/3(-5);
 2/9=110/2;
 6/7=2,8=2,9=2,10=2,19=2,28=1/1;
 99/9=1/99;
 ------------
 AT3_1ginp005
 ------------
 Symbolic Z-matrix:
 Charge =  0 Multiplicity = 1
 C                    -3.12156   0.47959   1.59021 
 C                    -1.85175   1.17099   1.11313 
 C                    -0.61878   0.91516   2.01394 
 C                    -0.82557   1.36744   3.49309 
 C                    -1.0647    2.87988   3.65251 
 O                     0.06099   3.65179   3.2546 
 N                     0.54337   1.60158   1.40595 
 C                     1.68529   0.69245   1.22883 
 C                     5.12023   2.85635  -0.24407 
 C                     4.07959   2.51851  -1.1076 
 C                     2.97756   1.81604  -0.62186 
 C                     2.88545   1.43448   0.71798 
 C                     3.93712   1.78367   1.56606 
 C                     5.04723   2.48647   1.09814 
 H                     5.98164   3.40691  -0.61332 
 H                     4.11587   2.80036  -2.15563 
 H                     5.84631   2.74202   1.78784 
 F                     1.98575   1.50714  -1.47059 
 F                     3.9006    1.43343   2.85975 
 H                    -3.49906   0.92439   2.51526 
 H                    -3.90801   0.58006   0.83503 
 H                    -2.94969  -0.58794   1.75925 
 H                    -1.63226   0.7991    0.10308 
 H                    -2.04615   2.24497   1.00813 
 H                    -1.71615   0.85684   3.87944 
 H                    -1.2755    3.12134   4.69982 
 H                    -1.92861   3.20961   3.06845 
 H                     0.48959   3.15457   2.52355 
 H                     1.93848   0.19528   2.17175 
 H                     1.42912  -0.10455   0.51873 
 H                    -0.45884  -0.17228   2.01414 
 C                     0.33736   0.92304   4.39224 
 H                     1.27311   1.43389   4.1457 
 H                     0.11146   1.13987   5.44215 
 H                     0.50249  -0.15613   4.30717 
 H                     0.29477   1.94048   0.47233 
 

 GradGradGradGradGradGradGradGradGradGradGradGradGradGradGradGradGradGrad
 Berny optimization.
 Initialization pass.
                           ----------------------------
                           !    Initial Parameters    !
                           ! (Angstroms and Degrees)  !
 --------------------------                            --------------------------
 ! Name  Definition              Value          Derivative Info.                !
 --------------------------------------------------------------------------------
 ! R1    R(1,2)                  1.5225         estimate D2E/DX2                !
 ! R2    R(1,20)                 1.0937         estimate D2E/DX2                !
 ! R3    R(1,21)                 1.0949         estimate D2E/DX2                !
 ! R4    R(1,22)                 1.0944         estimate D2E/DX2                !
 ! R5    R(2,3)                  1.5483         estimate D2E/DX2                !
 ! R6    R(2,23)                 1.0985         estimate D2E/DX2                !
 ! R7    R(2,24)                 1.0965         estimate D2E/DX2                !
 ! R8    R(3,4)                  1.5605         estimate D2E/DX2                !
 ! R9    R(3,7)                  1.4803         estimate D2E/DX2                !
 ! R10   R(3,31)                 1.0991         estimate D2E/DX2                !
 ! R11   R(4,5)                  1.5395         estimate D2E/DX2                !
 ! R12   R(4,25)                 1.0969         estimate D2E/DX2                !
 ! R13   R(4,32)                 1.5357         estimate D2E/DX2                !
 ! R14   R(5,6)                  1.4217         estimate D2E/DX2                !
 ! R15   R(5,26)                 1.0953         estimate D2E/DX2                !
 ! R16   R(5,27)                 1.0937         estimate D2E/DX2                !
 ! R17   R(6,28)                 0.9825         estimate D2E/DX2                !
 ! R18   R(7,8)                  1.4703         estimate D2E/DX2                !
 ! R19   R(7,36)                 1.0239         estimate D2E/DX2                !
 ! R20   R(8,12)                 1.5006         estimate D2E/DX2                !
 ! R21   R(8,29)                 1.0956         estimate D2E/DX2                !
 ! R22   R(8,30)                 1.0978         estimate D2E/DX2                !
 ! R23   R(9,10)                 1.3938         estimate D2E/DX2                !
 ! R24   R(9,14)                 1.3942         estimate D2E/DX2                !
 ! R25   R(9,15)                 1.087          estimate D2E/DX2                !
 ! R26   R(10,11)                1.3942         estimate D2E/DX2                !
 ! R27   R(10,16)                1.0859         estimate D2E/DX2                !
 ! R28   R(11,12)                1.3962         estimate D2E/DX2                !
 ! R29   R(11,18)                1.3414         estimate D2E/DX2                !
 ! R30   R(12,13)                1.3954         estimate D2E/DX2                !
 ! R31   R(13,14)                1.3947         estimate D2E/DX2                !
 ! R32   R(13,19)                1.3408         estimate D2E/DX2                !
 ! R33   R(14,17)                1.0861         estimate D2E/DX2                !
 ! R34   R(32,33)                1.0942         estimate D2E/DX2                !
 ! R35   R(32,34)                1.0956         estimate D2E/DX2                !
 ! R36   R(32,35)                1.095          estimate D2E/DX2                !
 ! A1    A(2,1,20)             111.6063         estimate D2E/DX2                !
 ! A2    A(2,1,21)             109.9535         estimate D2E/DX2                !
 ! A3    A(2,1,22)             111.1238         estimate D2E/DX2                !
 ! A4    A(20,1,21)            107.3452         estimate D2E/DX2                !
 ! A5    A(20,1,22)            108.6799         estimate D2E/DX2                !
 ! A6    A(21,1,22)            107.9893         estimate D2E/DX2                !
 ! A7    A(1,2,3)              114.0058         estimate D2E/DX2                !
 ! A8    A(1,2,23)             107.5187         estimate D2E/DX2                !
 ! A9    A(1,2,24)             109.083          estimate D2E/DX2                !
 ! A10   A(3,2,23)             108.6577         estimate D2E/DX2                !
 ! A11   A(3,2,24)             111.0245         estimate D2E/DX2                !
 ! A12   A(23,2,24)            106.199          estimate D2E/DX2                !
 ! A13   A(2,3,4)              113.457          estimate D2E/DX2                !
 ! A14   A(2,3,7)              108.0355         estimate D2E/DX2                !
 ! A15   A(2,3,31)             106.2286         estimate D2E/DX2                !
 ! A16   A(4,3,7)              111.0347         estimate D2E/DX2                !
 ! A17   A(4,3,31)             107.8095         estimate D2E/DX2                !
 ! A18   A(7,3,31)             110.1569         estimate D2E/DX2                !
 ! A19   A(3,4,5)              113.7955         estimate D2E/DX2                !
 ! A20   A(3,4,25)             107.851          estimate D2E/DX2                !
 ! A21   A(3,4,32)             111.7622         estimate D2E/DX2                !
 ! A22   A(5,4,25)             107.1421         estimate D2E/DX2                !
 ! A23   A(5,4,32)             109.955          estimate D2E/DX2                !
 ! A24   A(25,4,32)            105.8964         estimate D2E/DX2                !
 ! A25   A(4,5,6)              112.4222         estimate D2E/DX2                !
 ! A26   A(4,5,26)             110.2124         estimate D2E/DX2                !
 ! A27   A(4,5,27)             111.3197         estimate D2E/DX2                !
 ! A28   A(6,5,26)             107.4764         estimate D2E/DX2                !
 ! A29   A(6,5,27)             108.1961         estimate D2E/DX2                !
 ! A30   A(26,5,27)            106.9863         estimate D2E/DX2                !
 ! A31   A(5,6,28)             106.1922         estimate D2E/DX2                !
 ! A32   A(3,7,8)              111.8684         estimate D2E/DX2                !
 ! A33   A(3,7,36)             109.7171         estimate D2E/DX2                !
 ! A34   A(8,7,36)             106.4631         estimate D2E/DX2                !
 ! A35   A(7,8,12)             110.8788         estimate D2E/DX2                !
 ! A36   A(7,8,29)             110.8784         estimate D2E/DX2                !
 ! A37   A(7,8,30)             110.2179         estimate D2E/DX2                !
 ! A38   A(12,8,29)            109.4232         estimate D2E/DX2                !
 ! A39   A(12,8,30)            108.9911         estimate D2E/DX2                !
 ! A40   A(29,8,30)            106.3308         estimate D2E/DX2                !
 ! A41   A(10,9,14)            119.5419         estimate D2E/DX2                !
 ! A42   A(10,9,15)            120.2643         estimate D2E/DX2                !
 ! A43   A(14,9,15)            120.1936         estimate D2E/DX2                !
 ! A44   A(9,10,11)            119.7628         estimate D2E/DX2                !
 ! A45   A(9,10,16)            120.67           estimate D2E/DX2                !
 ! A46   A(11,10,16)           119.5668         estimate D2E/DX2                !
 ! A47   A(10,11,12)           121.6137         estimate D2E/DX2                !
 ! A48   A(10,11,18)           118.6852         estimate D2E/DX2                !
 ! A49   A(12,11,18)           119.7009         estimate D2E/DX2                !
 ! A50   A(8,12,11)            120.9702         estimate D2E/DX2                !
 ! A51   A(8,12,13)            121.3046         estimate D2E/DX2                !
 ! A52   A(11,12,13)           117.7189         estimate D2E/DX2                !
 ! A53   A(12,13,14)           121.4709         estimate D2E/DX2                !
 ! A54   A(12,13,19)           120.035          estimate D2E/DX2                !
 ! A55   A(14,13,19)           118.4916         estimate D2E/DX2                !
 ! A56   A(9,14,13)            119.8916         estimate D2E/DX2                !
 ! A57   A(9,14,17)            120.693          estimate D2E/DX2                !
 ! A58   A(13,14,17)           119.4152         estimate D2E/DX2                !
 ! A59   A(4,32,33)            112.3686         estimate D2E/DX2                !
 ! A60   A(4,32,34)            110.3452         estimate D2E/DX2                !
 ! A61   A(4,32,35)            110.7256         estimate D2E/DX2                !
 ! A62   A(33,32,34)           107.4483         estimate D2E/DX2                !
 ! A63   A(33,32,35)           108.2775         estimate D2E/DX2                !
 ! A64   A(34,32,35)           107.4921         estimate D2E/DX2                !
 ! D1    D(20,1,2,3)            69.3269         estimate D2E/DX2                !
 ! D2    D(20,1,2,23)         -170.1546         estimate D2E/DX2                !
 ! D3    D(20,1,2,24)          -55.3985         estimate D2E/DX2                !
 ! D4    D(21,1,2,3)          -171.6655         estimate D2E/DX2                !
 ! D5    D(21,1,2,23)          -51.147          estimate D2E/DX2                !
 ! D6    D(21,1,2,24)           63.6091         estimate D2E/DX2                !
 ! D7    D(22,1,2,3)           -52.1608         estimate D2E/DX2                !
 ! D8    D(22,1,2,23)           68.3578         estimate D2E/DX2                !
 ! D9    D(22,1,2,24)         -176.8861         estimate D2E/DX2                !
 ! D10   D(1,2,3,4)            -58.5006         estimate D2E/DX2                !
 ! D11   D(1,2,3,7)            177.9419         estimate D2E/DX2                !
 ! D12   D(1,2,3,31)            59.7639         estimate D2E/DX2                !
 ! D13   D(23,2,3,4)          -178.3799         estimate D2E/DX2                !
 ! D14   D(23,2,3,7)            58.0626         estimate D2E/DX2                !
 ! D15   D(23,2,3,31)          -60.1154         estimate D2E/DX2                !
 ! D16   D(24,2,3,4)            65.182          estimate D2E/DX2                !
 ! D17   D(24,2,3,7)           -58.3755         estimate D2E/DX2                !
 ! D18   D(24,2,3,31)         -176.5535         estimate D2E/DX2                !
 ! D19   D(2,3,4,5)            -62.5917         estimate D2E/DX2                !
 ! D20   D(2,3,4,25)            56.1216         estimate D2E/DX2                !
 ! D21   D(2,3,4,32)           172.1233         estimate D2E/DX2                !
 ! D22   D(7,3,4,5)             59.3098         estimate D2E/DX2                !
 ! D23   D(7,3,4,25)           178.0231         estimate D2E/DX2                !
 ! D24   D(7,3,4,32)           -65.9752         estimate D2E/DX2                !
 ! D25   D(31,3,4,5)          -179.9386         estimate D2E/DX2                !
 ! D26   D(31,3,4,25)          -61.2253         estimate D2E/DX2                !
 ! D27   D(31,3,4,32)           54.7763         estimate D2E/DX2                !
 ! D28   D(2,3,7,8)           -127.341          estimate D2E/DX2                !
 ! D29   D(2,3,7,36)            -9.4215         estimate D2E/DX2                !
 ! D30   D(4,3,7,8)            107.648          estimate D2E/DX2                !
 ! D31   D(4,3,7,36)          -134.4324         estimate D2E/DX2                !
 ! D32   D(31,3,7,8)           -11.7078         estimate D2E/DX2                !
 ! D33   D(31,3,7,36)          106.2118         estimate D2E/DX2                !
 ! D34   D(3,4,5,6)            -64.3046         estimate D2E/DX2                !
 ! D35   D(3,4,5,26)           175.8203         estimate D2E/DX2                !
 ! D36   D(3,4,5,27)            57.2737         estimate D2E/DX2                !
 ! D37   D(25,4,5,6)           176.5775         estimate D2E/DX2                !
 ! D38   D(25,4,5,26)           56.7024         estimate D2E/DX2                !
 ! D39   D(25,4,5,27)          -61.8442         estimate D2E/DX2                !
 ! D40   D(32,4,5,6)            61.9365         estimate D2E/DX2                !
 ! D41   D(32,4,5,26)          -57.9385         estimate D2E/DX2                !
 ! D42   D(32,4,5,27)         -176.4851         estimate D2E/DX2                !
 ! D43   D(3,4,32,33)           67.2105         estimate D2E/DX2                !
 ! D44   D(3,4,32,34)         -172.8943         estimate D2E/DX2                !
 ! D45   D(3,4,32,35)          -54.0089         estimate D2E/DX2                !
 ! D46   D(5,4,32,33)          -60.1716         estimate D2E/DX2                !
 ! D47   D(5,4,32,34)           59.7236         estimate D2E/DX2                !
 ! D48   D(5,4,32,35)          178.609          estimate D2E/DX2                !
 ! D49   D(25,4,32,33)        -175.6035         estimate D2E/DX2                !
 ! D50   D(25,4,32,34)         -55.7084         estimate D2E/DX2                !
 ! D51   D(25,4,32,35)          63.1771         estimate D2E/DX2                !
 ! D52   D(4,5,6,28)            32.544          estimate D2E/DX2                !
 ! D53   D(26,5,6,28)          153.9943         estimate D2E/DX2                !
 ! D54   D(27,5,6,28)          -90.7984         estimate D2E/DX2                !
 ! D55   D(3,7,8,12)          -175.3103         estimate D2E/DX2                !
 ! D56   D(3,7,8,29)           -53.5465         estimate D2E/DX2                !
 ! D57   D(3,7,8,30)            63.9166         estimate D2E/DX2                !
 ! D58   D(36,7,8,12)           64.8429         estimate D2E/DX2                !
 ! D59   D(36,7,8,29)         -173.3933         estimate D2E/DX2                !
 ! D60   D(36,7,8,30)          -55.9302         estimate D2E/DX2                !
 ! D61   D(7,8,12,11)          -76.6085         estimate D2E/DX2                !
 ! D62   D(7,8,12,13)          102.4578         estimate D2E/DX2                !
 ! D63   D(29,8,12,11)         160.7793         estimate D2E/DX2                !
 ! D64   D(29,8,12,13)         -20.1544         estimate D2E/DX2                !
 ! D65   D(30,8,12,11)          44.8879         estimate D2E/DX2                !
 ! D66   D(30,8,12,13)        -136.0458         estimate D2E/DX2                !
 ! D67   D(14,9,10,11)           0.0355         estimate D2E/DX2                !
 ! D68   D(14,9,10,16)         179.7875         estimate D2E/DX2                !
 ! D69   D(15,9,10,11)        -179.787          estimate D2E/DX2                !
 ! D70   D(15,9,10,16)          -0.035          estimate D2E/DX2                !
 ! D71   D(10,9,14,13)          -0.0165         estimate D2E/DX2                !
 ! D72   D(10,9,14,17)        -179.8571         estimate D2E/DX2                !
 ! D73   D(15,9,14,13)         179.8061         estimate D2E/DX2                !
 ! D74   D(15,9,14,17)          -0.0345         estimate D2E/DX2                !
 ! D75   D(9,10,11,12)          -0.1262         estimate D2E/DX2                !
 ! D76   D(9,10,11,18)         179.7159         estimate D2E/DX2                !
 ! D77   D(16,10,11,12)       -179.8809         estimate D2E/DX2                !
 ! D78   D(16,10,11,18)         -0.0389         estimate D2E/DX2                !
 ! D79   D(10,11,12,8)         179.2897         estimate D2E/DX2                !
 ! D80   D(10,11,12,13)          0.1909         estimate D2E/DX2                !
 ! D81   D(18,11,12,8)          -0.5508         estimate D2E/DX2                !
 ! D82   D(18,11,12,13)       -179.6496         estimate D2E/DX2                !
 ! D83   D(8,12,13,14)        -179.2667         estimate D2E/DX2                !
 ! D84   D(8,12,13,19)           1.3177         estimate D2E/DX2                !
 ! D85   D(11,12,13,14)         -0.1711         estimate D2E/DX2                !
 ! D86   D(11,12,13,19)       -179.5866         estimate D2E/DX2                !
 ! D87   D(12,13,14,9)           0.0872         estimate D2E/DX2                !
 ! D88   D(12,13,14,17)        179.9298         estimate D2E/DX2                !
 ! D89   D(19,13,14,9)         179.5115         estimate D2E/DX2                !
 ! D90   D(19,13,14,17)         -0.6459         estimate D2E/DX2                !
 --------------------------------------------------------------------------------
 Trust Radius=3.00D-01 FncErr=1.00D-07 GrdErr=1.00D-06
 Number of steps in this run=     50 maximum allowed number of steps=    216.
 GradGradGradGradGradGradGradGradGradGradGradGradGradGradGradGradGradGrad

                          Input orientation:                          
 ---------------------------------------------------------------------
 Center     Atomic      Atomic             Coordinates (Angstroms)
 Number     Number       Type             X           Y           Z
 ---------------------------------------------------------------------
      1          6           0       -3.121561    0.479589    1.590206
      2          6           0       -1.851748    1.170993    1.113133
      3          6           0       -0.618784    0.915157    2.013936
      4          6           0       -0.825574    1.367442    3.493086
      5          6           0       -1.064697    2.879876    3.652507
      6          8           0        0.060991    3.651791    3.254603
      7          7           0        0.543369    1.601576    1.405945
      8          6           0        1.685292    0.692448    1.228834
      9          6           0        5.120226    2.856352   -0.244074
     10          6           0        4.079594    2.518508   -1.107604
     11          6           0        2.977556    1.816044   -0.621856
     12          6           0        2.885446    1.434477    0.717982
     13          6           0        3.937118    1.783668    1.566063
     14          6           0        5.047230    2.486472    1.098139
     15          1           0        5.981642    3.406909   -0.613323
     16          1           0        4.115871    2.800360   -2.155631
     17          1           0        5.846306    2.742024    1.787838
     18          9           0        1.985748    1.507139   -1.470594
     19          9           0        3.900600    1.433431    2.859746
     20          1           0       -3.499064    0.924390    2.515257
     21          1           0       -3.908011    0.580062    0.835025
     22          1           0       -2.949688   -0.587937    1.759251
     23          1           0       -1.632261    0.799096    0.103081
     24          1           0       -2.046154    2.244966    1.008126
     25          1           0       -1.716147    0.856837    3.879442
     26          1           0       -1.275504    3.121340    4.699819
     27          1           0       -1.928608    3.209606    3.068447
     28          1           0        0.489585    3.154571    2.523550
     29          1           0        1.938476    0.195279    2.171747
     30          1           0        1.429118   -0.104550    0.518729
     31          1           0       -0.458844   -0.172283    2.014139
     32          6           0        0.337359    0.923044    4.392242
     33          1           0        1.273111    1.433891    4.145696
     34          1           0        0.111461    1.139865    5.442150
     35          1           0        0.502492   -0.156127    4.307170
     36          1           0        0.294772    1.940478    0.472329
 ---------------------------------------------------------------------
                    Distance matrix (angstroms):
                    1          2          3          4          5
     1  C    0.000000
     2  C    1.522519   0.000000
     3  C    2.575492   1.548257   0.000000
     4  C    3.111397   2.599192   1.560515   0.000000
     5  C    3.774275   3.160404   2.596897   1.539497   0.000000
     6  O    4.791839   3.794578   3.080668   2.461935   1.421743
     7  N    3.837254   2.451066   1.480346   2.506986   3.044170
     8  C    4.825115   3.571140   2.444330   3.447739   4.268662
     9  C    8.771581   7.300059   6.465530   7.178841   7.310073
    10  C    7.955627   6.475206   5.864256   6.822901   7.018046
    11  C    6.624089   5.171891   4.548918   5.621191   5.978438
    12  C    6.144650   4.760943   3.772111   4.634368   5.128766
    13  C    7.178172   5.838791   4.659522   5.154600   5.529292
    14  C    8.426082   7.023290   5.950750   6.440328   6.635903
    15  H    9.812902   8.327183   7.528409   8.207327   8.253845
    16  H    8.473352   6.996580   6.584545   7.640624   7.783256
    17  H    9.250963   7.885645   6.722050   7.022203   7.159466
    18  F    6.042265   4.638428   4.390442   5.706239   6.118479
    19  F    7.199465   6.017395   4.626968   4.768878   5.232098
    20  H    1.093653   2.177249   2.923597   2.880971   3.323162
    21  H    1.094941   2.157490   3.510147   4.145681   4.616469
    22  H    1.094408   2.171814   2.785188   3.367722   4.377595
    23  H    2.128765   1.098493   2.166096   3.530707   4.153336
    24  H    2.147527   1.096466   2.194865   2.904288   2.891214
    25  H    2.712583   2.787391   2.165114   1.096863   2.137422
    26  H    4.478445   4.123133   3.537300   2.175959   1.095266
    27  H    3.325857   2.825793   2.844667   2.188737   1.093705
    28  H    4.589884   3.377232   2.550130   2.421461   1.940565
    29  H    5.101274   4.054439   2.661336   3.280225   4.291708
    30  H    4.711471   3.569931   2.733011   4.012131   4.994645
    31  H    2.773935   2.134569   1.099139   2.166224   3.516672
    32  C    4.473498   3.950471   2.563320   1.535703   2.518365
    33  H    5.172462   4.362373   2.897025   2.198817   2.792750
    34  H    5.072067   4.753477   3.512322   2.174552   2.759313
    35  H    4.573816   4.183965   2.768363   2.178934   3.478790
    36  H    3.880100   2.368604   2.064563   3.272387   3.583875
                    6          7          8          9         10
     6  O    0.000000
     7  N    2.802429   0.000000
     8  C    3.936979   1.470330   0.000000
     9  C    6.202364   5.024405   4.318647   0.000000
    10  C    6.038406   4.434364   3.811315   1.393821   0.000000
    11  C    5.186835   3.175412   2.521402   2.411637   1.394236
    12  C    4.396416   2.446741   1.500649   2.818071   2.435955
    13  C    4.622273   3.402400   2.524917   2.413916   2.776470
    14  C    5.556157   4.600277   3.812903   1.394158   2.408869
    15  H    7.076364   6.075482   5.405596   1.086966   2.156700
    16  H    6.814515   5.185044   4.669648   2.160073   1.085872
    17  H    6.037296   5.437610   4.671968   2.160771   3.399237
    18  F    5.534592   3.219294   2.835649   3.626249   2.353470
    19  F    4.451924   3.662350   2.848951   3.625726   4.116952
    20  H    4.545255   4.246224   5.346609   9.254110   8.549994
    21  H    5.571611   4.602632   5.608276   9.373101   8.445899
    22  H    5.410689   4.137661   4.837744   8.999997   8.202418
    23  H    4.575703   2.659849   3.504975   7.067454   6.086659
    24  H    3.386130   2.697747   4.047556   7.300603   6.486596
    25  H    3.370521   3.431943   4.315383   8.230276   7.824474
    26  H    2.038687   4.058028   5.168517   8.088118   7.922540
    27  H    2.046628   3.385313   4.772896   7.796387   7.349524
    28  H    0.982527   1.914086   3.027880   5.402917   5.145680
    29  H    4.079829   2.123781   1.095611   4.800108   4.553671
    30  H    4.844262   2.117208   1.097761   4.793025   4.068220
    31  H    4.053705   2.126242   2.441676   6.737817   6.130502
    32  C    2.969286   3.069335   3.446338   6.936060   6.840916
    33  H    2.679993   2.840225   3.037715   6.007809   6.053916
    34  H    3.331318   4.085422   4.519863   7.769633   7.781132
    35  H    3.975306   3.392388   3.405180   7.149288   7.019196
    36  H    3.274797   1.023862   2.015794   4.963574   4.141882
                   11         12         13         14         15
    11  C    0.000000
    12  C    1.396153   0.000000
    13  C    2.389309   1.395417   0.000000
    14  C    2.773339   2.434034   1.394717   0.000000
    15  H    3.399332   3.905034   3.400693   2.156254   0.000000
    16  H    2.148745   3.411339   3.862204   3.398967   2.495539
    17  H    3.859247   3.408953   2.147703   1.086054   2.495188
    18  F    1.341440   2.367404   3.620166   4.114627   4.506796
    19  F    3.622148   2.370167   1.340752   2.350939   4.504171
    20  H    7.251423   6.652244   7.545603   8.802696  10.287599
    21  H    7.145711   6.847976   7.970516   9.159693  10.387204
    22  H    6.825029   6.262842   7.286284   8.593006  10.067599
    23  H    4.775995   4.603421   5.841890   6.960817   8.079941
    24  H    5.298913   5.006172   6.026909   7.098065   8.271923
    25  H    6.573630   5.612767   6.178199   7.492304   9.270586
    26  H    6.936320   6.001170   6.227457   7.304254   8.998733
    27  H    6.295300   5.643659   6.220707   7.284734   8.727337
    28  H    4.227911   3.458171   3.831663   4.821854   6.329798
    29  H    3.392755   2.132087   2.623815   4.008310   5.866717
    30  H    2.717954   2.128191   3.309432   4.487744   5.859809
    31  H    4.765581   3.930137   4.832287   6.182628   7.822661
    32  C    5.736660   4.500500   4.656847   5.956367   7.942493
    33  H    5.077472   3.787987   3.724753   4.963820   6.979350
    34  H    6.741208   5.486306   5.483993   6.711602   8.733113
    35  H    5.857533   4.592468   4.803450   6.159209   8.180927
    36  H    2.900009   2.651033   3.806249   4.824480   5.972399
                   16         17         18         19         20
    16  H    0.000000
    17  H    4.306827   0.000000
    18  F    2.584399   5.200599   0.000000
    19  F    5.202773   2.578211   4.735392   0.000000
    20  H    9.128181   9.548239   6.805128   7.425148   0.000000
    21  H    8.846266  10.036365   6.396229   8.111852   1.763230
    22  H    8.759508   9.405263   6.259375   7.226580   1.777777
    23  H    6.492138   7.908371   4.008462   6.214027   3.052744
    24  H    6.948984   7.946442   4.790060   6.281001   2.475139
    25  H    8.614628   8.069661   6.538333   5.737603   2.245965
    26  H    8.727379   7.703486   7.163477   5.746909   3.813544
    27  H    7.999637   7.893534   6.230848   6.097378   2.827466
    28  H    5.930443   5.422723   4.572278   3.835411   4.569803
    29  H    5.500336   4.680217   3.871674   2.419978   5.496949
    30  H    4.775913   5.406031   2.620073   3.735501   5.415886
    31  H    6.866703   6.949771   4.576008   4.722089   3.270588
    32  C    7.789487   6.359254   6.118104   3.912253   4.270974
    33  H    7.046648   5.308938   5.661796   2.925298   5.068686
    34  H    8.747504   6.986369   7.171741   4.594841   4.652851
    35  H    7.972774   6.580476   6.192662   4.021053   4.515631
    36  H    4.716606   5.761299   2.611921   4.354176   4.427096
                   21         22         23         24         25
    21  H    0.000000
    22  H    1.771101   0.000000
    23  H    2.400574   2.530291   0.000000
    24  H    2.503673   3.066904   1.755265   0.000000
    25  H    3.761562   2.846789   3.777734   3.206285   0.000000
    26  H    5.322107   5.020813   5.162373   3.871761   2.448501
    27  H    3.977526   4.144627   3.832985   2.277997   2.497674
    28  H    5.368246   5.139953   3.988629   3.090932   3.461687
    29  H    6.009683   4.967668   4.170628   4.629526   4.087805
    30  H    5.390147   4.576735   3.218910   4.223417   4.702271
    31  H    3.721973   2.538117   2.443896   3.061814   2.473713
    32  C    5.549288   4.474414   4.721405   4.345210   2.117601
    33  H    6.207543   5.254992   5.018654   4.638934   3.056067
    34  H    6.139636   5.091137   5.626931   5.053427   2.421221
    35  H    5.661299   4.312296   4.810820   4.810877   2.476168
    36  H    4.432343   4.309939   2.269924   2.420687   4.102011
                   26         27         28         29         30
    26  H    0.000000
    27  H    1.759463   0.000000
    28  H    2.802283   2.479435   0.000000
    29  H    5.028185   4.984433   3.313678   0.000000
    30  H    5.933200   5.362743   3.940038   1.755509   0.000000
    31  H    4.327559   3.835224   3.496709   2.430450   2.409406
    32  C    2.743800   3.480719   2.914600   2.832634   4.153552
    33  H    3.106441   3.816364   2.491187   2.423498   3.942845
    34  H    2.530014   3.752356   3.566545   3.863387   5.246414
    35  H    3.749298   4.332764   3.760610   2.597223   3.900459
    36  H    4.661746   3.646085   2.391544   2.938623   2.339024
                   31         32         33         34         35
    31  H    0.000000
    32  C    2.736614   0.000000
    33  H    3.181666   1.094249   0.000000
    34  H    3.714598   1.095604   1.765411   0.000000
    35  H    2.486447   1.095042   1.774284   1.766545   0.000000
    36  H    2.721925   4.050025   3.835023   5.037232   4.375489
                   36
    36  H    0.000000
 Stoichiometry    C13H19F2NO
 Framework group  C1[X(C13H19F2NO)]
 Deg. of freedom   102
 Full point group                 C1      NOp   1
 Largest Abelian subgroup         C1      NOp   1
 Largest concise Abelian subgroup C1      NOp   1
                         Standard orientation:                         
 ---------------------------------------------------------------------
 Center     Atomic      Atomic             Coordinates (Angstroms)
 Number     Number       Type             X           Y           Z
 ---------------------------------------------------------------------
      1          6           0       -4.192628    1.870662   -0.388991
      2          6           0       -2.764880    1.692731    0.108944
      3          6           0       -2.043560    0.453946   -0.476039
      4          6           0       -2.775437   -0.890929   -0.174583
      5          6           0       -2.873455   -1.222042    1.325686
      6          8           0       -1.598631   -1.431640    1.919189
      7          7           0       -0.660932    0.436564    0.052604
      8          6           0        0.335456    0.329287   -1.023301
      9          6           0        4.307089   -0.040627    0.631995
     10          6           0        3.673019    1.200152    0.597930
     11          6           0        2.392451    1.308384    0.057259
     12          6           0        1.719901    0.199193   -0.459088
     13          6           0        2.371609   -1.033870   -0.414130
     14          6           0        3.652314   -1.161392    0.123242
     15          1           0        5.304004   -0.134959    1.054794
     16          1           0        4.164662    2.084433    0.992203
     17          1           0        4.127949   -2.137567    0.142424
     18          9           0        1.800137    2.511859    0.040653
     19          9           0        1.771932   -2.128144   -0.904606
     20          1           0       -4.855611    1.094329    0.003229
     21          1           0       -4.587152    2.836018   -0.055321
     22          1           0       -4.234722    1.848007   -1.482355
     23          1           0       -2.201816    2.592869   -0.172832
     24          1           0       -2.768370    1.664743    1.205047
     25          1           0       -3.800862   -0.808337   -0.555095
     26          1           0       -3.459554   -2.135307    1.474145
     27          1           0       -3.379725   -0.424374    1.876692
     28          1           0       -0.974303   -0.840954    1.443098
     29          1           0        0.122615   -0.530389   -1.668297
     30          1           0        0.294450    1.216690   -1.668215
     31          1           0       -2.030472    0.592511   -1.566330
     32          6           0       -2.139757   -2.066947   -0.930413
     33          1           0       -1.130007   -2.293493   -0.574796
     34          1           0       -2.743569   -2.972297   -0.803525
     35          1           0       -2.086412   -1.854592   -2.003341
     36          1           0       -0.466879    1.315123    0.541247
 ---------------------------------------------------------------------
 Rotational constants (GHZ):      0.7311342      0.2743143      0.2293000
 Standard basis: 6-31G(d,p) (6D, 7F)
 There are   350 symmetry adapted cartesian basis functions of A   symmetry.
 There are   350 symmetry adapted basis functions of A   symmetry.
   350 basis functions,   609 primitive gaussians,   350 cartesian basis functions
    65 alpha electrons       65 beta electrons
       nuclear repulsion energy      1284.3954433922 Hartrees.
 NAtoms=   36 NActive=   36 NUniq=   36 SFac= 1.00D+00 NAtFMM=   60 NAOKFM=F Big=F
 Integral buffers will be    131072 words long.
 Raffenetti 2 integral format.
 Two-electron integral symmetry is turned on.
 ------------------------------------------------------------------------------
 Polarizable Continuum Model (PCM)
 =================================
 Model                : PCM (using non-symmetric T matrix).
 Atomic radii         : UFF (Universal Force Field).
 Polarization charges : Total charges.
 Charge compensation  : None.
 Solution method      : On-the-fly selection.
 Cavity type          : Scaled VdW (van der Waals Surface) (Alpha=1.100).
 Cavity algorithm     : GePol (No added spheres)
                        Default sphere list used, NSphG=   36.
                        Lebedev-Laikov grids with approx.  5.0 points / Ang**2.
                        Smoothing algorithm: Karplus/York (Gamma=1.0000).
                        Polarization charges: spherical gaussians, with
                                              point-specific exponents (IZeta= 3).
                        Self-potential: point-specific (ISelfS= 7).
                        Self-field    : sphere-specific E.n sum rule (ISelfD= 2).
 1st derivatives      : Analytical E(r).r(x)/FMM algorithm (CHGder, D1EAlg=3).
                        Cavity 1st derivative terms included.
 Solvent              : Chloroform, Eps=   4.711300 Eps(inf)=   2.090627
 ------------------------------------------------------------------------------
 One-electron integrals computed using PRISM.
 NBasis=   350 RedAO= T EigKep=  4.08D-04  NBF=   350
 NBsUse=   350 1.00D-06 EigRej= -1.00D+00 NBFU=   350
 ExpMin= 1.61D-01 ExpMax= 7.00D+03 ExpMxC= 1.05D+03 IAcc=1 IRadAn=         1 AccDes= 0.00D+00
 Harris functional with IExCor=  402 and IRadAn=       1 diagonalized for initial guess.
 HarFok:  IExCor=  402 AccDes= 0.00D+00 IRadAn=         1 IDoV= 1 UseB2=F ITyADJ=14
 ICtDFT=  3500011 ScaDFX=  1.000000  1.000000  1.000000  1.000000
 FoFCou: FMM=F IPFlag=           0 FMFlag=      100000 FMFlg1=           0
         NFxFlg=           0 DoJE=T BraDBF=F KetDBF=T FulRan=T
         wScrn=  0.000000 ICntrl=     500 IOpCl=  0 I1Cent=   200000004 NGrid=           0
         NMat0=    1 NMatS0=      1 NMatT0=    0 NMatD0=    1 NMtDS0=    0 NMtDT0=    0
 Petite list used in FoFCou.
 Requested convergence on RMS density matrix=1.00D-08 within 128 cycles.
 Requested convergence on MAX density matrix=1.00D-06.
 Requested convergence on             energy=1.00D-06.
 No special actions if energy rises.
 Inv3:  Mode=1 IEnd=    18332352.
 Iteration    1 A*A^-1 deviation from unit magnitude is 7.55D-15 for    828.
 Iteration    1 A*A^-1 deviation from orthogonality  is 9.74D-15 for   2191   2023.
 Iteration    1 A^-1*A deviation from unit magnitude is 7.22D-15 for   1540.
 Iteration    1 A^-1*A deviation from orthogonality  is 1.98D-12 for   2467   2452.
 Error on total polarization charges =  0.00785
 SCF Done:  E(RB3LYP) =  -836.494960267     A.U. after   12 cycles
            NFock= 12  Conv=0.65D-08     -V/T= 2.0088

 **********************************************************************

            Population analysis using the SCF density.

 **********************************************************************

 Orbital symmetries:
       Occupied  (A) (A) (A) (A) (A) (A) (A) (A) (A) (A) (A) (A)
                 (A) (A) (A) (A) (A) (A) (A) (A) (A) (A) (A) (A)
                 (A) (A) (A) (A) (A) (A) (A) (A) (A) (A) (A) (A)
                 (A) (A) (A) (A) (A) (A) (A) (A) (A) (A) (A) (A)
                 (A) (A) (A) (A) (A) (A) (A) (A) (A) (A) (A) (A)
                 (A) (A) (A) (A) (A)
       Virtual   (A) (A) (A) (A) (A) (A) (A) (A) (A) (A) (A) (A)
                 (A) (A) (A) (A) (A) (A) (A) (A) (A) (A) (A) (A)
                 (A) (A) (A) (A) (A) (A) (A) (A) (A) (A) (A) (A)
                 (A) (A) (A) (A) (A) (A) (A) (A) (A) (A) (A) (A)
                 (A) (A) (A) (A) (A) (A) (A) (A) (A) (A) (A) (A)
                 (A) (A) (A) (A) (A) (A) (A) (A) (A) (A) (A) (A)
                 (A) (A) (A) (A) (A) (A) (A) (A) (A) (A) (A) (A)
                 (A) (A) (A) (A) (A) (A) (A) (A) (A) (A) (A) (A)
                 (A) (A) (A) (A) (A) (A) (A) (A) (A) (A) (A) (A)
                 (A) (A) (A) (A) (A) (A) (A) (A) (A) (A) (A) (A)
                 (A) (A) (A) (A) (A) (A) (A) (A) (A) (A) (A) (A)
                 (A) (A) (A) (A) (A) (A) (A) (A) (A) (A) (A) (A)
                 (A) (A) (A) (A) (A) (A) (A) (A) (A) (A) (A) (A)
                 (A) (A) (A) (A) (A) (A) (A) (A) (A) (A) (A) (A)
                 (A) (A) (A) (A) (A) (A) (A) (A) (A) (A) (A) (A)
                 (A) (A) (A) (A) (A) (A) (A) (A) (A) (A) (A) (A)
                 (A) (A) (A) (A) (A) (A) (A) (A) (A) (A) (A) (A)
                 (A) (A) (A) (A) (A) (A) (A) (A) (A) (A) (A) (A)
                 (A) (A) (A) (A) (A) (A) (A) (A) (A) (A) (A) (A)
                 (A) (A) (A) (A) (A) (A) (A) (A) (A) (A) (A) (A)
                 (A) (A) (A) (A) (A) (A) (A) (A) (A) (A) (A) (A)
                 (A) (A) (A) (A) (A) (A) (A) (A) (A) (A) (A) (A)
                 (A) (A) (A) (A) (A) (A) (A) (A) (A) (A) (A) (A)
                 (A) (A) (A) (A) (A) (A) (A) (A) (A)
 The electronic state is 1-A.
 Alpha  occ. eigenvalues --  -24.72400 -24.72037 -19.10943 -14.33454 -10.28390
 Alpha  occ. eigenvalues --  -10.28336 -10.22251 -10.21663 -10.21338 -10.21017
 Alpha  occ. eigenvalues --  -10.20824 -10.20038 -10.19975 -10.18487 -10.18369
 Alpha  occ. eigenvalues --  -10.17513 -10.16758  -1.23727  -1.23352  -0.98644
 Alpha  occ. eigenvalues --   -0.91981  -0.87126  -0.80265  -0.77167  -0.75687
 Alpha  occ. eigenvalues --   -0.75511  -0.69355  -0.66448  -0.64843  -0.63181
 Alpha  occ. eigenvalues --   -0.61380  -0.60392  -0.56481  -0.55514  -0.53364
 Alpha  occ. eigenvalues --   -0.49730  -0.49483  -0.49407  -0.48498  -0.47005
 Alpha  occ. eigenvalues --   -0.46701  -0.45939  -0.44920  -0.44449  -0.44152
 Alpha  occ. eigenvalues --   -0.42922  -0.42046  -0.40964  -0.39738  -0.39154
 Alpha  occ. eigenvalues --   -0.38329  -0.37151  -0.36907  -0.36549  -0.36075
 Alpha  occ. eigenvalues --   -0.35479  -0.35263  -0.34545  -0.32072  -0.31619
 Alpha  occ. eigenvalues --   -0.30306  -0.25755  -0.24888  -0.24192  -0.23551
 Alpha virt. eigenvalues --   -0.01606  -0.00405   0.07078   0.08451   0.10167
 Alpha virt. eigenvalues --    0.10647   0.11794   0.13091   0.13469   0.14005
 Alpha virt. eigenvalues --    0.14444   0.15179   0.15558   0.16014   0.16489
 Alpha virt. eigenvalues --    0.17107   0.17954   0.18100   0.18701   0.19206
 Alpha virt. eigenvalues --    0.19985   0.20545   0.21473   0.22321   0.23539
 Alpha virt. eigenvalues --    0.24128   0.24882   0.25064   0.26707   0.26872
 Alpha virt. eigenvalues --    0.27697   0.28751   0.29945   0.31162   0.31686
 Alpha virt. eigenvalues --    0.37196   0.38316   0.46160   0.48760   0.49648
 Alpha virt. eigenvalues --    0.50092   0.51348   0.51604   0.52153   0.53222
 Alpha virt. eigenvalues --    0.53726   0.54639   0.56334   0.56671   0.57337
 Alpha virt. eigenvalues --    0.57979   0.58716   0.59325   0.59446   0.60094
 Alpha virt. eigenvalues --    0.62466   0.62773   0.63476   0.65597   0.65915
 Alpha virt. eigenvalues --    0.66074   0.68460   0.68794   0.69385   0.70759
 Alpha virt. eigenvalues --    0.72848   0.75426   0.76219   0.77029   0.78477
 Alpha virt. eigenvalues --    0.79416   0.79898   0.81622   0.82663   0.83547
 Alpha virt. eigenvalues --    0.84139   0.84686   0.85593   0.86427   0.86920
 Alpha virt. eigenvalues --    0.87655   0.87978   0.88480   0.88769   0.90162
 Alpha virt. eigenvalues --    0.90515   0.91736   0.92658   0.93926   0.94060
 Alpha virt. eigenvalues --    0.95139   0.95963   0.97060   0.98105   1.00465
 Alpha virt. eigenvalues --    1.00637   1.02267   1.03074   1.03798   1.04747
 Alpha virt. eigenvalues --    1.09193   1.11060   1.11903   1.12616   1.15803
 Alpha virt. eigenvalues --    1.18037   1.20524   1.21592   1.22147   1.23853
 Alpha virt. eigenvalues --    1.24439   1.25747   1.26911   1.31788   1.33696
 Alpha virt. eigenvalues --    1.35345   1.35472   1.36654   1.38355   1.38849
 Alpha virt. eigenvalues --    1.39367   1.41146   1.41602   1.42688   1.43653
 Alpha virt. eigenvalues --    1.45829   1.49381   1.51543   1.52567   1.53865
 Alpha virt. eigenvalues --    1.54835   1.59535   1.61492   1.64408   1.66244
 Alpha virt. eigenvalues --    1.69251   1.71092   1.72110   1.72386   1.73214
 Alpha virt. eigenvalues --    1.75575   1.76798   1.78685   1.79610   1.81290
 Alpha virt. eigenvalues --    1.81893   1.82476   1.83690   1.85594   1.86132
 Alpha virt. eigenvalues --    1.86557   1.87240   1.88058   1.89192   1.89643
 Alpha virt. eigenvalues --    1.90306   1.90577   1.92467   1.93654   1.94012
 Alpha virt. eigenvalues --    1.95448   1.97229   1.98223   1.98395   2.01154
 Alpha virt. eigenvalues --    2.01722   2.03716   2.04677   2.05169   2.05487
 Alpha virt. eigenvalues --    2.05809   2.06216   2.07118   2.09525   2.11435
 Alpha virt. eigenvalues --    2.13677   2.14402   2.14673   2.17275   2.18424
 Alpha virt. eigenvalues --    2.19423   2.19592   2.20613   2.24187   2.25790
 Alpha virt. eigenvalues --    2.26197   2.27937   2.29198   2.29528   2.30797
 Alpha virt. eigenvalues --    2.31406   2.32252   2.33715   2.34484   2.35924
 Alpha virt. eigenvalues --    2.36926   2.37812   2.37907   2.39866   2.40732
 Alpha virt. eigenvalues --    2.41774   2.43800   2.47465   2.48448   2.48931
 Alpha virt. eigenvalues --    2.50660   2.51535   2.52730   2.53634   2.54706
 Alpha virt. eigenvalues --    2.55328   2.56947   2.57752   2.60872   2.62449
 Alpha virt. eigenvalues --    2.63659   2.64904   2.65276   2.68081   2.69076
 Alpha virt. eigenvalues --    2.69429   2.72141   2.73749   2.74069   2.74906
 Alpha virt. eigenvalues --    2.75766   2.76939   2.79470   2.80317   2.81651
 Alpha virt. eigenvalues --    2.84139   2.85111   2.85483   2.86610   2.88785
 Alpha virt. eigenvalues --    2.90153   2.91900   2.92427   2.94170   2.95358
 Alpha virt. eigenvalues --    2.97876   3.01239   3.04388   3.05412   3.06457
 Alpha virt. eigenvalues --    3.10183   3.14443   3.19992   3.20335   3.22453
 Alpha virt. eigenvalues --    3.25456   3.29485   3.30919   3.33472   3.35118
 Alpha virt. eigenvalues --    3.35504   3.39717   3.40423   3.41263   3.43634
 Alpha virt. eigenvalues --    3.45672   3.47329   3.48666   3.51878   3.54319
 Alpha virt. eigenvalues --    3.56298   3.60687   3.80246   3.94805   4.08002
 Alpha virt. eigenvalues --    4.09565   4.11884   4.17038   4.32640   4.37978
 Alpha virt. eigenvalues --    4.41197   4.46336   4.54788   4.59161   4.63085
 Alpha virt. eigenvalues --    4.68867   4.77976   4.78511   5.50590   5.60473
          Condensed to atoms (all electrons):
               1          2          3          4          5          6
     1  C    4.931237   0.359508  -0.039489  -0.002342  -0.001131   0.000042
     2  C    0.359508   4.955249   0.365891  -0.042672  -0.005153  -0.000854
     3  C   -0.039489   0.365891   4.873021   0.364232  -0.033507  -0.005474
     4  C   -0.002342  -0.042672   0.364232   5.026052   0.361047  -0.040565
     5  C   -0.001131  -0.005153  -0.033507   0.361047   4.706741   0.271739
     6  O    0.000042  -0.000854  -0.005474  -0.040565   0.271739   8.203900
     7  N    0.004183  -0.043123   0.250198  -0.062189  -0.002637  -0.027673
     8  C   -0.000119   0.001564  -0.028006   0.000406   0.000159   0.000563
     9  C    0.000000   0.000000   0.000000   0.000000   0.000000   0.000000
    10  C    0.000000   0.000000   0.000006   0.000000   0.000000   0.000000
    11  C    0.000000  -0.000042   0.000237   0.000010   0.000000   0.000011
    12  C    0.000002  -0.000204   0.005188  -0.000315   0.000008  -0.000016
    13  C    0.000000  -0.000001  -0.000107  -0.000005  -0.000005  -0.000044
    14  C    0.000000   0.000000   0.000003   0.000000   0.000000   0.000001
    15  H    0.000000   0.000000   0.000000   0.000000   0.000000   0.000000
    16  H    0.000000   0.000000   0.000000   0.000000   0.000000   0.000000
    17  H    0.000000   0.000000   0.000000   0.000000   0.000000   0.000000
    18  F    0.000000  -0.000040   0.000031   0.000000   0.000000   0.000000
    19  F    0.000000   0.000000  -0.000008   0.000017   0.000000  -0.000002
    20  H    0.388055  -0.033351  -0.005877   0.001720   0.000309  -0.000012
    21  H    0.378588  -0.026974   0.004136   0.000139  -0.000008   0.000000
    22  H    0.387530  -0.036848  -0.005234  -0.001382   0.000107  -0.000001
    23  H   -0.037415   0.377505  -0.032524   0.005375   0.000024   0.000000
    24  H   -0.037984   0.381093  -0.030784  -0.010910   0.003308   0.000250
    25  H    0.002305  -0.007761  -0.040470   0.362664  -0.033000   0.003406
    26  H    0.000056  -0.000069   0.005598  -0.027444   0.377618  -0.042576
    27  H   -0.000318   0.004157  -0.013793  -0.044072   0.369233  -0.047017
    28  H   -0.000057   0.000059  -0.002299  -0.011594  -0.041648   0.280778
    29  H    0.000019   0.000081  -0.002373   0.000556   0.000077   0.000102
    30  H   -0.000083   0.000946  -0.006144  -0.000601  -0.000008  -0.000036
    31  H   -0.005905  -0.039553   0.384549  -0.058647   0.004704  -0.000237
    32  C   -0.000028   0.005215  -0.047138   0.352425  -0.051791  -0.001872
    33  H   -0.000003  -0.000001  -0.009123  -0.030494  -0.007748   0.010584
    34  H    0.000005  -0.000155   0.004621  -0.028108  -0.003196  -0.000421
    35  H   -0.000018   0.000054  -0.004795  -0.033239   0.004967   0.000179
    36  H    0.000192  -0.006605  -0.038896   0.004318   0.000256   0.000716
               7          8          9         10         11         12
     1  C    0.004183  -0.000119   0.000000   0.000000   0.000000   0.000002
     2  C   -0.043123   0.001564   0.000000   0.000000  -0.000042  -0.000204
     3  C    0.250198  -0.028006   0.000000   0.000006   0.000237   0.005188
     4  C   -0.062189   0.000406   0.000000   0.000000   0.000010  -0.000315
     5  C   -0.002637   0.000159   0.000000   0.000000   0.000000   0.000008
     6  O   -0.027673   0.000563   0.000000   0.000000   0.000011  -0.000016
     7  N    6.960238   0.264673   0.000026  -0.000173  -0.007000  -0.046750
     8  C    0.264673   4.950980  -0.000565   0.008763  -0.049364   0.295487
     9  C    0.000026  -0.000565   4.848832   0.489352  -0.010532  -0.027358
    10  C   -0.000173   0.008763   0.489352   5.046771   0.480543  -0.075050
    11  C   -0.007000  -0.049364  -0.010532   0.480543   4.615934   0.392255
    12  C   -0.046750   0.295487  -0.027358  -0.075050   0.392255   5.313508
    13  C    0.003698  -0.048017  -0.009566  -0.050280   0.016613   0.417345
    14  C   -0.000091   0.008109   0.488473  -0.031921  -0.047510  -0.071358
    15  H    0.000000   0.000004   0.375714  -0.034884   0.003666   0.000200
    16  H    0.000001  -0.000158  -0.036929   0.358911  -0.032602   0.006454
    17  H    0.000001  -0.000148  -0.037045   0.004688   0.000493   0.006364
    18  F   -0.002766   0.004214   0.002937  -0.047022   0.306246  -0.058738
    19  F   -0.000186  -0.003747   0.002998  -0.000041   0.002512  -0.050753
    20  H   -0.000020  -0.000004   0.000000   0.000000   0.000000   0.000000
    21  H   -0.000106   0.000002   0.000000   0.000000   0.000000   0.000000
    22  H    0.000030   0.000004   0.000000   0.000000   0.000000   0.000000
    23  H   -0.003794   0.000452   0.000000   0.000000   0.000006  -0.000078
    24  H   -0.003316  -0.000007   0.000000   0.000000  -0.000008   0.000035
    25  H    0.004808  -0.000120   0.000000   0.000000   0.000000   0.000006
    26  H   -0.000259   0.000011   0.000000   0.000000   0.000000   0.000000
    27  H    0.000179  -0.000050   0.000000   0.000000   0.000000  -0.000001
    28  H    0.066345  -0.002537  -0.000002  -0.000007  -0.000151   0.000552
    29  H   -0.039841   0.378285  -0.000027  -0.000158   0.005365  -0.028602
    30  H   -0.046917   0.359959  -0.000009  -0.000003  -0.011386  -0.032894
    31  H   -0.050423  -0.008475   0.000000   0.000000  -0.000079   0.000906
    32  C   -0.002559  -0.001136   0.000000   0.000000  -0.000005   0.000058
    33  H    0.005146  -0.001342  -0.000001   0.000000  -0.000013  -0.000692
    34  H   -0.000086   0.000084   0.000000   0.000000   0.000000   0.000001
    35  H   -0.000098  -0.000685   0.000000   0.000000  -0.000001   0.000045
    36  H    0.327827  -0.030675  -0.000020   0.000013   0.005168  -0.010775
              13         14         15         16         17         18
     1  C    0.000000   0.000000   0.000000   0.000000   0.000000   0.000000
     2  C   -0.000001   0.000000   0.000000   0.000000   0.000000  -0.000040
     3  C   -0.000107   0.000003   0.000000   0.000000   0.000000   0.000031
     4  C   -0.000005   0.000000   0.000000   0.000000   0.000000   0.000000
     5  C   -0.000005   0.000000   0.000000   0.000000   0.000000   0.000000
     6  O   -0.000044   0.000001   0.000000   0.000000   0.000000   0.000000
     7  N    0.003698  -0.000091   0.000000   0.000001   0.000001  -0.002766
     8  C   -0.048017   0.008109   0.000004  -0.000158  -0.000148   0.004214
     9  C   -0.009566   0.488473   0.375714  -0.036929  -0.037045   0.002937
    10  C   -0.050280  -0.031921  -0.034884   0.358911   0.004688  -0.047022
    11  C    0.016613  -0.047510   0.003666  -0.032602   0.000493   0.306246
    12  C    0.417345  -0.071358   0.000200   0.006454   0.006364  -0.058738
    13  C    4.588323   0.476726   0.003649   0.000506  -0.032176   0.002390
    14  C    0.476726   5.042428  -0.034240   0.004635   0.359214  -0.000068
    15  H    0.003649  -0.034240   0.578487  -0.005930  -0.005890  -0.000022
    16  H    0.000506   0.004635  -0.005930   0.592036  -0.000150  -0.000379
    17  H   -0.032176   0.359214  -0.005890  -0.000150   0.590645   0.000001
    18  F    0.002390  -0.000068  -0.000022  -0.000379   0.000001   9.071988
    19  F    0.303851  -0.045334  -0.000023   0.000001  -0.000495   0.000000
    20  H    0.000000   0.000000   0.000000   0.000000   0.000000   0.000000
    21  H    0.000000   0.000000   0.000000   0.000000   0.000000   0.000000
    22  H    0.000000   0.000000   0.000000   0.000000   0.000000   0.000000
    23  H    0.000000   0.000000   0.000000   0.000000   0.000000   0.000012
    24  H    0.000001   0.000000   0.000000   0.000000   0.000000   0.000000
    25  H    0.000000   0.000000   0.000000   0.000000   0.000000   0.000000
    26  H    0.000000   0.000000   0.000000   0.000000   0.000000   0.000000
    27  H    0.000000   0.000000   0.000000   0.000000   0.000000   0.000000
    28  H    0.000722  -0.000011   0.000000   0.000000   0.000000  -0.000003
    29  H   -0.008257   0.000418   0.000000   0.000002  -0.000008   0.000174
    30  H    0.005078  -0.000222   0.000000   0.000000   0.000003   0.003801
    31  H    0.000041   0.000000   0.000000   0.000000   0.000000  -0.000001
    32  C   -0.000036  -0.000003   0.000000   0.000000   0.000000   0.000000
    33  H    0.000538   0.000024   0.000000   0.000000   0.000000   0.000000
    34  H   -0.000002   0.000000   0.000000   0.000000   0.000000   0.000000
    35  H   -0.000011   0.000000   0.000000   0.000000   0.000000   0.000000
    36  H   -0.000408   0.000012   0.000000   0.000002   0.000000   0.008286
              19         20         21         22         23         24
     1  C    0.000000   0.388055   0.378588   0.387530  -0.037415  -0.037984
     2  C    0.000000  -0.033351  -0.026974  -0.036848   0.377505   0.381093
     3  C   -0.000008  -0.005877   0.004136  -0.005234  -0.032524  -0.030784
     4  C    0.000017   0.001720   0.000139  -0.001382   0.005375  -0.010910
     5  C    0.000000   0.000309  -0.000008   0.000107   0.000024   0.003308
     6  O   -0.000002  -0.000012   0.000000  -0.000001   0.000000   0.000250
     7  N   -0.000186  -0.000020  -0.000106   0.000030  -0.003794  -0.003316
     8  C   -0.003747  -0.000004   0.000002   0.000004   0.000452  -0.000007
     9  C    0.002998   0.000000   0.000000   0.000000   0.000000   0.000000
    10  C   -0.000041   0.000000   0.000000   0.000000   0.000000   0.000000
    11  C    0.002512   0.000000   0.000000   0.000000   0.000006  -0.000008
    12  C   -0.050753   0.000000   0.000000   0.000000  -0.000078   0.000035
    13  C    0.303851   0.000000   0.000000   0.000000   0.000000   0.000001
    14  C   -0.045334   0.000000   0.000000   0.000000   0.000000   0.000000
    15  H   -0.000023   0.000000   0.000000   0.000000   0.000000   0.000000
    16  H    0.000001   0.000000   0.000000   0.000000   0.000000   0.000000
    17  H   -0.000495   0.000000   0.000000   0.000000   0.000000   0.000000
    18  F    0.000000   0.000000   0.000000   0.000000   0.000012   0.000000
    19  F    9.065113   0.000000   0.000000   0.000000   0.000000   0.000000
    20  H    0.000000   0.594955  -0.030226  -0.032351   0.005497  -0.006399
    21  H    0.000000  -0.030226   0.606833  -0.030774  -0.005647  -0.001909
    22  H    0.000000  -0.032351  -0.030774   0.603160  -0.004059   0.005512
    23  H    0.000000   0.005497  -0.005647  -0.004059   0.636395  -0.040970
    24  H    0.000000  -0.006399  -0.001909   0.005512  -0.040970   0.622325
    25  H    0.000000   0.002599  -0.000037   0.000785   0.000071   0.000101
    26  H    0.000000  -0.000100   0.000000  -0.000001   0.000000  -0.000090
    27  H    0.000000   0.001287  -0.000029  -0.000007  -0.000031   0.000656
    28  H    0.000009   0.000006   0.000001   0.000000  -0.000041   0.000600
    29  H    0.008987   0.000000   0.000000  -0.000004   0.000019  -0.000025
    30  H    0.000198   0.000002   0.000002   0.000000   0.000225   0.000051
    31  H   -0.000002  -0.000199   0.000003   0.005713  -0.007009   0.006388
    32  C   -0.000986  -0.000019  -0.000002  -0.000049  -0.000141  -0.000011
    33  H    0.004752   0.000001   0.000000   0.000000   0.000000  -0.000005
    34  H    0.000001   0.000007   0.000000   0.000000   0.000002   0.000001
    35  H   -0.000021   0.000005   0.000000   0.000010  -0.000003   0.000003
    36  H   -0.000011   0.000019  -0.000028   0.000023   0.005391   0.001541
              25         26         27         28         29         30
     1  C    0.002305   0.000056  -0.000318  -0.000057   0.000019  -0.000083
     2  C   -0.007761  -0.000069   0.004157   0.000059   0.000081   0.000946
     3  C   -0.040470   0.005598  -0.013793  -0.002299  -0.002373  -0.006144
     4  C    0.362664  -0.027444  -0.044072  -0.011594   0.000556  -0.000601
     5  C   -0.033000   0.377618   0.369233  -0.041648   0.000077  -0.000008
     6  O    0.003406  -0.042576  -0.047017   0.280778   0.000102  -0.000036
     7  N    0.004808  -0.000259   0.000179   0.066345  -0.039841  -0.046917
     8  C   -0.000120   0.000011  -0.000050  -0.002537   0.378285   0.359959
     9  C    0.000000   0.000000   0.000000  -0.000002  -0.000027  -0.000009
    10  C    0.000000   0.000000   0.000000  -0.000007  -0.000158  -0.000003
    11  C    0.000000   0.000000   0.000000  -0.000151   0.005365  -0.011386
    12  C    0.000006   0.000000  -0.000001   0.000552  -0.028602  -0.032894
    13  C    0.000000   0.000000   0.000000   0.000722  -0.008257   0.005078
    14  C    0.000000   0.000000   0.000000  -0.000011   0.000418  -0.000222
    15  H    0.000000   0.000000   0.000000   0.000000   0.000000   0.000000
    16  H    0.000000   0.000000   0.000000   0.000000   0.000002   0.000000
    17  H    0.000000   0.000000   0.000000   0.000000  -0.000008   0.000003
    18  F    0.000000   0.000000   0.000000  -0.000003   0.000174   0.003801
    19  F    0.000000   0.000000   0.000000   0.000009   0.008987   0.000198
    20  H    0.002599  -0.000100   0.001287   0.000006   0.000000   0.000002
    21  H   -0.000037   0.000000  -0.000029   0.000001   0.000000   0.000002
    22  H    0.000785  -0.000001  -0.000007   0.000000  -0.000004   0.000000
    23  H    0.000071   0.000000  -0.000031  -0.000041   0.000019   0.000225
    24  H    0.000101  -0.000090   0.000656   0.000600  -0.000025   0.000051
    25  H    0.660523  -0.003014   0.000421   0.000257  -0.000095   0.000023
    26  H   -0.003014   0.660851  -0.056256   0.005194   0.000004   0.000000
    27  H    0.000421  -0.056256   0.704983   0.000675  -0.000006   0.000001
    28  H    0.000257   0.005194   0.000675   0.379104  -0.000633   0.000497
    29  H   -0.000095   0.000004  -0.000006  -0.000633   0.591405  -0.044494
    30  H    0.000023   0.000000   0.000001   0.000497  -0.044494   0.662787
    31  H   -0.001968  -0.000182  -0.000045   0.000803  -0.002502   0.009218
    32  C   -0.040189  -0.010514   0.007150  -0.000071   0.002126   0.000100
    33  H    0.005898  -0.001013   0.000423   0.001128   0.000150   0.000138
    34  H   -0.005364   0.004730  -0.000105  -0.000034  -0.000023  -0.000004
    35  H   -0.003387  -0.000104  -0.000156  -0.000049   0.001453   0.000057
    36  H   -0.000186   0.000016  -0.000083  -0.002463   0.006028  -0.008057
              31         32         33         34         35         36
     1  C   -0.005905  -0.000028  -0.000003   0.000005  -0.000018   0.000192
     2  C   -0.039553   0.005215  -0.000001  -0.000155   0.000054  -0.006605
     3  C    0.384549  -0.047138  -0.009123   0.004621  -0.004795  -0.038896
     4  C   -0.058647   0.352425  -0.030494  -0.028108  -0.033239   0.004318
     5  C    0.004704  -0.051791  -0.007748  -0.003196   0.004967   0.000256
     6  O   -0.000237  -0.001872   0.010584  -0.000421   0.000179   0.000716
     7  N   -0.050423  -0.002559   0.005146  -0.000086  -0.000098   0.327827
     8  C   -0.008475  -0.001136  -0.001342   0.000084  -0.000685  -0.030675
     9  C    0.000000   0.000000  -0.000001   0.000000   0.000000  -0.000020
    10  C    0.000000   0.000000   0.000000   0.000000   0.000000   0.000013
    11  C   -0.000079  -0.000005  -0.000013   0.000000  -0.000001   0.005168
    12  C    0.000906   0.000058  -0.000692   0.000001   0.000045  -0.010775
    13  C    0.000041  -0.000036   0.000538  -0.000002  -0.000011  -0.000408
    14  C    0.000000  -0.000003   0.000024   0.000000   0.000000   0.000012
    15  H    0.000000   0.000000   0.000000   0.000000   0.000000   0.000000
    16  H    0.000000   0.000000   0.000000   0.000000   0.000000   0.000002
    17  H    0.000000   0.000000   0.000000   0.000000   0.000000   0.000000
    18  F   -0.000001   0.000000   0.000000   0.000000   0.000000   0.008286
    19  F   -0.000002  -0.000986   0.004752   0.000001  -0.000021  -0.000011
    20  H   -0.000199  -0.000019   0.000001   0.000007   0.000005   0.000019
    21  H    0.000003  -0.000002   0.000000   0.000000   0.000000  -0.000028
    22  H    0.005713  -0.000049   0.000000   0.000000   0.000010   0.000023
    23  H   -0.007009  -0.000141   0.000000   0.000002  -0.000003   0.005391
    24  H    0.006388  -0.000011  -0.000005   0.000001   0.000003   0.001541
    25  H   -0.001968  -0.040189   0.005898  -0.005364  -0.003387  -0.000186
    26  H   -0.000182  -0.010514  -0.001013   0.004730  -0.000104   0.000016
    27  H   -0.000045   0.007150   0.000423  -0.000105  -0.000156  -0.000083
    28  H    0.000803  -0.000071   0.001128  -0.000034  -0.000049  -0.002463
    29  H   -0.002502   0.002126   0.000150  -0.000023   0.001453   0.006028
    30  H    0.009218   0.000100   0.000138  -0.000004   0.000057  -0.008057
    31  H    0.672786  -0.005612  -0.000262  -0.000003   0.005341   0.003075
    32  C   -0.005612   4.991918   0.375148   0.376142   0.376017  -0.000069
    33  H   -0.000262   0.375148   0.592890  -0.030024  -0.032794  -0.000107
    34  H   -0.000003   0.376142  -0.030024   0.613155  -0.031191   0.000007
    35  H    0.005341   0.376017  -0.032794  -0.031191   0.623791  -0.000020
    36  H    0.003075  -0.000069  -0.000107   0.000007  -0.000020   0.472239
 Mulliken charges:
               1
     1  C   -0.326827
     2  C   -0.207914
     3  C    0.088331
     4  C   -0.084384
     5  C    0.079538
     6  O   -0.605471
     7  N   -0.547346
     8  C   -0.098566
     9  C   -0.086276
    10  C   -0.149505
    11  C    0.329636
    12  C   -0.034832
    13  C    0.329436
    14  C   -0.149284
    15  H    0.119269
    16  H    0.113600
    17  H    0.114503
    18  F   -0.291037
    19  F   -0.286829
    20  H    0.114098
    21  H    0.106036
    22  H    0.107837
    23  H    0.100735
    24  H    0.110552
    25  H    0.091722
    26  H    0.087543
    27  H    0.072806
    28  H    0.324869
    29  H    0.131795
    30  H    0.107776
    31  H    0.087581
    32  C   -0.324070
    33  H    0.116800
    34  H    0.099957
    35  H    0.094648
    36  H    0.263275
 Sum of Mulliken charges =   0.00000
 Mulliken charges with hydrogens summed into heavy atoms:
               1
     1  C    0.001144
     2  C    0.003373
     3  C    0.175911
     4  C    0.007338
     5  C    0.239888
     6  O   -0.280602
     7  N   -0.284071
     8  C    0.141005
     9  C    0.032993
    10  C   -0.035905
    11  C    0.329636
    12  C   -0.034832
    13  C    0.329436
    14  C   -0.034782
    18  F   -0.291037
    19  F   -0.286829
    32  C   -0.012665
 Electronic spatial extent (au):  <R**2>=           4918.1862
 Charge=              0.0000 electrons
 Dipole moment (field-independent basis, Debye):
    X=              1.1780    Y=              2.7484    Z=             -2.1828  Tot=              3.7021
 Quadrupole moment (field-independent basis, Debye-Ang):
   XX=            -84.7513   YY=           -103.8315   ZZ=           -106.5144
   XY=             -3.6466   XZ=              7.0903   YZ=              4.7444
 Traceless Quadrupole moment (field-independent basis, Debye-Ang):
   XX=             13.6144   YY=             -5.4657   ZZ=             -8.1487
   XY=             -3.6466   XZ=              7.0903   YZ=              4.7444
 Octapole moment (field-independent basis, Debye-Ang**2):
  XXX=             62.1092  YYY=              5.4097  ZZZ=            -17.9597  XYY=              7.6683
  XXY=             -3.5032  XXZ=             19.3716  XZZ=             10.6258  YZZ=             14.0378
  YYZ=             -2.0207  XYZ=             -4.4264
 Hexadecapole moment (field-independent basis, Debye-Ang**3):
 XXXX=          -4204.3422 YYYY=          -1329.8161 ZZZZ=           -559.2794 XXXY=              9.9697
 XXXZ=             74.5285 YYYX=             -6.3690 YYYZ=             17.9857 ZZZX=              0.8762
 ZZZY=             31.8479 XXYY=           -928.2945 XXZZ=           -864.1541 YYZZ=           -325.8409
 XXYZ=             18.3233 YYXZ=             10.7320 ZZXY=             -7.3479
 N-N= 1.284395443392D+03 E-N=-4.522543881856D+03  KE= 8.291769926907D+02
 D1PCM: PCM CHGder 1st derivatives, ID1Alg=3 FixD1E=F DoIter=F DoCFld=F I1PDM=0.
 Calling FoFJK, ICntrl=      2127 FMM=F ISym2X=0 I1Cent= 0 IOpClX= 0 NMat=1 NMatS=1 NMatT=0.
 ***** Axes restored to original set *****
 -------------------------------------------------------------------
 Center     Atomic                   Forces (Hartrees/Bohr)
 Number     Number              X              Y              Z
 -------------------------------------------------------------------
      1        6          -0.004962260    0.001185981   -0.000151539
      2        6          -0.000361135   -0.003572147    0.001170639
      3        6          -0.015474708    0.010436978   -0.002493815
      4        6           0.002101022   -0.001538789    0.003071074
      5        6           0.006383110    0.001376057   -0.008604285
      6        8           0.006529876    0.003102301    0.002380374
      7        7           0.004390692   -0.001105223    0.000742943
      8        6           0.002402859   -0.004117826   -0.002187527
      9        6          -0.004505597   -0.002834669    0.002831872
     10        6          -0.002296518    0.001042583   -0.008355055
     11        6           0.022489567    0.009645443    0.007780813
     12        6          -0.006356605   -0.006155847    0.003657149
     13        6           0.008955847    0.009582760   -0.018940727
     14        6           0.005075464    0.001024382    0.006620124
     15        1          -0.001571401   -0.001033912    0.000597024
     16        1          -0.001212502   -0.000893755    0.000415361
     17        1          -0.001153158   -0.000883948    0.000338506
     18        9          -0.008583911   -0.003470800   -0.002121931
     19        9          -0.003561236   -0.002771562    0.006221587
     20        1          -0.000807975   -0.001613416    0.000617433
     21        1          -0.000663857   -0.000931790    0.000705967
     22        1          -0.000883771   -0.000766160    0.000806916
     23        1           0.003550262    0.000744860    0.000543233
     24        1           0.002588831    0.001052106    0.000777370
     25        1          -0.001796025   -0.000210253   -0.002521693
     26        1          -0.000456082   -0.001524827    0.001581641
     27        1          -0.007629662   -0.002450104   -0.000959416
     28        1          -0.002751982   -0.000962610    0.001316054
     29        1          -0.002823704    0.004997888   -0.001038371
     30        1           0.000311825   -0.002851047   -0.001138668
     31        1           0.001569469   -0.000838503    0.000798425
     32        6           0.002125245   -0.001512273    0.000699443
     33        1          -0.000929863    0.000062696   -0.000582954
     34        1           0.000213038    0.000251856   -0.000180884
     35        1           0.000625130   -0.000636346    0.000441536
     36        1          -0.000530285   -0.001830083    0.005161385
 -------------------------------------------------------------------
 Cartesian Forces:  Max     0.022489567 RMS     0.004776272

 GradGradGradGradGradGradGradGradGradGradGradGradGradGradGradGradGradGrad
 Berny optimization.
 FormGI is forming the generalized inverse of G from B-inverse, IUseBI=4.
 Internal  Forces:  Max     0.012006357 RMS     0.002733589
 Search for a local minimum.
 Step number   1 out of a maximum of   50
 All quantities printed in internal units (Hartrees-Bohrs-Radians)
 Mixed Optimization -- RFO/linear search
 Second derivative matrix not updated -- first step.
 ITU=  0
     Eigenvalues ---    0.00230   0.00230   0.00243   0.00294   0.00468
     Eigenvalues ---    0.00629   0.00757   0.00761   0.01404   0.01571
     Eigenvalues ---    0.02146   0.02153   0.02154   0.02159   0.02162
     Eigenvalues ---    0.02167   0.02167   0.02169   0.02921   0.03174
     Eigenvalues ---    0.03368   0.03812   0.04552   0.04644   0.04707
     Eigenvalues ---    0.04791   0.05079   0.05137   0.05325   0.05502
     Eigenvalues ---    0.05566   0.05586   0.05716   0.05869   0.06537
     Eigenvalues ---    0.08571   0.09795   0.10718   0.11778   0.12380
     Eigenvalues ---    0.13158   0.13983   0.16000   0.16000   0.16000
     Eigenvalues ---    0.16000   0.16000   0.16000   0.16000   0.16000
     Eigenvalues ---    0.16000   0.16000   0.16884   0.16978   0.17517
     Eigenvalues ---    0.17848   0.21924   0.21925   0.22002   0.22085
     Eigenvalues ---    0.23490   0.23553   0.24907   0.24996   0.24999
     Eigenvalues ---    0.25000   0.26776   0.27800   0.28564   0.28903
     Eigenvalues ---    0.30125   0.32309   0.33778   0.33849   0.33931
     Eigenvalues ---    0.34031   0.34076   0.34172   0.34173   0.34211
     Eigenvalues ---    0.34236   0.34248   0.34308   0.34326   0.34388
     Eigenvalues ---    0.34394   0.34530   0.35166   0.35273   0.35294
     Eigenvalues ---    0.35701   0.42199   0.42352   0.42495   0.43728
     Eigenvalues ---    0.46354   0.46491   0.46547   0.46623   0.50897
     Eigenvalues ---    0.56883   0.57037
 RFO step:  Lambda=-7.37805686D-03 EMin= 2.30000000D-03
 Linear search not attempted -- first point.
 Iteration  1 RMS(Cart)=  0.10442813 RMS(Int)=  0.00258534
 Iteration  2 RMS(Cart)=  0.00506749 RMS(Int)=  0.00019706
 Iteration  3 RMS(Cart)=  0.00001027 RMS(Int)=  0.00019700
 Iteration  4 RMS(Cart)=  0.00000000 RMS(Int)=  0.00019700
 Variable       Old X    -DE/DX   Delta X   Delta X   Delta X     New X
                                 (Linear)    (Quad)   (Total)
    R1        2.87714   0.00769   0.00000   0.02492   0.02492   2.90206
    R2        2.06670   0.00014   0.00000   0.00041   0.00041   2.06711
    R3        2.06914  -0.00010   0.00000  -0.00028  -0.00028   2.06886
    R4        2.06813   0.00073   0.00000   0.00210   0.00210   2.07023
    R5        2.92578  -0.00202   0.00000  -0.00709  -0.00709   2.91869
    R6        2.07585  -0.00004   0.00000  -0.00012  -0.00012   2.07573
    R7        2.07202   0.00050   0.00000   0.00142   0.00142   2.07344
    R8        2.94895  -0.00494   0.00000  -0.01796  -0.01796   2.93099
    R9        2.79745   0.00766   0.00000   0.02171   0.02171   2.81915
   R10        2.07707   0.00106   0.00000   0.00307   0.00307   2.08014
   R11        2.90923  -0.00122   0.00000  -0.00415  -0.00415   2.90508
   R12        2.07277   0.00067   0.00000   0.00192   0.00192   2.07469
   R13        2.90206   0.00229   0.00000   0.00773   0.00773   2.90979
   R14        2.68671   0.00312   0.00000   0.00726   0.00726   2.69397
   R15        2.06975   0.00126   0.00000   0.00362   0.00362   2.07337
   R16        2.06680   0.00580   0.00000   0.01652   0.01652   2.08332
   R17        1.85671  -0.00169   0.00000  -0.00328  -0.00328   1.85343
   R18        2.77852   0.00541   0.00000   0.01486   0.01486   2.79338
   R19        1.93482  -0.00518   0.00000  -0.01166  -0.01166   1.92316
   R20        2.83582   0.00776   0.00000   0.02347   0.02347   2.85929
   R21        2.07041  -0.00381   0.00000  -0.01092  -0.01092   2.05948
   R22        2.07447   0.00273   0.00000   0.00788   0.00788   2.08235
   R23        2.63394   0.00162   0.00000   0.00359   0.00357   2.63751
   R24        2.63458   0.00089   0.00000   0.00210   0.00207   2.63664
   R25        2.05407  -0.00197   0.00000  -0.00549  -0.00549   2.04858
   R26        2.63472  -0.00385   0.00000  -0.00819  -0.00818   2.62654
   R27        2.05200  -0.00067   0.00000  -0.00187  -0.00187   2.05013
   R28        2.63835  -0.00095   0.00000  -0.00224  -0.00221   2.63614
   R29        2.53495   0.00849   0.00000   0.01473   0.01473   2.54969
   R30        2.63696   0.00026   0.00000   0.00038   0.00041   2.63737
   R31        2.63563  -0.00321   0.00000  -0.00676  -0.00677   2.62887
   R32        2.53365   0.00682   0.00000   0.01181   0.01181   2.54546
   R33        2.05235  -0.00084   0.00000  -0.00234  -0.00234   2.05001
   R34        2.06783  -0.00063   0.00000  -0.00181  -0.00181   2.06602
   R35        2.07039  -0.00017   0.00000  -0.00048  -0.00048   2.06991
   R36        2.06933   0.00069   0.00000   0.00196   0.00196   2.07129
    A1        1.94790   0.00184   0.00000   0.01116   0.01110   1.95900
    A2        1.91905   0.00145   0.00000   0.01046   0.01039   1.92944
    A3        1.93948   0.00076   0.00000   0.00255   0.00255   1.94202
    A4        1.87353  -0.00120   0.00000  -0.00334  -0.00345   1.87008
    A5        1.89682  -0.00183   0.00000  -0.01417  -0.01416   1.88266
    A6        1.88477  -0.00121   0.00000  -0.00767  -0.00768   1.87709
    A7        1.98978   0.00467   0.00000   0.02268   0.02278   2.01256
    A8        1.87656   0.00103   0.00000   0.02196   0.02214   1.89869
    A9        1.90386   0.00004   0.00000   0.01048   0.01068   1.91454
   A10        1.89644  -0.00348   0.00000  -0.02623  -0.02670   1.86974
   A11        1.93774  -0.00325   0.00000  -0.02727  -0.02755   1.91019
   A12        1.85352   0.00085   0.00000  -0.00199  -0.00273   1.85079
   A13        1.98020   0.00099   0.00000   0.01222   0.01229   1.99249
   A14        1.88557   0.00316   0.00000   0.02718   0.02723   1.91281
   A15        1.85404  -0.00044   0.00000   0.00534   0.00550   1.85954
   A16        1.93792  -0.00304   0.00000  -0.01510  -0.01554   1.92238
   A17        1.88163  -0.00025   0.00000  -0.01732  -0.01756   1.86407
   A18        1.92260  -0.00036   0.00000  -0.01247  -0.01288   1.90972
   A19        1.98611  -0.00242   0.00000  -0.02045  -0.02048   1.96562
   A20        1.88236  -0.00045   0.00000  -0.01424  -0.01429   1.86807
   A21        1.95062   0.00045   0.00000   0.00058   0.00065   1.95127
   A22        1.86998   0.00054   0.00000   0.00544   0.00504   1.87502
   A23        1.91908   0.00150   0.00000   0.00979   0.00969   1.92877
   A24        1.84824   0.00055   0.00000   0.02164   0.02157   1.86981
   A25        1.96214   0.00101   0.00000   0.00888   0.00876   1.97090
   A26        1.92357  -0.00212   0.00000  -0.02823  -0.02855   1.89502
   A27        1.94289  -0.00361   0.00000  -0.01921  -0.01986   1.92304
   A28        1.87582  -0.00018   0.00000  -0.00598  -0.00597   1.86984
[...]
    32  C    0.000006   0.005046  -0.045157   0.354476  -0.050431  -0.002866
    33  H   -0.000003  -0.000024  -0.008421  -0.031633  -0.008626   0.012580
    34  H    0.000004  -0.000156   0.004558  -0.028191  -0.002694  -0.000336
    35  H   -0.000016   0.000056  -0.005372  -0.032231   0.004845   0.000195
    36  H    0.000164  -0.006248  -0.039658   0.004683   0.000195   0.000690
               7          8          9         10         11         12
     1  C    0.003746  -0.000117   0.000000   0.000000   0.000000   0.000002
     2  C   -0.041200   0.002004   0.000000   0.000000  -0.000029  -0.000211
     3  C    0.251320  -0.026177   0.000000   0.000005   0.000183   0.004735
     4  C   -0.063908   0.000426   0.000000   0.000000   0.000005  -0.000323
     5  C   -0.001832   0.000082   0.000000   0.000000   0.000001   0.000027
     6  O   -0.029437   0.000625   0.000000   0.000000   0.000010  -0.000033
     7  N    6.963569   0.268510   0.000023  -0.000131  -0.006141  -0.047628
     8  C    0.268510   4.933921  -0.000731   0.008407  -0.049731   0.301429
     9  C    0.000023  -0.000731   4.862083   0.483074  -0.004337  -0.027517
    10  C   -0.000131   0.008407   0.483074   5.050579   0.476766  -0.080067
    11  C   -0.006141  -0.049731  -0.004337   0.476766   4.621840   0.391813
    12  C   -0.047628   0.301429  -0.027517  -0.080067   0.391813   5.319622
    13  C    0.003784  -0.048987  -0.004208  -0.049261   0.020784   0.410141
    14  C   -0.000038   0.007809   0.483296  -0.035630  -0.047309  -0.077288
    15  H    0.000000   0.000005   0.374128  -0.034501   0.003508   0.000427
    16  H    0.000001  -0.000132  -0.036135   0.361607  -0.032082   0.006243
    17  H    0.000001  -0.000124  -0.036153   0.004413   0.000328   0.006106
    18  F   -0.001806   0.003473   0.002890  -0.046302   0.300048  -0.058887
    19  F   -0.000403  -0.002385   0.002934   0.000004   0.002671  -0.051102
    20  H   -0.000021  -0.000002   0.000000   0.000000   0.000000   0.000000
    21  H   -0.000089   0.000001   0.000000   0.000000   0.000000   0.000000
    22  H    0.000011   0.000003   0.000000   0.000000   0.000000   0.000000
    23  H   -0.004043   0.000477   0.000000   0.000000   0.000004  -0.000065
    24  H   -0.002805  -0.000055   0.000000   0.000000  -0.000005   0.000030
    25  H    0.005013  -0.000126   0.000000   0.000000   0.000000   0.000006
    26  H   -0.000232   0.000004   0.000000   0.000000   0.000000   0.000000
    27  H    0.000365  -0.000030   0.000000   0.000000   0.000000  -0.000006
    28  H    0.065599  -0.002660  -0.000004  -0.000004  -0.000160  -0.000327
    29  H   -0.044301   0.374598  -0.000009  -0.000156   0.005717  -0.025402
    30  H   -0.044337   0.360323  -0.000010  -0.000010  -0.011165  -0.031513
    31  H   -0.051260  -0.007887   0.000000   0.000000  -0.000065   0.000709
    32  C   -0.001360  -0.001727   0.000000   0.000000  -0.000004   0.000133
    33  H    0.004425  -0.002121  -0.000001   0.000000  -0.000016  -0.000786
    34  H   -0.000102   0.000106   0.000000   0.000000   0.000000   0.000002
    35  H   -0.000115  -0.000584   0.000000   0.000000   0.000000   0.000037
    36  H    0.328751  -0.032252  -0.000017  -0.000018   0.004842  -0.008865
              13         14         15         16         17         18
     1  C    0.000000   0.000000   0.000000   0.000000   0.000000   0.000000
     2  C   -0.000001   0.000000   0.000000   0.000000   0.000000  -0.000015
     3  C   -0.000103   0.000002   0.000000   0.000000   0.000000   0.000012
     4  C    0.000004   0.000000   0.000000   0.000000   0.000000   0.000000
     5  C   -0.000020   0.000000   0.000000   0.000000   0.000000   0.000000
     6  O    0.000058   0.000005   0.000000   0.000000   0.000000   0.000000
     7  N    0.003784  -0.000038   0.000000   0.000001   0.000001  -0.001806
     8  C   -0.048987   0.007809   0.000005  -0.000132  -0.000124   0.003473
     9  C   -0.004208   0.483296   0.374128  -0.036135  -0.036153   0.002890
    10  C   -0.049261  -0.035630  -0.034501   0.361607   0.004413  -0.046302
    11  C    0.020784  -0.047309   0.003508  -0.032082   0.000328   0.300048
    12  C    0.410141  -0.077288   0.000427   0.006243   0.006106  -0.058887
    13  C    4.597419   0.476648   0.003555   0.000340  -0.031863   0.002540
    14  C    0.476648   5.042450  -0.033850   0.004355   0.362077  -0.000015
    15  H    0.003555  -0.033850   0.578873  -0.005625  -0.005632  -0.000024
    16  H    0.000340   0.004355  -0.005625   0.583937  -0.000129  -0.000482
    17  H   -0.031863   0.362077  -0.005632  -0.000129   0.581973   0.000001
    18  F    0.002540  -0.000015  -0.000024  -0.000482   0.000001   9.090997
    19  F    0.294714  -0.044616  -0.000024   0.000001  -0.000527  -0.000001
    20  H    0.000000   0.000000   0.000000   0.000000   0.000000   0.000000
    21  H    0.000000   0.000000   0.000000   0.000000   0.000000   0.000000
    22  H    0.000000   0.000000   0.000000   0.000000   0.000000   0.000000
    23  H   -0.000001   0.000000   0.000000   0.000000   0.000000   0.000001
    24  H    0.000001   0.000000   0.000000   0.000000   0.000000   0.000000
    25  H    0.000000   0.000000   0.000000   0.000000   0.000000   0.000000
    26  H   -0.000001   0.000000   0.000000   0.000000   0.000000   0.000000
    27  H    0.000002   0.000000   0.000000   0.000000   0.000000   0.000000
    28  H    0.001338  -0.000023   0.000000   0.000000   0.000001  -0.000001
    29  H   -0.009048   0.000173   0.000000   0.000001  -0.000008   0.000214
    30  H    0.005419  -0.000179   0.000000   0.000000   0.000002   0.004736
    31  H    0.000032   0.000000   0.000000   0.000000   0.000000  -0.000002
    32  C   -0.000090  -0.000004   0.000000   0.000000   0.000000   0.000000
    33  H    0.000662   0.000039   0.000000   0.000000   0.000000   0.000000
    34  H   -0.000002   0.000000   0.000000   0.000000   0.000000   0.000000
    35  H   -0.000005   0.000000   0.000000   0.000000   0.000000   0.000000
    36  H   -0.000463   0.000003   0.000000   0.000002   0.000000   0.004868
              19         20         21         22         23         24
     1  C    0.000000   0.387754   0.379391   0.386764  -0.034966  -0.037118
     2  C    0.000000  -0.032382  -0.026253  -0.035935   0.376197   0.379680
     3  C   -0.000007  -0.005311   0.003851  -0.004783  -0.033836  -0.034016
     4  C    0.000026   0.001188   0.000152  -0.001153   0.005562  -0.010908
     5  C   -0.000003   0.000281  -0.000011   0.000082   0.000039   0.003077
     6  O   -0.000065  -0.000006   0.000000   0.000000   0.000002  -0.000032
     7  N   -0.000403  -0.000021  -0.000089   0.000011  -0.004043  -0.002805
     8  C   -0.002385  -0.000002   0.000001   0.000003   0.000477  -0.000055
     9  C    0.002934   0.000000   0.000000   0.000000   0.000000   0.000000
    10  C    0.000004   0.000000   0.000000   0.000000   0.000000   0.000000
    11  C    0.002671   0.000000   0.000000   0.000000   0.000004  -0.000005
    12  C   -0.051102   0.000000   0.000000   0.000000  -0.000065   0.000030
    13  C    0.294714   0.000000   0.000000   0.000000  -0.000001   0.000001
    14  C   -0.044616   0.000000   0.000000   0.000000   0.000000   0.000000
    15  H   -0.000024   0.000000   0.000000   0.000000   0.000000   0.000000
    16  H    0.000001   0.000000   0.000000   0.000000   0.000000   0.000000
    17  H   -0.000527   0.000000   0.000000   0.000000   0.000000   0.000000
    18  F   -0.000001   0.000000   0.000000   0.000000   0.000001   0.000000
    19  F    9.080553   0.000000   0.000000   0.000000   0.000000   0.000000
    20  H    0.000000   0.593652  -0.030124  -0.033251   0.005112  -0.005700
    21  H    0.000000  -0.030124   0.602416  -0.030929  -0.005074  -0.001942
    22  H    0.000000  -0.033251  -0.030929   0.602667  -0.004009   0.005322
    23  H    0.000000   0.005112  -0.005074  -0.004009   0.634984  -0.040778
    24  H    0.000000  -0.005700  -0.001942   0.005322  -0.040778   0.624918
    25  H    0.000000   0.003142  -0.000057   0.000691   0.000115   0.000153
    26  H    0.000000  -0.000065   0.000000  -0.000001   0.000001  -0.000156
    27  H    0.000000   0.000851  -0.000019  -0.000010  -0.000045   0.002018
    28  H    0.000603   0.000004   0.000001   0.000000  -0.000048   0.000569
    29  H    0.007417   0.000000   0.000000  -0.000002   0.000014  -0.000025
    30  H    0.000193   0.000001   0.000001   0.000000   0.000022   0.000047
    31  H   -0.000001  -0.000193  -0.000001   0.005405  -0.007500   0.006823
    32  C   -0.001339  -0.000036  -0.000001  -0.000053  -0.000151  -0.000005
    33  H    0.006450   0.000001   0.000000   0.000000   0.000001  -0.000003
    34  H    0.000001   0.000007   0.000000   0.000000   0.000003   0.000001
    35  H   -0.000007   0.000005   0.000000   0.000010  -0.000004   0.000004
    36  H   -0.000014   0.000018  -0.000026   0.000020   0.006271   0.001246
              25         26         27         28         29         30
     1  C    0.002249   0.000033  -0.000098  -0.000039   0.000014  -0.000045
     2  C   -0.008576   0.000012   0.002858  -0.000052   0.000044   0.000686
     3  C   -0.043471   0.005597  -0.013502  -0.001488  -0.002055  -0.005548
     4  C    0.362951  -0.029350  -0.049044  -0.010961   0.000467  -0.000633
     5  C   -0.032493   0.378055   0.366594  -0.041515   0.000110  -0.000002
     6  O    0.003347  -0.041603  -0.041782   0.278009   0.000141  -0.000041
     7  N    0.005013  -0.000232   0.000365   0.065599  -0.044301  -0.044337
     8  C   -0.000126   0.000004  -0.000030  -0.002660   0.374598   0.360323
     9  C    0.000000   0.000000   0.000000  -0.000004  -0.000009  -0.000010
    10  C    0.000000   0.000000   0.000000  -0.000004  -0.000156  -0.000010
    11  C    0.000000   0.000000   0.000000  -0.000160   0.005717  -0.011165
    12  C    0.000006   0.000000  -0.000006  -0.000327  -0.025402  -0.031513
    13  C    0.000000  -0.000001   0.000002   0.001338  -0.009048   0.005419
    14  C    0.000000   0.000000   0.000000  -0.000023   0.000173  -0.000179
    15  H    0.000000   0.000000   0.000000   0.000000   0.000000   0.000000
    16  H    0.000000   0.000000   0.000000   0.000000   0.000001   0.000000
    17  H    0.000000   0.000000   0.000000   0.000001  -0.000008   0.000002
    18  F    0.000000   0.000000   0.000000  -0.000001   0.000214   0.004736
    19  F    0.000000   0.000000   0.000000   0.000603   0.007417   0.000193
    20  H    0.003142  -0.000065   0.000851   0.000004   0.000000   0.000001
    21  H   -0.000057   0.000000  -0.000019   0.000001   0.000000   0.000001
    22  H    0.000691  -0.000001  -0.000010   0.000000  -0.000002   0.000000
    23  H    0.000115   0.000001  -0.000045  -0.000048   0.000014   0.000022
    24  H    0.000153  -0.000156   0.002018   0.000569  -0.000025   0.000047
    25  H    0.662022  -0.003412   0.001084   0.000171  -0.000085   0.000021
    26  H   -0.003412   0.657803  -0.053995   0.005873   0.000008   0.000000
    27  H    0.001084  -0.053995   0.708784  -0.001299  -0.000015   0.000001
    28  H    0.000171   0.005873  -0.001299   0.382384  -0.000998   0.000545
    29  H   -0.000085   0.000008  -0.000015  -0.000998   0.596223  -0.043377
    30  H    0.000021   0.000000   0.000001   0.000545  -0.043377   0.653302
    31  H   -0.001390  -0.000204  -0.000021   0.000813  -0.002185   0.009101
    32  C   -0.038795  -0.009411   0.006979  -0.000457   0.002802   0.000106
    33  H    0.005803  -0.000928   0.000502   0.000759   0.000547   0.000167
    34  H   -0.005528   0.004426  -0.000100  -0.000017  -0.000023  -0.000006
    35  H   -0.002719  -0.000115  -0.000151  -0.000039   0.001233   0.000073
    36  H   -0.000202   0.000016  -0.000089  -0.002060   0.006454  -0.006661
              31         32         33         34         35         36
     1  C   -0.005415   0.000006  -0.000003   0.000004  -0.000016   0.000164
     2  C   -0.040361   0.005046  -0.000024  -0.000156   0.000056  -0.006248
     3  C    0.382312  -0.045157  -0.008421   0.004558  -0.005372  -0.039658
     4  C   -0.060515   0.354476  -0.031633  -0.028191  -0.032231   0.004683
     5  C    0.005059  -0.050431  -0.008626  -0.002694   0.004845   0.000195
     6  O   -0.000260  -0.002866   0.012580  -0.000336   0.000195   0.000690
     7  N   -0.051260  -0.001360   0.004425  -0.000102  -0.000115   0.328751
     8  C   -0.007887  -0.001727  -0.002121   0.000106  -0.000584  -0.032252
     9  C    0.000000   0.000000  -0.000001   0.000000   0.000000  -0.000017
    10  C    0.000000   0.000000   0.000000   0.000000   0.000000  -0.000018
    11  C   -0.000065  -0.000004  -0.000016   0.000000   0.000000   0.004842
    12  C    0.000709   0.000133  -0.000786   0.000002   0.000037  -0.008865
    13  C    0.000032  -0.000090   0.000662  -0.000002  -0.000005  -0.000463
    14  C    0.000000  -0.000004   0.000039   0.000000   0.000000   0.000003
    15  H    0.000000   0.000000   0.000000   0.000000   0.000000   0.000000
    16  H    0.000000   0.000000   0.000000   0.000000   0.000000   0.000002
    17  H    0.000000   0.000000   0.000000   0.000000   0.000000   0.000000
    18  F   -0.000002   0.000000   0.000000   0.000000   0.000000   0.004868
    19  F   -0.000001  -0.001339   0.006450   0.000001  -0.000007  -0.000014
    20  H   -0.000193  -0.000036   0.000001   0.000007   0.000005   0.000018
    21  H   -0.000001  -0.000001   0.000000   0.000000   0.000000  -0.000026
    22  H    0.005405  -0.000053   0.000000   0.000000   0.000010   0.000020
    23  H   -0.007500  -0.000151   0.000001   0.000003  -0.000004   0.006271
    24  H    0.006823  -0.000005  -0.000003   0.000001   0.000004   0.001246
    25  H   -0.001390  -0.038795   0.005803  -0.005528  -0.002719  -0.000202
    26  H   -0.000204  -0.009411  -0.000928   0.004426  -0.000115   0.000016
    27  H   -0.000021   0.006979   0.000502  -0.000100  -0.000151  -0.000089
    28  H    0.000813  -0.000457   0.000759  -0.000017  -0.000039  -0.002060
    29  H   -0.002185   0.002802   0.000547  -0.000023   0.001233   0.006454
    30  H    0.009101   0.000106   0.000167  -0.000006   0.000073  -0.006661
    31  H    0.681901  -0.006478  -0.000286  -0.000002   0.005923   0.002754
    32  C   -0.006478   4.991126   0.373038   0.375375   0.375726  -0.000117
    33  H   -0.000286   0.373038   0.590930  -0.029190  -0.032811  -0.000099
    34  H   -0.000002   0.375375  -0.029190   0.613491  -0.031441   0.000008
    35  H    0.005923   0.375726  -0.032811  -0.031441   0.622753  -0.000019
    36  H    0.002754  -0.000117  -0.000099   0.000008  -0.000019   0.474960
 Mulliken charges:
               1
     1  C   -0.328135
     2  C   -0.206979
     3  C    0.088501
     4  C   -0.079074
     5  C    0.072409
     6  O   -0.596926
     7  N   -0.553932
     8  C   -0.086379
     9  C   -0.099309
    10  C   -0.138773
    11  C    0.322525
    12  C   -0.031444
    13  C    0.326612
    14  C   -0.137905
    15  H    0.119161
    16  H    0.118099
    17  H    0.119533
    18  F   -0.302243
    19  F   -0.295071
    20  H    0.115075
    21  H    0.108715
    22  H    0.109150
    23  H    0.101714
    24  H    0.109659
    25  H    0.090086
    26  H    0.087647
    27  H    0.070169
    28  H    0.325481
    29  H    0.131514
    30  H    0.108781
    31  H    0.083193
    32  C   -0.326331
    33  H    0.119039
    34  H    0.099806
    35  H    0.094769
    36  H    0.260863
 Sum of Mulliken charges =   0.00000
 Mulliken charges with hydrogens summed into heavy atoms:
               1
     1  C    0.004805
     2  C    0.004394
     3  C    0.171694
     4  C    0.011012
     5  C    0.230225
     6  O   -0.271445
     7  N   -0.293068
     8  C    0.153915
     9  C    0.019852
    10  C   -0.020674
    11  C    0.322525
    12  C   -0.031444
    13  C    0.326612
    14  C   -0.018372
    18  F   -0.302243
    19  F   -0.295071
    32  C   -0.012717
 Electronic spatial extent (au):  <R**2>=           4922.0830
 Charge=              0.0000 electrons
 Dipole moment (field-independent basis, Debye):
    X=              1.1015    Y=              3.0811    Z=             -1.5948  Tot=              3.6401
 Quadrupole moment (field-independent basis, Debye-Ang):
   XX=            -83.1835   YY=           -105.5282   ZZ=           -104.8322
   XY=             -4.5519   XZ=              5.9598   YZ=              4.8655
 Traceless Quadrupole moment (field-independent basis, Debye-Ang):
   XX=             14.6644   YY=             -7.6803   ZZ=             -6.9842
   XY=             -4.5519   XZ=              5.9598   YZ=              4.8655
 Octapole moment (field-independent basis, Debye-Ang**2):
  XXX=             62.9962  YYY=              7.3302  ZZZ=            -12.3653  XYY=              9.6045
  XXY=             -2.9884  XXZ=             20.7075  XZZ=              7.1577  YZZ=             12.1782
  YYZ=             -3.6237  XYZ=             -4.8167
 Hexadecapole moment (field-independent basis, Debye-Ang**3):
 XXXX=          -4197.8315 YYYY=          -1373.3881 ZZZZ=           -506.7080 XXXY=             15.8405
 XXXZ=             78.1705 YYYX=             -9.4821 YYYZ=             19.6217 ZZZX=             -8.0927
 ZZZY=             17.5328 XXYY=           -930.8204 XXZZ=           -859.1615 YYZZ=           -325.2940
 XXYZ=             10.8590 YYXZ=             14.4901 ZZXY=             -5.5857
 N-N= 1.284411485094D+03 E-N=-4.522658412669D+03  KE= 8.290910367640D+02
 1\1\GINC-SWANNODE-0-3\FOpt\RB3LYP\6-31G(d,p)\C13H19F2N1O1\KE291\06-Mar
 -2019\0\\# b3lyp/6-31g(d,p) Opt=(maxcycles=50) scrf=(solvent=chlorofor
 m)\\AT3_1ginp005\\0,1\C,-3.2059698479,0.562139726,1.5920530371\C,-1.90
 06621937,1.218868415,1.1322189426\C,-0.6656162137,0.9091367826,2.00103
 59349\C,-0.8136845069,1.3256261843,3.4909996079\C,-0.9200406386,2.8530
 79659,3.6702494914\O,0.2851310141,3.5358536183,3.3525652599\N,0.525671
 4753,1.5675076214,1.3855779522\C,1.7030109989,0.6885186714,1.244793317
 7\C,5.097789108,2.9140661503,-0.2717570197\C,4.1576914411,2.3943395945
 ,-1.1632761274\C,3.0825398682,1.6854077992,-0.6436184745\C,2.891708498
 4,1.454484278,0.7194403902\C,3.8576983222,2.0071784865,1.5625277593\C,
 4.9556984173,2.7245036409,1.1037188541\H,5.9465064046,3.4728605305,-0.
 6517317468\H,4.2435775743,2.5319426615,-2.2348184648\H,5.671303442,3.1
 209836824,1.8144740392\F,2.1552982387,1.1873643487,-1.4986770416\F,3.7
 183611641,1.8210302104,2.8958760498\H,-3.5620975502,0.9696261324,2.542
 6658171\H,-3.9953204939,0.7239733507,0.8515311099\H,-3.0838925873,-0.5
 197890678,1.7162763119\H,-1.6747297366,0.8758960808,0.1137057252\H,-2.
 0373132242,2.3057150459,1.0638635613\H,-1.7601873365,0.8964270118,3.84
 5398252\H,-1.153905106,3.0748459792,4.7193946491\H,-1.7635168143,3.240
 9076647,3.0741600539\H,0.6179957112,3.0725889535,2.5526251378\H,1.9505
 275624,0.285216253,2.2264224266\H,1.4967815488,-0.1649283765,0.5819382
 883\H,-0.5251726143,-0.1843487676,1.9778577965\C,0.3075525315,0.757372
 6375,4.3754753691\H,1.2686118007,1.2251983731,4.1480992715\H,0.0939550
 915,0.9514704534,5.4322040725\H,0.4067197045,-0.3264822526,4.249243604
 5\H,0.2746969464,1.8882024674,0.4526227914\\Version=EM64L-G09RevD.01\S
 tate=1-A\HF=-836.4988303\RMSD=6.092e-09\RMSF=3.405e-06\Dipole=0.085087
 3,-0.8613616,-1.1409565\Quadrupole=8.7987714,-5.3714926,-3.4272788,5.4
 971487,-3.3228966,-5.7550527\PG=C01 [X(C13H19F2N1O1)]\\@


 ACTORS ARE SO FORTUNATE.  THEY CAN CHOOSE WHETHER
 THEY WILL APPEAR IN A TRAGEDY OR IN COMEDY,
 WHETHER THEY WILL SUFFER OF MAKE MERRY,
 LAUGH OR SHED TEARS.  BUT IN REAL LIFE IT IS DIFFERENT.
 MOST MEN AND WOMEN ARE FORCED TO PERFORM
 PARTS FOR WHICH THEY HAVE NO QUALIFICATIONS.
 THE WORLD IS A STAGE, BUT THE PLAY IS BADLY CAST.

                                   -- OSCAR WILDE
 Job cpu time:       0 days  3 hours  3 minutes 55.8 seconds.
 File lengths (MBytes):  RWF=    276 Int=      0 D2E=      0 Chk=     13 Scr=      1
 Normal termination of Gaussian 09 at Wed Mar  6 11:19:20 2019.
