 Entering Gaussian System, Link 0=/usr/local/shared/gaussian/em64t/09-D01/g09/g09
 Initial command:
 /usr/local/shared/gaussian/em64t/09-D01/g09/l1.exe "/scratch/ke291/AT3_1ginp015/Gau-23028.inp" -scrdir="/scratch/ke291/AT3_1ginp015/"
 Entering Link 1 = /usr/local/shared/gaussian/em64t/09-D01/g09/l1.exe PID=     23033.
  
 Copyright (c) 1988,1990,1992,1993,1995,1998,2003,2009,2013,
            Gaussian, Inc.  All Rights Reserved.
  
 This is part of the Gaussian(R) 09 program.  It is based on
 the Gaussian(R) 03 system (copyright 2003, Gaussian, Inc.),
 the Gaussian(R) 98 system (copyright 1998, Gaussian, Inc.),
 the Gaussian(R) 94 system (copyright 1995, Gaussian, Inc.),
 the Gaussian 92(TM) system (copyright 1992, Gaussian, Inc.),
 the Gaussian 90(TM) system (copyright 1990, Gaussian, Inc.),
 the Gaussian 88(TM) system (copyright 1988, Gaussian, Inc.),
 the Gaussian 86(TM) system (copyright 1986, Carnegie Mellon
 University), and the Gaussian 82(TM) system (copyright 1983,
 Carnegie Mellon University). Gaussian is a federally registered
 trademark of Gaussian, Inc.
  
 This software contains proprietary and confidential information,
 including trade secrets, belonging to Gaussian, Inc.
  
 This software is provided under written license and may be
 used, copied, transmitted, or stored only in accord with that
 written license.
  
 The following legend is applicable only to US Government
 contracts under FAR:
  
                    RESTRICTED RIGHTS LEGEND
  
 Use, reproduction and disclosure by the US Government is
 subject to restrictions as set forth in subparagraphs (a)
 and (c) of the Commercial Computer Software - Restricted
 Rights clause in FAR 52.227-19.
  
 Gaussian, Inc.
 340 Quinnipiac St., Bldg. 40, Wallingford CT 06492
  
  
 ---------------------------------------------------------------
 Warning -- This program may not be used in any manner that
 competes with the business of Gaussian, Inc. or will provide
 assistance to any competitor of Gaussian, Inc.  The licensee
 of this program is prohibited from giving any competitor of
 Gaussian, Inc. access to this program.  By using this program,
 the user acknowledges that Gaussian, Inc. is engaged in the
 business of creating and licensing software in the field of
 computational chemistry and represents and warrants to the
 licensee that it is not a competitor of Gaussian, Inc. and that
 it will not use this program in any manner prohibited above.
 ---------------------------------------------------------------
  

 Cite this work as:
 Gaussian 09, Revision D.01,
 M. J. Frisch, G. W. Trucks, H. B. Schlegel, G. E. Scuseria, 
 M. A. Robb, J. R. Cheeseman, G. Scalmani, V. Barone, B. Mennucci, 
 G. A. Petersson, H. Nakatsuji, M. Caricato, X. Li, H. P. Hratchian, 
 A. F. Izmaylov, J. Bloino, G. Zheng, J. L. Sonnenberg, M. Hada, 
 M. Ehara, K. Toyota, R. Fukuda, J. Hasegawa, M. Ishida, T. Nakajima, 
 Y. Honda, O. Kitao, H. Nakai, T. Vreven, J. A. Montgomery, Jr., 
 J. E. Peralta, F. Ogliaro, M. Bearpark, J. J. Heyd, E. Brothers, 
 K. N. Kudin, V. N. Staroverov, T. Keith, R. Kobayashi, J. Normand, 
 K. Raghavachari, A. Rendell, J. C. Burant, S. S. Iyengar, J. Tomasi, 
 M. Cossi, N. Rega, J. M. Millam, M. Klene, J. E. Knox, J. B. Cross, 
 V. Bakken, C. Adamo, J. Jaramillo, R. Gomperts, R. E. Stratmann, 
 O. Yazyev, A. J. Austin, R. Cammi, C. Pomelli, J. W. Ochterski, 
 R. L. Martin, K. Morokuma, V. G. Zakrzewski, G. A. Voth, 
 P. Salvador, J. J. Dannenberg, S. Dapprich, A. D. Daniels, 
 O. Farkas, J. B. Foresman, J. V. Ortiz, J. Cioslowski, 
 and D. J. Fox, Gaussian, Inc., Wallingford CT, 2013.
 
 ******************************************
 Gaussian 09:  EM64L-G09RevD.01 24-Apr-2013
                 6-Mar-2019 
 ******************************************
 %nprocshared=2
 Will use up to    2 processors via shared memory.
 %mem=6000MB
 %chk=AT3_1ginp015.chk
 ---------------------------------------------------------------
 # b3lyp/6-31g(d,p) Opt=(maxcycles=50) scrf=(solvent=chloroform)
 ---------------------------------------------------------------
 1/6=50,14=-1,18=20,19=15,26=3,38=1/1,3;
 2/9=110,12=2,17=6,18=5,40=1/2;
 3/5=1,6=6,7=101,11=2,16=1,25=1,30=1,70=2201,71=1,72=7,74=-5/1,2,3;
 4//1;
 5/5=2,38=5,53=7/2;
 6/7=2,8=2,9=2,10=2,28=1/1;
 7//1,2,3,16;
 1/6=50,14=-1,18=20,19=15,26=3/3(2);
 2/9=110/2;
 99//99;
 2/9=110/2;
 3/5=1,6=6,7=101,11=2,16=1,25=1,30=1,70=2205,71=1,72=7,74=-5/1,2,3;
 4/5=5,16=3,69=1/1;
 5/5=2,38=5,53=7/2;
 7//1,2,3,16;
 1/6=50,14=-1,18=20,19=15,26=3/3(-5);
 2/9=110/2;
 6/7=2,8=2,9=2,10=2,19=2,28=1/1;
 99/9=1/99;
 ------------
 AT3_1ginp015
 ------------
 Symbolic Z-matrix:
 Charge =  0 Multiplicity = 1
 C                    -1.07036  -0.67393   1.06225 
 C                    -0.58612   0.76182   0.91372 
 C                     0.21088   1.28621   2.13296 
 C                    -0.59697   1.24547   3.46769 
 C                    -1.84784   2.14197   3.46692 
 O                    -1.52269   3.5217    3.35604 
 N                     0.66452   2.66102   1.82622 
 C                     2.11135   2.8553    2.01645 
 C                     4.57245   0.95325  -0.98592 
 C                     3.71446   1.99335  -1.33826 
 C                     2.92366   2.59954  -0.36298 
 C                     2.96303   2.18984   0.97131 
 C                     3.8314    1.14843   1.30239 
 C                     4.63009   0.52996   0.34082 
 H                     5.19275   0.47583  -1.74027 
 H                     3.65453   2.33822  -2.36638 
 H                     5.29263  -0.27855   0.63587 
 F                     2.10135   3.59323  -0.7299 
 F                     3.90692   0.71706   2.56955 
 H                    -1.85392  -0.75839   1.82048 
 H                    -1.49308  -1.02549   0.11535 
 H                    -0.24673  -1.34174   1.33322 
 H                     0.05959   0.80168   0.02615 
 H                    -1.44419   1.40902   0.69695 
 H                    -0.93854   0.21473   3.62265 
 H                    -2.40888   2.00999   4.39825 
 H                    -2.52327   1.88259   2.64674 
 H                    -0.72814   3.5673    2.78072 
 H                     2.31324   3.93318   1.97789 
 H                     2.41045   2.54661   3.0242 
 H                     1.06955   0.61276   2.25214 
 C                     0.28979   1.58108   4.67586 
 H                     0.63008   2.62103   4.6662 
 H                    -0.26231   1.42418   5.60907 
 H                     1.17153   0.9321    4.70152 
 H                     0.45289   2.90226   0.85419 
 

 GradGradGradGradGradGradGradGradGradGradGradGradGradGradGradGradGradGrad
 Berny optimization.
 Initialization pass.
                           ----------------------------
                           !    Initial Parameters    !
                           ! (Angstroms and Degrees)  !
 --------------------------                            --------------------------
 ! Name  Definition              Value          Derivative Info.                !
 --------------------------------------------------------------------------------
 ! R1    R(1,2)                  1.5225         estimate D2E/DX2                !
 ! R2    R(1,20)                 1.0936         estimate D2E/DX2                !
 ! R3    R(1,21)                 1.0949         estimate D2E/DX2                !
 ! R4    R(1,22)                 1.0944         estimate D2E/DX2                !
 ! R5    R(2,3)                  1.5481         estimate D2E/DX2                !
 ! R6    R(2,23)                 1.0983         estimate D2E/DX2                !
 ! R7    R(2,24)                 1.0964         estimate D2E/DX2                !
 ! R8    R(3,4)                  1.5607         estimate D2E/DX2                !
 ! R9    R(3,7)                  1.4799         estimate D2E/DX2                !
 ! R10   R(3,31)                 1.0977         estimate D2E/DX2                !
 ! R11   R(4,5)                  1.539          estimate D2E/DX2                !
 ! R12   R(4,25)                 1.0969         estimate D2E/DX2                !
 ! R13   R(4,32)                 1.5358         estimate D2E/DX2                !
 ! R14   R(5,6)                  1.4219         estimate D2E/DX2                !
 ! R15   R(5,26)                 1.0952         estimate D2E/DX2                !
 ! R16   R(5,27)                 1.0937         estimate D2E/DX2                !
 ! R17   R(6,28)                 0.982          estimate D2E/DX2                !
 ! R18   R(7,8)                  1.4722         estimate D2E/DX2                !
 ! R19   R(7,36)                 1.0236         estimate D2E/DX2                !
 ! R20   R(8,12)                 1.5035         estimate D2E/DX2                !
 ! R21   R(8,29)                 1.0973         estimate D2E/DX2                !
 ! R22   R(8,30)                 1.0956         estimate D2E/DX2                !
 ! R23   R(9,10)                 1.3936         estimate D2E/DX2                !
 ! R24   R(9,14)                 1.3938         estimate D2E/DX2                !
 ! R25   R(9,15)                 1.0871         estimate D2E/DX2                !
 ! R26   R(10,11)                1.3943         estimate D2E/DX2                !
 ! R27   R(10,16)                1.0861         estimate D2E/DX2                !
 ! R28   R(11,12)                1.3963         estimate D2E/DX2                !
 ! R29   R(11,18)                1.341          estimate D2E/DX2                !
 ! R30   R(12,13)                1.3958         estimate D2E/DX2                !
 ! R31   R(13,14)                1.3946         estimate D2E/DX2                !
 ! R32   R(13,19)                1.3407         estimate D2E/DX2                !
 ! R33   R(14,17)                1.0861         estimate D2E/DX2                !
 ! R34   R(32,33)                1.0943         estimate D2E/DX2                !
 ! R35   R(32,34)                1.0956         estimate D2E/DX2                !
 ! R36   R(32,35)                1.0951         estimate D2E/DX2                !
 ! A1    A(2,1,20)             111.6137         estimate D2E/DX2                !
 ! A2    A(2,1,21)             109.9508         estimate D2E/DX2                !
 ! A3    A(2,1,22)             111.1139         estimate D2E/DX2                !
 ! A4    A(20,1,21)            107.3483         estimate D2E/DX2                !
 ! A5    A(20,1,22)            108.6882         estimate D2E/DX2                !
 ! A6    A(21,1,22)            107.9832         estimate D2E/DX2                !
 ! A7    A(1,2,3)              113.9749         estimate D2E/DX2                !
 ! A8    A(1,2,23)             107.4606         estimate D2E/DX2                !
 ! A9    A(1,2,24)             109.0884         estimate D2E/DX2                !
 ! A10   A(3,2,23)             108.7525         estimate D2E/DX2                !
 ! A11   A(3,2,24)             111.0182         estimate D2E/DX2                !
 ! A12   A(23,2,24)            106.195          estimate D2E/DX2                !
 ! A13   A(2,3,4)              113.466          estimate D2E/DX2                !
 ! A14   A(2,3,7)              108.0135         estimate D2E/DX2                !
 ! A15   A(2,3,31)             106.2835         estimate D2E/DX2                !
 ! A16   A(4,3,7)              111.1119         estimate D2E/DX2                !
 ! A17   A(4,3,31)             107.2196         estimate D2E/DX2                !
 ! A18   A(7,3,31)             110.6499         estimate D2E/DX2                !
 ! A19   A(3,4,5)              113.897          estimate D2E/DX2                !
 ! A20   A(3,4,25)             107.8511         estimate D2E/DX2                !
 ! A21   A(3,4,32)             111.6045         estimate D2E/DX2                !
 ! A22   A(5,4,25)             107.1201         estimate D2E/DX2                !
 ! A23   A(5,4,32)             110.0233         estimate D2E/DX2                !
 ! A24   A(25,4,32)            105.9036         estimate D2E/DX2                !
 ! A25   A(4,5,6)              112.2998         estimate D2E/DX2                !
 ! A26   A(4,5,26)             110.2272         estimate D2E/DX2                !
 ! A27   A(4,5,27)             111.3575         estimate D2E/DX2                !
 ! A28   A(6,5,26)             107.4809         estimate D2E/DX2                !
 ! A29   A(6,5,27)             108.2319         estimate D2E/DX2                !
 ! A30   A(26,5,27)            107.0224         estimate D2E/DX2                !
 ! A31   A(5,6,28)             106.0073         estimate D2E/DX2                !
 ! A32   A(3,7,8)              113.396          estimate D2E/DX2                !
 ! A33   A(3,7,36)             110.6341         estimate D2E/DX2                !
 ! A34   A(8,7,36)             107.1448         estimate D2E/DX2                !
 ! A35   A(7,8,12)             114.1096         estimate D2E/DX2                !
 ! A36   A(7,8,29)             107.8132         estimate D2E/DX2                !
 ! A37   A(7,8,30)             110.486          estimate D2E/DX2                !
 ! A38   A(12,8,29)            107.8256         estimate D2E/DX2                !
 ! A39   A(12,8,30)            111.1035         estimate D2E/DX2                !
 ! A40   A(29,8,30)            105.003          estimate D2E/DX2                !
 ! A41   A(10,9,14)            119.5235         estimate D2E/DX2                !
 ! A42   A(10,9,15)            120.2411         estimate D2E/DX2                !
 ! A43   A(14,9,15)            120.2354         estimate D2E/DX2                !
 ! A44   A(9,10,11)            119.7907         estimate D2E/DX2                !
 ! A45   A(9,10,16)            120.6835         estimate D2E/DX2                !
 ! A46   A(11,10,16)           119.5257         estimate D2E/DX2                !
 ! A47   A(10,11,12)           121.6584         estimate D2E/DX2                !
 ! A48   A(10,11,18)           118.5928         estimate D2E/DX2                !
 ! A49   A(12,11,18)           119.747          estimate D2E/DX2                !
 ! A50   A(8,12,11)            121.2263         estimate D2E/DX2                !
 ! A51   A(8,12,13)            121.1826         estimate D2E/DX2                !
 ! A52   A(11,12,13)           117.5883         estimate D2E/DX2                !
 ! A53   A(12,13,14)           121.5753         estimate D2E/DX2                !
 ! A54   A(12,13,19)           119.953          estimate D2E/DX2                !
 ! A55   A(14,13,19)           118.4711         estimate D2E/DX2                !
 ! A56   A(9,14,13)            119.8633         estimate D2E/DX2                !
 ! A57   A(9,14,17)            120.6548         estimate D2E/DX2                !
 ! A58   A(13,14,17)           119.4819         estimate D2E/DX2                !
 ! A59   A(4,32,33)            112.3524         estimate D2E/DX2                !
 ! A60   A(4,32,34)            110.3542         estimate D2E/DX2                !
 ! A61   A(4,32,35)            110.7216         estimate D2E/DX2                !
 ! A62   A(33,32,34)           107.4772         estimate D2E/DX2                !
 ! A63   A(33,32,35)           108.2411         estimate D2E/DX2                !
 ! A64   A(34,32,35)           107.5124         estimate D2E/DX2                !
 ! D1    D(20,1,2,3)            69.2695         estimate D2E/DX2                !
 ! D2    D(20,1,2,23)         -170.1527         estimate D2E/DX2                !
 ! D3    D(20,1,2,24)          -55.4292         estimate D2E/DX2                !
 ! D4    D(21,1,2,3)          -171.7162         estimate D2E/DX2                !
 ! D5    D(21,1,2,23)          -51.1383         estimate D2E/DX2                !
 ! D6    D(21,1,2,24)           63.5852         estimate D2E/DX2                !
 ! D7    D(22,1,2,3)           -52.2271         estimate D2E/DX2                !
 ! D8    D(22,1,2,23)           68.3507         estimate D2E/DX2                !
 ! D9    D(22,1,2,24)         -176.9258         estimate D2E/DX2                !
 ! D10   D(1,2,3,4)            -58.776          estimate D2E/DX2                !
 ! D11   D(1,2,3,7)            177.5776         estimate D2E/DX2                !
 ! D12   D(1,2,3,31)            58.8061         estimate D2E/DX2                !
 ! D13   D(23,2,3,4)          -178.6285         estimate D2E/DX2                !
 ! D14   D(23,2,3,7)            57.7251         estimate D2E/DX2                !
 ! D15   D(23,2,3,31)          -61.0464         estimate D2E/DX2                !
 ! D16   D(24,2,3,4)            64.8853         estimate D2E/DX2                !
 ! D17   D(24,2,3,7)           -58.7611         estimate D2E/DX2                !
 ! D18   D(24,2,3,31)         -177.5327         estimate D2E/DX2                !
 ! D19   D(2,3,4,5)            -62.8403         estimate D2E/DX2                !
 ! D20   D(2,3,4,25)            55.9074         estimate D2E/DX2                !
 ! D21   D(2,3,4,32)           171.8307         estimate D2E/DX2                !
 ! D22   D(7,3,4,5)             59.0968         estimate D2E/DX2                !
 ! D23   D(7,3,4,25)           177.8445         estimate D2E/DX2                !
 ! D24   D(7,3,4,32)           -66.2322         estimate D2E/DX2                !
 ! D25   D(31,3,4,5)          -179.8767         estimate D2E/DX2                !
 ! D26   D(31,3,4,25)          -61.129          estimate D2E/DX2                !
 ! D27   D(31,3,4,32)           54.7943         estimate D2E/DX2                !
 ! D28   D(2,3,7,8)           -127.3596         estimate D2E/DX2                !
 ! D29   D(2,3,7,36)            -6.9531         estimate D2E/DX2                !
 ! D30   D(4,3,7,8)            107.5821         estimate D2E/DX2                !
 ! D31   D(4,3,7,36)          -132.0115         estimate D2E/DX2                !
 ! D32   D(31,3,7,8)           -11.4064         estimate D2E/DX2                !
 ! D33   D(31,3,7,36)          109.0            estimate D2E/DX2                !
 ! D34   D(3,4,5,6)            -64.5047         estimate D2E/DX2                !
 ! D35   D(3,4,5,26)           175.6852         estimate D2E/DX2                !
 ! D36   D(3,4,5,27)            57.0601         estimate D2E/DX2                !
 ! D37   D(25,4,5,6)           176.3314         estimate D2E/DX2                !
 ! D38   D(25,4,5,26)           56.5213         estimate D2E/DX2                !
 ! D39   D(25,4,5,27)          -62.1038         estimate D2E/DX2                !
 ! D40   D(32,4,5,6)            61.6594         estimate D2E/DX2                !
 ! D41   D(32,4,5,26)          -58.1507         estimate D2E/DX2                !
 ! D42   D(32,4,5,27)         -176.7758         estimate D2E/DX2                !
 ! D43   D(3,4,32,33)           67.1907         estimate D2E/DX2                !
 ! D44   D(3,4,32,34)         -172.8819         estimate D2E/DX2                !
 ! D45   D(3,4,32,35)          -53.968          estimate D2E/DX2                !
 ! D46   D(5,4,32,33)          -60.2582         estimate D2E/DX2                !
 ! D47   D(5,4,32,34)           59.6691         estimate D2E/DX2                !
 ! D48   D(5,4,32,35)          178.583          estimate D2E/DX2                !
 ! D49   D(25,4,32,33)        -175.7016         estimate D2E/DX2                !
 ! D50   D(25,4,32,34)         -55.7743         estimate D2E/DX2                !
 ! D51   D(25,4,32,35)          63.1396         estimate D2E/DX2                !
 ! D52   D(4,5,6,28)            34.271          estimate D2E/DX2                !
 ! D53   D(26,5,6,28)          155.6669         estimate D2E/DX2                !
 ! D54   D(27,5,6,28)          -89.0634         estimate D2E/DX2                !
 ! D55   D(3,7,8,12)            72.2308         estimate D2E/DX2                !
 ! D56   D(3,7,8,29)          -168.0293         estimate D2E/DX2                !
 ! D57   D(3,7,8,30)           -53.8051         estimate D2E/DX2                !
 ! D58   D(36,7,8,12)          -50.1331         estimate D2E/DX2                !
 ! D59   D(36,7,8,29)           69.6067         estimate D2E/DX2                !
 ! D60   D(36,7,8,30)         -176.1691         estimate D2E/DX2                !
 ! D61   D(7,8,12,11)           65.4557         estimate D2E/DX2                !
 ! D62   D(7,8,12,13)         -115.17           estimate D2E/DX2                !
 ! D63   D(29,8,12,11)         -54.2772         estimate D2E/DX2                !
 ! D64   D(29,8,12,13)         125.0971         estimate D2E/DX2                !
 ! D65   D(30,8,12,11)        -168.8327         estimate D2E/DX2                !
 ! D66   D(30,8,12,13)          10.5417         estimate D2E/DX2                !
 ! D67   D(14,9,10,11)           0.0042         estimate D2E/DX2                !
 ! D68   D(14,9,10,16)         179.9977         estimate D2E/DX2                !
 ! D69   D(15,9,10,11)        -179.9612         estimate D2E/DX2                !
 ! D70   D(15,9,10,16)           0.0322         estimate D2E/DX2                !
 ! D71   D(10,9,14,13)          -0.0002         estimate D2E/DX2                !
 ! D72   D(10,9,14,17)        -179.9637         estimate D2E/DX2                !
 ! D73   D(15,9,14,13)         179.9653         estimate D2E/DX2                !
 ! D74   D(15,9,14,17)           0.0018         estimate D2E/DX2                !
 ! D75   D(9,10,11,12)          -0.1468         estimate D2E/DX2                !
 ! D76   D(9,10,11,18)        -179.6433         estimate D2E/DX2                !
 ! D77   D(16,10,11,12)        179.8596         estimate D2E/DX2                !
 ! D78   D(16,10,11,18)          0.3631         estimate D2E/DX2                !
 ! D79   D(10,11,12,8)         179.6714         estimate D2E/DX2                !
 ! D80   D(10,11,12,13)          0.2754         estimate D2E/DX2                !
 ! D81   D(18,11,12,8)          -0.8377         estimate D2E/DX2                !
 ! D82   D(18,11,12,13)        179.7662         estimate D2E/DX2                !
 ! D83   D(8,12,13,14)        -179.6674         estimate D2E/DX2                !
 ! D84   D(8,12,13,19)           0.6215         estimate D2E/DX2                !
 ! D85   D(11,12,13,14)         -0.271          estimate D2E/DX2                !
 ! D86   D(11,12,13,19)       -179.9822         estimate D2E/DX2                !
 ! D87   D(12,13,14,9)           0.1385         estimate D2E/DX2                !
 ! D88   D(12,13,14,17)       -179.8976         estimate D2E/DX2                !
 ! D89   D(19,13,14,9)         179.8539         estimate D2E/DX2                !
 ! D90   D(19,13,14,17)         -0.1823         estimate D2E/DX2                !
 --------------------------------------------------------------------------------
 Trust Radius=3.00D-01 FncErr=1.00D-07 GrdErr=1.00D-06
 Number of steps in this run=     50 maximum allowed number of steps=    216.
 GradGradGradGradGradGradGradGradGradGradGradGradGradGradGradGradGradGrad

                          Input orientation:                          
 ---------------------------------------------------------------------
 Center     Atomic      Atomic             Coordinates (Angstroms)
 Number     Number       Type             X           Y           Z
 ---------------------------------------------------------------------
      1          6           0       -1.070364   -0.673933    1.062245
      2          6           0       -0.586122    0.761821    0.913719
      3          6           0        0.210881    1.286207    2.132965
      4          6           0       -0.596970    1.245468    3.467690
      5          6           0       -1.847835    2.141967    3.466924
      6          8           0       -1.522694    3.521702    3.356037
      7          7           0        0.664516    2.661018    1.826220
      8          6           0        2.111353    2.855300    2.016449
      9          6           0        4.572446    0.953252   -0.985917
     10          6           0        3.714455    1.993351   -1.338255
     11          6           0        2.923658    2.599539   -0.362983
     12          6           0        2.963027    2.189844    0.971311
     13          6           0        3.831397    1.148425    1.302387
     14          6           0        4.630087    0.529959    0.340819
     15          1           0        5.192750    0.475829   -1.740274
     16          1           0        3.654534    2.338221   -2.366381
     17          1           0        5.292633   -0.278546    0.635867
     18          9           0        2.101349    3.593227   -0.729900
     19          9           0        3.906920    0.717058    2.569554
     20          1           0       -1.853923   -0.758388    1.820481
     21          1           0       -1.493079   -1.025490    0.115353
     22          1           0       -0.246728   -1.341743    1.333216
     23          1           0        0.059586    0.801680    0.026150
     24          1           0       -1.444190    1.409015    0.696947
     25          1           0       -0.938543    0.214732    3.622651
     26          1           0       -2.408884    2.009987    4.398252
     27          1           0       -2.523273    1.882594    2.646742
     28          1           0       -0.728141    3.567297    2.780723
     29          1           0        2.313243    3.933182    1.977886
     30          1           0        2.410451    2.546607    3.024202
     31          1           0        1.069554    0.612759    2.252136
     32          6           0        0.289786    1.581075    4.675855
     33          1           0        0.630080    2.621026    4.666203
     34          1           0       -0.262311    1.424179    5.609065
     35          1           0        1.171530    0.932095    4.701519
     36          1           0        0.452888    2.902259    0.854194
 ---------------------------------------------------------------------
                    Distance matrix (angstroms):
                    1          2          3          4          5
     1  C    0.000000
     2  C    1.522478   0.000000
     3  C    2.574913   1.548146   0.000000
     4  C    3.113578   2.599385   1.560697   0.000000
     5  C    3.783680   3.164740   2.598092   1.538952   0.000000
     6  O    4.803065   3.802503   3.081984   2.459811   1.421858
     7  N    3.836061   2.450245   1.479859   2.507898   3.045198
     8  C    4.846578   3.588180   2.467270   3.468814   4.276434
     9  C    6.219647   5.500553   5.372293   6.829558   7.903217
    10  C    5.980911   5.008295   4.982414   6.499602   7.351932
    11  C    5.357155   4.162419   3.913279   5.376094   6.135528
    12  C    4.947497   3.826098   3.120947   4.449419   5.419850
    13  C    5.235066   4.451404   3.717120   4.930354   6.158411
    14  C    5.870686   5.252696   4.828362   6.132813   7.371199
    15  H    6.957202   6.365598   6.362210   7.825349   8.914077
    16  H    6.569110   5.588135   5.762777   7.301081   8.021348
    17  H    6.389512   5.976565   5.523944   6.710385   8.053574
    18  F    5.610722   4.235663   4.134272   5.514767   5.942688
    19  F    5.383325   4.788655   3.765003   4.622866   5.996069
    20  H    1.093627   2.177285   2.922573   2.882476   3.335097
    21  H    1.094936   2.157415   3.509727   4.147098   4.625112
    22  H    1.094428   2.171669   2.784803   3.372285   4.387766
    23  H    2.127842   1.098320   2.167101   3.531602   4.156146
    24  H    2.147524   1.096417   2.194650   2.901990   2.893600
    25  H    2.713445   2.786004   2.165271   1.096860   2.136656
    26  H    4.485979   4.125815   3.538156   2.175653   1.095247
    27  H    3.340270   2.830557   2.845214   2.188728   1.093704
    28  H    4.588934   3.372917   2.550436   2.424875   1.938079
    29  H    5.789016   4.426771   3.383852   4.232335   4.768674
    30  H    5.131981   4.076647   2.687196   3.306694   4.300318
    31  H    2.765984   2.134208   1.097749   2.157590   3.510747
    32  C    4.471381   3.948678   2.561145   1.535783   2.519035
    33  H    5.170762   4.360840   2.893919   2.198692   2.794250
    34  H    5.072336   4.752878   3.510871   2.174723   2.760050
    35  H    4.566150   4.179206   2.765088   2.179020   3.479164
    36  H    3.892651   2.380034   2.074957   3.267647   3.563387
                    6          7          8          9         10
     6  O    0.000000
     7  N    2.804462   0.000000
     8  C    3.929998   1.472165   0.000000
     9  C    7.912031   5.108473   4.323074   0.000000
    10  C    7.197219   4.445426   3.816665   1.393591   0.000000
    11  C    5.869543   3.146444   2.527242   2.411806   1.394267
    12  C    5.251900   2.497204   1.503494   2.819598   2.436668
    13  C    6.206143   3.548447   2.526234   2.413210   2.774989
    14  C    7.476549   4.740631   3.815622   1.393818   2.408150
    15  H    8.963644   6.164401   5.410162   1.087090   2.156351
    16  H    7.807073   5.159681   4.675252   2.160181   1.086080
    17  H    8.263770   5.610476   4.674135   2.160134   3.398429
    18  F    5.462022   3.076890   2.843777   3.625098   2.351980
    19  F    6.161598   3.852883   2.846413   3.624926   4.115451
    20  H    4.559256   4.246752   5.368478   7.218296   6.968250
    21  H    5.583893   4.601372   5.627311   6.474474   6.192317
    22  H    5.419686   4.134672   4.862358   5.819778   5.826713
    23  H    4.581515   2.657693   3.519715   4.627435   4.079185
    24  H    3.397112   2.699891   4.058905   6.264157   5.576299
    25  H    3.368734   3.432387   4.342160   7.221863   7.030254
    26  H    2.038830   4.060170   5.178811   8.879467   8.390654
    27  H    2.047177   3.382484   4.777362   8.025529   7.402818
    28  H    0.982028   1.916223   3.025522   7.008354   6.259389
    29  H    4.096709   2.087991   1.097304   4.771594   4.089392
    30  H    4.065778   2.120505   1.095590   4.826392   4.586671
    31  H    4.049728   2.130921   2.483925   4.782382   4.668238
    32  C    2.965305   3.070361   3.466150   7.126781   6.933098
    33  H    2.676226   2.840473   3.044709   7.090147   6.779444
    34  H    3.326305   4.086404   4.537541   8.190875   8.025203
    35  H    3.971804   3.393167   3.433888   6.626734   6.638645
    36  H    3.247438   1.023630   2.025722   4.914814   4.033704
                   11         12         13         14         15
    11  C    0.000000
    12  C    1.396331   0.000000
    13  C    2.388133   1.395791   0.000000
    14  C    2.773157   2.435534   1.394639   0.000000
    15  H    3.399390   3.906687   3.400508   2.156494   0.000000
    16  H    2.148504   3.411801   3.860927   3.398595   2.495320
    17  H    3.859160   3.410650   2.148419   1.086140   2.495016
    18  F    1.340983   2.367719   3.619436   4.113948   4.505084
    19  F    3.620817   2.369475   1.340706   2.350582   4.504017
    20  H    6.234458   5.711057   6.018905   6.774336   7.991112
    21  H    5.733865   5.561287   5.872393   6.321663   7.099128
    22  H    5.334992   4.785980   4.778388   5.317090   6.506753
    23  H    3.403914   3.354146   3.996945   4.589371   5.438364
    24  H    4.649612   4.484254   5.316604   6.147878   7.131610
    25  H    6.040627   5.113993   5.385883   6.471432   8.149963
    26  H    7.173070   6.374457   7.019101   8.258351   9.890398
    27  H    6.264305   5.744646   6.536675   7.636587   8.986763
    28  H    4.914782   4.335443   5.368967   6.624890   8.065577
    29  H    2.762404   2.115334   3.242832   4.430540   5.836914
    30  H    3.426252   2.155686   2.634131   4.024201   5.893177
    31  H    3.771451   2.777220   2.969299   4.041953   5.740978
    32  C    5.776196   4.608738   4.910242   6.223793   8.150297
    33  H    5.527538   4.390989   4.871575   6.251525   8.152470
    34  H    6.870024   5.700685   5.948274   7.244971   9.201622
    35  H    5.612442   4.325026   4.321549   5.580236   7.607568
    36  H    2.770896   2.611905   3.832901   4.831185   5.923269
                   16         17         18         19         20
    16  H    0.000000
    17  H    4.306313   0.000000
    18  F    2.581762   5.200023   0.000000
    19  F    5.201473   2.578871   4.734853   0.000000
    20  H    7.580363   7.259946   6.409772   5.993777   0.000000
    21  H    6.631099   6.846514   5.913283   6.182197   1.763239
    22  H    6.515290   5.683415   5.841562   4.797915   1.777866
    23  H    4.583537   5.378050   3.540218   4.612813   3.052041
    24  H    6.020331   6.945241   4.401991   5.711378   2.475449
    25  H    7.840540   6.927608   6.292843   4.983960   2.243368
    26  H    9.090271   8.871656   7.010477   6.701133   3.823190
    27  H    7.968958   8.354791   5.976212   6.535428   2.847020
    28  H    6.871037   7.459265   4.509009   5.445388   4.571761
    29  H    4.818259   5.330707   2.737257   3.637765   6.277012
    30  H    5.536204   4.689628   3.909506   2.406943   5.527823
    31  H    5.566870   4.608812   4.340545   2.856970   3.257773
    32  C    7.841421   6.693891   6.045883   4.273955   4.268693
    33  H    7.660583   6.811059   5.676948   4.331133   5.068416
    34  H    8.932239   7.647835   7.104515   5.207796   4.652977
    35  H    7.622185   5.914277   6.119354   3.474748   4.506826
    36  H    4.576110   5.795543   2.388350   4.432595   4.433444
                   21         22         23         24         25
    21  H    0.000000
    22  H    1.771044   0.000000
    23  H    2.399432   2.529133   0.000000
    24  H    2.503489   3.066826   1.755040   0.000000
    25  H    3.761223   2.853548   3.778305   3.200271   0.000000
    26  H    5.328794   5.030254   5.164167   3.871881   2.446712
    27  H    3.990762   4.159851   3.834976   2.278244   2.499106
    28  H    5.364981   5.140594   3.982063   3.084320   3.463063
    29  H    6.522695   5.898634   4.323719   4.704309   5.206365
    30  H    6.038114   5.003928   4.190424   4.644189   4.124505
    31  H    3.717094   2.529247   2.451681   3.061298   2.463573
    32  C    5.547158   4.472577   4.720191   4.343730   2.117764
    33  H    6.206055   5.251774   5.016530   4.639672   3.056113
    34  H    6.139751   5.092490   5.626728   5.052323   2.421960
    35  H    5.653777   4.304330   4.807546   4.806874   2.476080
    36  H    4.445209   4.327872   2.291893   2.419382   4.101614
                   26         27         28         29         30
    26  H    0.000000
    27  H    1.759858   0.000000
    28  H    2.804730   2.465497   0.000000
    29  H    5.644053   5.295674   3.166771   0.000000
    30  H    5.040036   4.992497   3.309358   1.739775   0.000000
    31  H    4.319443   3.831005   3.498629   3.556288   2.476663
    32  C    2.746607   3.481597   2.927931   4.111669   2.856121
    33  H    3.111345   3.816692   2.509029   3.432468   2.423103
    34  H    2.533183   3.754657   3.579032   5.110189   3.883944
    35  H    3.751425   4.333258   3.773923   4.210488   2.637227
    36  H    4.641792   3.620840   2.355551   2.405495   2.944058
                   31         32         33         34         35
    31  H    0.000000
    32  C    2.723984   0.000000
    33  H    3.170803   1.094254   0.000000
    34  H    3.701518   1.095586   1.765727   0.000000
    35  H    2.472216   1.095128   1.773951   1.766829   0.000000
    36  H    2.752513   4.046878   3.826474   5.030410   4.381769
                   36
    36  H    0.000000
 Stoichiometry    C13H19F2NO
 Framework group  C1[X(C13H19F2NO)]
 Deg. of freedom   102
 Full point group                 C1      NOp   1
 Largest Abelian subgroup         C1      NOp   1
 Largest concise Abelian subgroup C1      NOp   1
                         Standard orientation:                         
 ---------------------------------------------------------------------
 Center     Atomic      Atomic             Coordinates (Angstroms)
 Number     Number       Type             X           Y           Z
 ---------------------------------------------------------------------
      1          6           0       -1.716790   -0.547788    2.966282
      2          6           0       -1.278032   -1.044282    1.595543
      3          6           0       -1.318689    0.039870    0.491135
      4          6           0       -2.734208    0.663935    0.284686
      5          6           0       -3.797002   -0.343897   -0.187665
      6          8           0       -3.509230   -0.866279   -1.478396
      7          7           0       -0.814627   -0.564437   -0.762148
      8          6           0        0.269755    0.208990   -1.389202
      9          6           0        4.049395   -0.010629    0.697676
     10          6           0        3.504278   -1.151632    0.111966
     11          6           0        2.284046   -1.070953   -0.557738
     12          6           0        1.581398    0.131501   -0.658391
     13          6           0        2.147066    1.262188   -0.066955
     14          6           0        3.366531    1.201064    0.606978
     15          1           0        5.000639   -0.065055    1.221066
     16          1           0        4.020297   -2.105460    0.171162
     17          1           0        3.774763    2.101772    1.056168
     18          9           0        1.778088   -2.185151   -1.106195
     19          9           0        1.512652    2.441352   -0.134677
     20          1           0       -2.787604   -0.326954    2.990966
     21          1           0       -1.524582   -1.317034    3.721398
     22          1           0       -1.166197    0.353217    3.254047
     23          1           0       -0.247361   -1.411237    1.692332
     24          1           0       -1.886855   -1.912511    1.316898
     25          1           0       -3.071274    1.059773    1.250502
     26          1           0       -4.779259    0.137851   -0.239212
     27          1           0       -3.887851   -1.182566    0.508446
     28          1           0       -2.530657   -0.927019   -1.533954
     29          1           0        0.424497   -0.188643   -2.400152
     30          1           0       -0.038078    1.249878   -1.537888
     31          1           0       -0.653815    0.846289    0.826819
     32          6           0       -2.688445    1.866083   -0.669974
     33          1           0       -2.434199    1.575060   -1.693720
     34          1           0       -3.663565    2.364495   -0.702133
     35          1           0       -1.952824    2.602836   -0.330321
     36          1           0       -0.452327   -1.505911   -0.588414
 ---------------------------------------------------------------------
 Rotational constants (GHZ):      0.7173200      0.2773356      0.2651949
 Standard basis: 6-31G(d,p) (6D, 7F)
 There are   350 symmetry adapted cartesian basis functions of A   symmetry.
 There are   350 symmetry adapted basis functions of A   symmetry.
   350 basis functions,   609 primitive gaussians,   350 cartesian basis functions
    65 alpha electrons       65 beta electrons
       nuclear repulsion energy      1300.8643962536 Hartrees.
 NAtoms=   36 NActive=   36 NUniq=   36 SFac= 1.00D+00 NAtFMM=   60 NAOKFM=F Big=F
 Integral buffers will be    131072 words long.
 Raffenetti 2 integral format.
 Two-electron integral symmetry is turned on.
 ------------------------------------------------------------------------------
 Polarizable Continuum Model (PCM)
 =================================
 Model                : PCM (using non-symmetric T matrix).
 Atomic radii         : UFF (Universal Force Field).
 Polarization charges : Total charges.
 Charge compensation  : None.
 Solution method      : On-the-fly selection.
 Cavity type          : Scaled VdW (van der Waals Surface) (Alpha=1.100).
 Cavity algorithm     : GePol (No added spheres)
                        Default sphere list used, NSphG=   36.
                        Lebedev-Laikov grids with approx.  5.0 points / Ang**2.
                        Smoothing algorithm: Karplus/York (Gamma=1.0000).
                        Polarization charges: spherical gaussians, with
                                              point-specific exponents (IZeta= 3).
                        Self-potential: point-specific (ISelfS= 7).
                        Self-field    : sphere-specific E.n sum rule (ISelfD= 2).
 1st derivatives      : Analytical E(r).r(x)/FMM algorithm (CHGder, D1EAlg=3).
                        Cavity 1st derivative terms included.
 Solvent              : Chloroform, Eps=   4.711300 Eps(inf)=   2.090627
 ------------------------------------------------------------------------------
 One-electron integrals computed using PRISM.
 NBasis=   350 RedAO= T EigKep=  4.09D-04  NBF=   350
 NBsUse=   350 1.00D-06 EigRej= -1.00D+00 NBFU=   350
 ExpMin= 1.61D-01 ExpMax= 7.00D+03 ExpMxC= 1.05D+03 IAcc=1 IRadAn=         1 AccDes= 0.00D+00
 Harris functional with IExCor=  402 and IRadAn=       1 diagonalized for initial guess.
 HarFok:  IExCor=  402 AccDes= 0.00D+00 IRadAn=         1 IDoV= 1 UseB2=F ITyADJ=14
 ICtDFT=  3500011 ScaDFX=  1.000000  1.000000  1.000000  1.000000
 FoFCou: FMM=F IPFlag=           0 FMFlag=      100000 FMFlg1=           0
         NFxFlg=           0 DoJE=T BraDBF=F KetDBF=T FulRan=T
         wScrn=  0.000000 ICntrl=     500 IOpCl=  0 I1Cent=   200000004 NGrid=           0
         NMat0=    1 NMatS0=      1 NMatT0=    0 NMatD0=    1 NMtDS0=    0 NMtDT0=    0
 Petite list used in FoFCou.
 Requested convergence on RMS density matrix=1.00D-08 within 128 cycles.
 Requested convergence on MAX density matrix=1.00D-06.
 Requested convergence on             energy=1.00D-06.
 No special actions if energy rises.
 Inv3:  Mode=1 IEnd=    17963427.
 Iteration    1 A*A^-1 deviation from unit magnitude is 6.88D-15 for   1473.
 Iteration    1 A*A^-1 deviation from orthogonality  is 7.33D-15 for   2054    732.
 Iteration    1 A^-1*A deviation from unit magnitude is 8.33D-15 for   1473.
 Iteration    1 A^-1*A deviation from orthogonality  is 5.35D-13 for   2243   2200.
 Error on total polarization charges =  0.00750
 SCF Done:  E(RB3LYP) =  -836.494914500     A.U. after   12 cycles
            NFock= 12  Conv=0.61D-08     -V/T= 2.0088

 **********************************************************************

            Population analysis using the SCF density.

 **********************************************************************

 Orbital symmetries:
       Occupied  (A) (A) (A) (A) (A) (A) (A) (A) (A) (A) (A) (A)
                 (A) (A) (A) (A) (A) (A) (A) (A) (A) (A) (A) (A)
                 (A) (A) (A) (A) (A) (A) (A) (A) (A) (A) (A) (A)
                 (A) (A) (A) (A) (A) (A) (A) (A) (A) (A) (A) (A)
                 (A) (A) (A) (A) (A) (A) (A) (A) (A) (A) (A) (A)
                 (A) (A) (A) (A) (A)
       Virtual   (A) (A) (A) (A) (A) (A) (A) (A) (A) (A) (A) (A)
                 (A) (A) (A) (A) (A) (A) (A) (A) (A) (A) (A) (A)
                 (A) (A) (A) (A) (A) (A) (A) (A) (A) (A) (A) (A)
                 (A) (A) (A) (A) (A) (A) (A) (A) (A) (A) (A) (A)
                 (A) (A) (A) (A) (A) (A) (A) (A) (A) (A) (A) (A)
                 (A) (A) (A) (A) (A) (A) (A) (A) (A) (A) (A) (A)
                 (A) (A) (A) (A) (A) (A) (A) (A) (A) (A) (A) (A)
                 (A) (A) (A) (A) (A) (A) (A) (A) (A) (A) (A) (A)
                 (A) (A) (A) (A) (A) (A) (A) (A) (A) (A) (A) (A)
                 (A) (A) (A) (A) (A) (A) (A) (A) (A) (A) (A) (A)
                 (A) (A) (A) (A) (A) (A) (A) (A) (A) (A) (A) (A)
                 (A) (A) (A) (A) (A) (A) (A) (A) (A) (A) (A) (A)
                 (A) (A) (A) (A) (A) (A) (A) (A) (A) (A) (A) (A)
                 (A) (A) (A) (A) (A) (A) (A) (A) (A) (A) (A) (A)
                 (A) (A) (A) (A) (A) (A) (A) (A) (A) (A) (A) (A)
                 (A) (A) (A) (A) (A) (A) (A) (A) (A) (A) (A) (A)
                 (A) (A) (A) (A) (A) (A) (A) (A) (A) (A) (A) (A)
                 (A) (A) (A) (A) (A) (A) (A) (A) (A) (A) (A) (A)
                 (A) (A) (A) (A) (A) (A) (A) (A) (A) (A) (A) (A)
                 (A) (A) (A) (A) (A) (A) (A) (A) (A) (A) (A) (A)
                 (A) (A) (A) (A) (A) (A) (A) (A) (A) (A) (A) (A)
                 (A) (A) (A) (A) (A) (A) (A) (A) (A) (A) (A) (A)
                 (A) (A) (A) (A) (A) (A) (A) (A) (A) (A) (A) (A)
                 (A) (A) (A) (A) (A) (A) (A) (A) (A)
 The electronic state is 1-A.
 Alpha  occ. eigenvalues --  -24.72702 -24.72216 -19.11026 -14.33436 -10.28593
 Alpha  occ. eigenvalues --  -10.28486 -10.22291 -10.21567 -10.21345 -10.21091
 Alpha  occ. eigenvalues --  -10.20980 -10.20235 -10.20163 -10.18375 -10.18300
 Alpha  occ. eigenvalues --  -10.17441 -10.16789  -1.24041  -1.23582  -0.98729
 Alpha  occ. eigenvalues --   -0.91863  -0.87234  -0.80150  -0.77253  -0.75703
 Alpha  occ. eigenvalues --   -0.75659  -0.69514  -0.66478  -0.65048  -0.63342
 Alpha  occ. eigenvalues --   -0.61375  -0.60397  -0.56527  -0.55930  -0.53139
 Alpha  occ. eigenvalues --   -0.50280  -0.49676  -0.49539  -0.48378  -0.47283
 Alpha  occ. eigenvalues --   -0.46945  -0.45534  -0.44978  -0.44625  -0.44162
 Alpha  occ. eigenvalues --   -0.42985  -0.42534  -0.40443  -0.39605  -0.39152
 Alpha  occ. eigenvalues --   -0.38709  -0.37729  -0.36618  -0.36325  -0.36102
 Alpha  occ. eigenvalues --   -0.35890  -0.35306  -0.34550  -0.32057  -0.31562
 Alpha  occ. eigenvalues --   -0.30350  -0.26061  -0.25106  -0.24263  -0.23289
 Alpha virt. eigenvalues --   -0.01815  -0.00622   0.07051   0.08578   0.10071
 Alpha virt. eigenvalues --    0.10604   0.12041   0.12895   0.13613   0.14184
 Alpha virt. eigenvalues --    0.14394   0.14958   0.15753   0.15931   0.16234
 Alpha virt. eigenvalues --    0.16819   0.17859   0.18293   0.18591   0.19200
 Alpha virt. eigenvalues --    0.19976   0.20734   0.21741   0.22337   0.23185
 Alpha virt. eigenvalues --    0.23530   0.24192   0.25338   0.26359   0.26601
 Alpha virt. eigenvalues --    0.27759   0.29165   0.30539   0.31079   0.31921
 Alpha virt. eigenvalues --    0.37228   0.38042   0.46544   0.48936   0.49152
 Alpha virt. eigenvalues --    0.50044   0.50651   0.51535   0.51844   0.53533
 Alpha virt. eigenvalues --    0.53944   0.54971   0.56153   0.56659   0.56929
 Alpha virt. eigenvalues --    0.57980   0.58918   0.59365   0.59613   0.60712
 Alpha virt. eigenvalues --    0.62575   0.62874   0.63570   0.64720   0.66507
 Alpha virt. eigenvalues --    0.67009   0.68113   0.68414   0.70230   0.70474
 Alpha virt. eigenvalues --    0.72313   0.72960   0.76106   0.77473   0.78768
 Alpha virt. eigenvalues --    0.79577   0.80859   0.81809   0.82188   0.83338
 Alpha virt. eigenvalues --    0.84310   0.85004   0.85863   0.86348   0.87206
 Alpha virt. eigenvalues --    0.87467   0.87980   0.88867   0.89571   0.90290
 Alpha virt. eigenvalues --    0.91021   0.92022   0.92413   0.94831   0.95317
 Alpha virt. eigenvalues --    0.96001   0.96569   0.97562   0.98298   1.00111
 Alpha virt. eigenvalues --    1.00697   1.02548   1.04014   1.04800   1.06328
 Alpha virt. eigenvalues --    1.08189   1.08374   1.11243   1.14219   1.14933
 Alpha virt. eigenvalues --    1.18077   1.20283   1.21425   1.22040   1.22998
 Alpha virt. eigenvalues --    1.25574   1.25772   1.26815   1.28805   1.32203
 Alpha virt. eigenvalues --    1.33838   1.35535   1.37202   1.38214   1.38932
 Alpha virt. eigenvalues --    1.40671   1.41510   1.41862   1.42224   1.43266
 Alpha virt. eigenvalues --    1.47316   1.50055   1.50301   1.51394   1.53406
 Alpha virt. eigenvalues --    1.55975   1.58250   1.61104   1.63855   1.66503
 Alpha virt. eigenvalues --    1.67043   1.69248   1.71645   1.72657   1.74955
 Alpha virt. eigenvalues --    1.75394   1.77448   1.78353   1.80208   1.81698
 Alpha virt. eigenvalues --    1.82432   1.82803   1.83916   1.85068   1.86061
 Alpha virt. eigenvalues --    1.86732   1.87756   1.87951   1.89028   1.90213
 Alpha virt. eigenvalues --    1.90623   1.91996   1.92262   1.93604   1.95262
 Alpha virt. eigenvalues --    1.95964   1.97130   1.98213   1.99533   2.00495
 Alpha virt. eigenvalues --    2.01629   2.02971   2.04861   2.05248   2.05609
 Alpha virt. eigenvalues --    2.06132   2.06738   2.08097   2.11355   2.12093
 Alpha virt. eigenvalues --    2.13832   2.14275   2.14380   2.17189   2.18180
 Alpha virt. eigenvalues --    2.19102   2.21040   2.21163   2.23866   2.26351
 Alpha virt. eigenvalues --    2.26707   2.27353   2.28157   2.29005   2.30360
 Alpha virt. eigenvalues --    2.30679   2.31376   2.33778   2.34470   2.35892
 Alpha virt. eigenvalues --    2.36507   2.37513   2.37980   2.39327   2.40622
 Alpha virt. eigenvalues --    2.41754   2.41915   2.44632   2.47669   2.48608
 Alpha virt. eigenvalues --    2.50493   2.51267   2.52503   2.54161   2.54380
 Alpha virt. eigenvalues --    2.56001   2.56858   2.57803   2.61481   2.63296
 Alpha virt. eigenvalues --    2.63983   2.64328   2.64823   2.66848   2.68375
 Alpha virt. eigenvalues --    2.69974   2.71191   2.72985   2.73854   2.74891
 Alpha virt. eigenvalues --    2.75370   2.76954   2.77575   2.78130   2.82099
 Alpha virt. eigenvalues --    2.83561   2.85255   2.87260   2.88579   2.89177
 Alpha virt. eigenvalues --    2.90508   2.90698   2.92083   2.93520   2.95051
 Alpha virt. eigenvalues --    2.97276   2.99714   3.04771   3.05297   3.06139
 Alpha virt. eigenvalues --    3.09598   3.14542   3.19925   3.20339   3.22574
 Alpha virt. eigenvalues --    3.25432   3.29571   3.31164   3.33765   3.34838
 Alpha virt. eigenvalues --    3.36256   3.39645   3.40099   3.40401   3.43562
 Alpha virt. eigenvalues --    3.46226   3.47586   3.49891   3.53402   3.54667
 Alpha virt. eigenvalues --    3.56773   3.61407   3.80067   3.95413   4.09158
 Alpha virt. eigenvalues --    4.10584   4.13010   4.16956   4.34267   4.38345
 Alpha virt. eigenvalues --    4.42737   4.44763   4.54407   4.59979   4.63028
 Alpha virt. eigenvalues --    4.69238   4.77413   4.80105   5.54680   5.57118
          Condensed to atoms (all electrons):
               1          2          3          4          5          6
     1  C    4.932665   0.357252  -0.040016  -0.001806  -0.001101   0.000040
     2  C    0.357252   4.964368   0.364665  -0.045408  -0.005107  -0.000877
     3  C   -0.040016   0.364665   4.887844   0.365881  -0.033661  -0.004845
     4  C   -0.001806  -0.045408   0.365881   5.025665   0.360694  -0.041207
     5  C   -0.001101  -0.005107  -0.033661   0.360694   4.709402   0.270416
     6  O    0.000040  -0.000877  -0.004845  -0.041207   0.270416   8.202339
     7  N    0.004247  -0.042959   0.250205  -0.060600  -0.002501  -0.027703
     8  C   -0.000180   0.002092  -0.036503  -0.000618   0.000154  -0.000015
     9  C    0.000000   0.000006   0.000001   0.000000   0.000000   0.000000
    10  C    0.000001  -0.000050  -0.000002   0.000000   0.000000   0.000000
    11  C   -0.000004  -0.000142  -0.000580  -0.000005  -0.000001  -0.000001
    12  C   -0.000016   0.000828  -0.003106  -0.000449  -0.000015  -0.000013
    13  C    0.000003  -0.000119   0.000145   0.000063  -0.000001   0.000000
    14  C   -0.000001   0.000008  -0.000063   0.000001   0.000000   0.000000
    15  H    0.000000   0.000000   0.000000   0.000000   0.000000   0.000000
    16  H    0.000000   0.000000   0.000000   0.000000   0.000000   0.000000
    17  H    0.000000   0.000000   0.000001   0.000000   0.000000   0.000000
    18  F    0.000000  -0.000159   0.000092  -0.000001   0.000000   0.000000
    19  F    0.000000   0.000005  -0.001211   0.000026   0.000000   0.000000
    20  H    0.387955  -0.033499  -0.005740   0.001623   0.000321  -0.000012
    21  H    0.378209  -0.026709   0.004126   0.000123  -0.000007   0.000000
    22  H    0.387789  -0.036851  -0.005227  -0.001311   0.000102  -0.000001
    23  H   -0.036326   0.376212  -0.032530   0.005235   0.000026  -0.000001
    24  H   -0.038174   0.380803  -0.031263  -0.010569   0.003222   0.000210
    25  H    0.002195  -0.007427  -0.041124   0.363136  -0.033380   0.003437
    26  H    0.000053  -0.000071   0.005606  -0.027741   0.377894  -0.042225
    27  H   -0.000257   0.003919  -0.013569  -0.044630   0.369630  -0.046468
    28  H   -0.000061   0.000171  -0.002611  -0.011422  -0.041335   0.282196
    29  H    0.000004  -0.000282   0.005319   0.000001  -0.000008   0.000104
    30  H    0.000011   0.000219  -0.005650  -0.000046   0.000058   0.000010
    31  H   -0.005622  -0.039969   0.384625  -0.056060   0.004600  -0.000199
    32  C   -0.000031   0.005192  -0.045715   0.353058  -0.051399  -0.002138
    33  H   -0.000003  -0.000001  -0.008975  -0.031508  -0.007928   0.011008
    34  H    0.000005  -0.000158   0.004563  -0.028244  -0.003086  -0.000428
    35  H   -0.000018   0.000063  -0.005205  -0.032671   0.004903   0.000189
    36  H    0.000154  -0.006526  -0.041684   0.003906   0.000342   0.000577
               7          8          9         10         11         12
     1  C    0.004247  -0.000180   0.000000   0.000001  -0.000004  -0.000016
     2  C   -0.042959   0.002092   0.000006  -0.000050  -0.000142   0.000828
     3  C    0.250205  -0.036503   0.000001  -0.000002  -0.000580  -0.003106
     4  C   -0.060600  -0.000618   0.000000   0.000000  -0.000005  -0.000449
     5  C   -0.002501   0.000154   0.000000   0.000000  -0.000001  -0.000015
     6  O   -0.027703  -0.000015   0.000000   0.000000  -0.000001  -0.000013
     7  N    6.918071   0.302284   0.000009  -0.000038  -0.004621  -0.058504
     8  C    0.302284   4.929409  -0.000531   0.007847  -0.055325   0.287962
     9  C    0.000009  -0.000531   4.849984   0.490711  -0.011137  -0.028001
    10  C   -0.000038   0.007847   0.490711   5.031034   0.489921  -0.073963
    11  C   -0.004621  -0.055325  -0.011137   0.489921   4.616109   0.395274
    12  C   -0.058504   0.287962  -0.028001  -0.073963   0.395274   5.356275
    13  C    0.001113  -0.042703  -0.010119  -0.047279   0.013603   0.415261
    14  C   -0.000130   0.007540   0.489528  -0.033778  -0.045210  -0.070615
    15  H    0.000000   0.000004   0.375787  -0.034869   0.003690   0.000213
    16  H    0.000006  -0.000143  -0.036849   0.359388  -0.033365   0.006556
    17  H    0.000002  -0.000135  -0.037375   0.004804   0.000423   0.006499
    18  F   -0.005074   0.005906   0.002865  -0.046003   0.303003  -0.059581
    19  F    0.000090  -0.005569   0.003009  -0.000027   0.002533  -0.051303
    20  H   -0.000021  -0.000003   0.000000   0.000000   0.000000   0.000000
    21  H   -0.000106   0.000003   0.000000   0.000000   0.000000  -0.000001
    22  H    0.000027   0.000004   0.000000   0.000000   0.000000   0.000013
    23  H   -0.003140  -0.000351  -0.000025   0.000156   0.001511   0.001484
    24  H   -0.003525   0.000224   0.000000   0.000000  -0.000009   0.000024
    25  H    0.004748  -0.000136   0.000000   0.000000   0.000000   0.000022
    26  H   -0.000275   0.000008   0.000000   0.000000   0.000000   0.000000
    27  H    0.000221  -0.000040   0.000000   0.000000   0.000000   0.000001
    28  H    0.062553   0.000014   0.000000   0.000000   0.000003   0.000389
    29  H   -0.038950   0.381061   0.000006   0.000087  -0.007246  -0.045366
    30  H   -0.033229   0.383560  -0.000043  -0.000141   0.004211  -0.042346
    31  H   -0.052192  -0.004666  -0.000029  -0.000004   0.000317   0.001807
    32  C   -0.002774  -0.001146   0.000000   0.000000  -0.000001   0.000266
    33  H    0.004943  -0.001398   0.000000   0.000000   0.000000   0.000215
    34  H   -0.000082   0.000078   0.000000   0.000000   0.000000  -0.000005
    35  H   -0.000113  -0.000691   0.000000   0.000000   0.000000  -0.000043
    36  H    0.334584  -0.034823  -0.000036   0.000062   0.002982  -0.013817
              13         14         15         16         17         18
     1  C    0.000003  -0.000001   0.000000   0.000000   0.000000   0.000000
     2  C   -0.000119   0.000008   0.000000   0.000000   0.000000  -0.000159
     3  C    0.000145  -0.000063   0.000000   0.000000   0.000001   0.000092
     4  C    0.000063   0.000001   0.000000   0.000000   0.000000  -0.000001
     5  C   -0.000001   0.000000   0.000000   0.000000   0.000000   0.000000
     6  O    0.000000   0.000000   0.000000   0.000000   0.000000   0.000000
     7  N    0.001113  -0.000130   0.000000   0.000006   0.000002  -0.005074
     8  C   -0.042703   0.007540   0.000004  -0.000143  -0.000135   0.005906
     9  C   -0.010119   0.489528   0.375787  -0.036849  -0.037375   0.002865
    10  C   -0.047279  -0.033778  -0.034869   0.359388   0.004804  -0.046003
    11  C    0.013603  -0.045210   0.003690  -0.033365   0.000423   0.303003
    12  C    0.415261  -0.070615   0.000213   0.006556   0.006499  -0.059581
    13  C    4.592122   0.478330   0.003639   0.000505  -0.032705   0.002297
    14  C    0.478330   5.038968  -0.034224   0.004663   0.359461  -0.000050
    15  H    0.003639  -0.034224   0.577789  -0.005964  -0.005909  -0.000023
    16  H    0.000505   0.004663  -0.005964   0.590635  -0.000147  -0.000286
    17  H   -0.032705   0.359461  -0.005909  -0.000147   0.591576   0.000001
    18  F    0.002297  -0.000050  -0.000023  -0.000286   0.000001   9.068340
    19  F    0.298115  -0.045753  -0.000023   0.000001  -0.000490   0.000000
    20  H    0.000000   0.000000   0.000000   0.000000   0.000000   0.000000
    21  H    0.000000   0.000000   0.000000   0.000000   0.000000   0.000000
    22  H    0.000006   0.000000   0.000000   0.000000   0.000000   0.000000
    23  H    0.000032  -0.000016   0.000000   0.000005   0.000000  -0.000026
    24  H   -0.000001   0.000000   0.000000   0.000000   0.000000  -0.000006
    25  H    0.000001   0.000000   0.000000   0.000000   0.000000   0.000000
    26  H    0.000000   0.000000   0.000000   0.000000   0.000000   0.000000
    27  H    0.000000   0.000000   0.000000   0.000000   0.000000   0.000000
    28  H   -0.000004   0.000000   0.000000   0.000000   0.000000  -0.000004
    29  H    0.002979  -0.000264   0.000000   0.000001   0.000003   0.002025
    30  H   -0.004636   0.000554   0.000000   0.000002  -0.000004   0.000142
    31  H    0.001643  -0.000035   0.000000  -0.000001  -0.000009  -0.000003
    32  C   -0.000038  -0.000001   0.000000   0.000000   0.000000   0.000000
    33  H   -0.000013   0.000000   0.000000   0.000000   0.000000   0.000000
    34  H    0.000000   0.000000   0.000000   0.000000   0.000000   0.000000
    35  H    0.000012   0.000001   0.000000   0.000000   0.000000   0.000000
    36  H   -0.000157   0.000029   0.000000   0.000008   0.000000   0.014593
              19         20         21         22         23         24
     1  C    0.000000   0.387955   0.378209   0.387789  -0.036326  -0.038174
     2  C    0.000005  -0.033499  -0.026709  -0.036851   0.376212   0.380803
     3  C   -0.001211  -0.005740   0.004126  -0.005227  -0.032530  -0.031263
     4  C    0.000026   0.001623   0.000123  -0.001311   0.005235  -0.010569
     5  C    0.000000   0.000321  -0.000007   0.000102   0.000026   0.003222
     6  O    0.000000  -0.000012   0.000000  -0.000001  -0.000001   0.000210
     7  N    0.000090  -0.000021  -0.000106   0.000027  -0.003140  -0.003525
     8  C   -0.005569  -0.000003   0.000003   0.000004  -0.000351   0.000224
     9  C    0.003009   0.000000   0.000000   0.000000  -0.000025   0.000000
    10  C   -0.000027   0.000000   0.000000   0.000000   0.000156   0.000000
    11  C    0.002533   0.000000   0.000000   0.000000   0.001511  -0.000009
    12  C   -0.051303   0.000000  -0.000001   0.000013   0.001484   0.000024
    13  C    0.298115   0.000000   0.000000   0.000006   0.000032  -0.000001
    14  C   -0.045753   0.000000   0.000000   0.000000  -0.000016   0.000000
    15  H   -0.000023   0.000000   0.000000   0.000000   0.000000   0.000000
    16  H    0.000001   0.000000   0.000000   0.000000   0.000005   0.000000
    17  H   -0.000490   0.000000   0.000000   0.000000   0.000000   0.000000
    18  F    0.000000   0.000000   0.000000   0.000000  -0.000026  -0.000006
    19  F    9.076849   0.000000   0.000000  -0.000003  -0.000001   0.000000
    20  H    0.000000   0.596006  -0.030240  -0.032378   0.005464  -0.006390
    21  H    0.000000  -0.030240   0.607913  -0.030813  -0.005750  -0.001914
    22  H   -0.000003  -0.032378  -0.030813   0.602645  -0.003996   0.005506
    23  H   -0.000001   0.005464  -0.005750  -0.003996   0.634266  -0.040436
    24  H    0.000000  -0.006390  -0.001914   0.005506  -0.040436   0.623505
    25  H   -0.000001   0.002622  -0.000035   0.000766   0.000091   0.000099
    26  H    0.000000  -0.000096   0.000000  -0.000001   0.000000  -0.000095
    27  H    0.000000   0.001194  -0.000028  -0.000007  -0.000036   0.000908
    28  H    0.000000   0.000005   0.000001   0.000000  -0.000032   0.000578
    29  H    0.000236   0.000000   0.000000   0.000000  -0.000006   0.000011
    30  H    0.010039   0.000000   0.000000  -0.000002   0.000011  -0.000016
    31  H    0.004176  -0.000228   0.000004   0.005572  -0.006458   0.006215
    32  C   -0.000150  -0.000021  -0.000002  -0.000047  -0.000144  -0.000002
    33  H   -0.000013   0.000001   0.000000   0.000000   0.000000  -0.000004
    34  H    0.000000   0.000007   0.000000   0.000000   0.000003   0.000001
    35  H    0.000513   0.000006   0.000000   0.000007  -0.000002   0.000002
    36  H   -0.000009   0.000015  -0.000026   0.000026   0.004334   0.002086
              25         26         27         28         29         30
     1  C    0.002195   0.000053  -0.000257  -0.000061   0.000004   0.000011
     2  C   -0.007427  -0.000071   0.003919   0.000171  -0.000282   0.000219
     3  C   -0.041124   0.005606  -0.013569  -0.002611   0.005319  -0.005650
     4  C    0.363136  -0.027741  -0.044630  -0.011422   0.000001  -0.000046
     5  C   -0.033380   0.377894   0.369630  -0.041335  -0.000008   0.000058
     6  O    0.003437  -0.042225  -0.046468   0.282196   0.000104   0.000010
     7  N    0.004748  -0.000275   0.000221   0.062553  -0.038950  -0.033229
     8  C   -0.000136   0.000008  -0.000040   0.000014   0.381061   0.383560
     9  C    0.000000   0.000000   0.000000   0.000000   0.000006  -0.000043
    10  C    0.000000   0.000000   0.000000   0.000000   0.000087  -0.000141
    11  C    0.000000   0.000000   0.000000   0.000003  -0.007246   0.004211
    12  C    0.000022   0.000000   0.000001   0.000389  -0.045366  -0.042346
    13  C    0.000001   0.000000   0.000000  -0.000004   0.002979  -0.004636
    14  C    0.000000   0.000000   0.000000   0.000000  -0.000264   0.000554
    15  H    0.000000   0.000000   0.000000   0.000000   0.000000   0.000000
    16  H    0.000000   0.000000   0.000000   0.000000   0.000001   0.000002
    17  H    0.000000   0.000000   0.000000   0.000000   0.000003  -0.000004
    18  F    0.000000   0.000000   0.000000  -0.000004   0.002025   0.000142
    19  F   -0.000001   0.000000   0.000000   0.000000   0.000236   0.010039
    20  H    0.002622  -0.000096   0.001194   0.000005   0.000000   0.000000
    21  H   -0.000035   0.000000  -0.000028   0.000001   0.000000   0.000000
    22  H    0.000766  -0.000001  -0.000007   0.000000   0.000000  -0.000002
    23  H    0.000091   0.000000  -0.000036  -0.000032  -0.000006   0.000011
    24  H    0.000099  -0.000095   0.000908   0.000578   0.000011  -0.000016
    25  H    0.660677  -0.003028   0.000560   0.000240   0.000006  -0.000071
    26  H   -0.003028   0.659250  -0.055629   0.005363   0.000000   0.000003
    27  H    0.000560  -0.055629   0.703761   0.000221   0.000000  -0.000006
    28  H    0.000240   0.005363   0.000221   0.379869  -0.000649  -0.000254
    29  H    0.000006   0.000000   0.000000  -0.000649   0.606063  -0.030203
    30  H   -0.000071   0.000003  -0.000006  -0.000254  -0.030203   0.574637
    31  H   -0.002025  -0.000182  -0.000038   0.000680   0.000365  -0.000739
    32  C   -0.040053  -0.010407   0.007116  -0.000144  -0.000082   0.002289
    33  H    0.006011  -0.000976   0.000421   0.000972   0.000230   0.000907
    34  H   -0.005370   0.004697  -0.000108  -0.000028  -0.000003  -0.000047
    35  H   -0.003416  -0.000105  -0.000153  -0.000055   0.000008   0.001541
    36  H   -0.000180   0.000015  -0.000105  -0.001940  -0.003099   0.005341
              31         32         33         34         35         36
     1  C   -0.005622  -0.000031  -0.000003   0.000005  -0.000018   0.000154
     2  C   -0.039969   0.005192  -0.000001  -0.000158   0.000063  -0.006526
     3  C    0.384625  -0.045715  -0.008975   0.004563  -0.005205  -0.041684
     4  C   -0.056060   0.353058  -0.031508  -0.028244  -0.032671   0.003906
     5  C    0.004600  -0.051399  -0.007928  -0.003086   0.004903   0.000342
     6  O   -0.000199  -0.002138   0.011008  -0.000428   0.000189   0.000577
     7  N   -0.052192  -0.002774   0.004943  -0.000082  -0.000113   0.334584
     8  C   -0.004666  -0.001146  -0.001398   0.000078  -0.000691  -0.034823
     9  C   -0.000029   0.000000   0.000000   0.000000   0.000000  -0.000036
    10  C   -0.000004   0.000000   0.000000   0.000000   0.000000   0.000062
    11  C    0.000317  -0.000001   0.000000   0.000000   0.000000   0.002982
    12  C    0.001807   0.000266   0.000215  -0.000005  -0.000043  -0.013817
    13  C    0.001643  -0.000038  -0.000013   0.000000   0.000012  -0.000157
    14  C   -0.000035  -0.000001   0.000000   0.000000   0.000001   0.000029
    15  H    0.000000   0.000000   0.000000   0.000000   0.000000   0.000000
    16  H   -0.000001   0.000000   0.000000   0.000000   0.000000   0.000008
    17  H   -0.000009   0.000000   0.000000   0.000000   0.000000   0.000000
    18  F   -0.000003   0.000000   0.000000   0.000000   0.000000   0.014593
    19  F    0.004176  -0.000150  -0.000013   0.000000   0.000513  -0.000009
    20  H   -0.000228  -0.000021   0.000001   0.000007   0.000006   0.000015
    21  H    0.000004  -0.000002   0.000000   0.000000   0.000000  -0.000026
    22  H    0.005572  -0.000047   0.000000   0.000000   0.000007   0.000026
    23  H   -0.006458  -0.000144   0.000000   0.000003  -0.000002   0.004334
    24  H    0.006215  -0.000002  -0.000004   0.000001   0.000002   0.002086
    25  H   -0.002025  -0.040053   0.006011  -0.005370  -0.003416  -0.000180
    26  H   -0.000182  -0.010407  -0.000976   0.004697  -0.000105   0.000015
    27  H   -0.000038   0.007116   0.000421  -0.000108  -0.000153  -0.000105
    28  H    0.000680  -0.000144   0.000972  -0.000028  -0.000055  -0.001940
    29  H    0.000365  -0.000082   0.000230  -0.000003   0.000008  -0.003099
    30  H   -0.000739   0.002289   0.000907  -0.000047   0.001541   0.005341
    31  H    0.664566  -0.005956  -0.000215   0.000000   0.005537   0.003308
    32  C   -0.005956   4.980400   0.381923   0.376178   0.375616  -0.000074
    33  H   -0.000215   0.381923   0.593456  -0.030690  -0.033054  -0.000077
    34  H    0.000000   0.376178  -0.030690   0.613877  -0.030930   0.000007
    35  H    0.005537   0.375616  -0.033054  -0.030930   0.620854  -0.000021
    36  H    0.003308  -0.000074  -0.000077   0.000007  -0.000021   0.466813
 Mulliken charges:
               1
     1  C   -0.326966
     2  C   -0.209485
     3  C    0.086207
     4  C   -0.085115
     5  C    0.077769
     6  O   -0.604393
     7  N   -0.546566
     8  C   -0.123173
     9  C   -0.087761
    10  C   -0.147857
    11  C    0.324066
    12  C   -0.025943
    13  C    0.327906
    14  C   -0.148940
    15  H    0.119888
    16  H    0.114985
    17  H    0.114004
    18  F   -0.288049
    19  F   -0.291039
    20  H    0.113407
    21  H    0.105250
    22  H    0.108174
    23  H    0.100447
    24  H    0.109012
    25  H    0.091634
    26  H    0.087942
    27  H    0.073123
    28  H    0.325282
    29  H    0.127650
    30  H    0.133897
    31  H    0.091214
    32  C   -0.321714
    33  H    0.114769
    34  H    0.099764
    35  H    0.097224
    36  H    0.263390
 Sum of Mulliken charges =   0.00000
 Mulliken charges with hydrogens summed into heavy atoms:
               1
     1  C   -0.000135
     2  C   -0.000026
     3  C    0.177420
     4  C    0.006519
     5  C    0.238833
     6  O   -0.279111
     7  N   -0.283177
     8  C    0.138374
     9  C    0.032127
    10  C   -0.032872
    11  C    0.324066
    12  C   -0.025943
    13  C    0.327906
    14  C   -0.034936
    18  F   -0.288049
    19  F   -0.291039
    32  C   -0.009956
 Electronic spatial extent (au):  <R**2>=           4593.0489
 Charge=              0.0000 electrons
 Dipole moment (field-independent basis, Debye):
    X=              4.5161    Y=              0.4544    Z=              2.9611  Tot=              5.4194
 Quadrupole moment (field-independent basis, Debye-Ang):
   XX=           -102.4085   YY=           -101.8583   ZZ=           -103.3410
   XY=             -5.1569   XZ=             -6.1192   YZ=             -2.4808
 Traceless Quadrupole moment (field-independent basis, Debye-Ang):
   XX=              0.1275   YY=              0.6776   ZZ=             -0.8051
   XY=             -5.1569   XZ=             -6.1192   YZ=             -2.4808
 Octapole moment (field-independent basis, Debye-Ang**2):
  XXX=            101.9450  YYY=             -8.2161  ZZZ=            -13.8228  XYY=              9.9452
  XXY=             16.3507  XXZ=             52.9333  XZZ=             18.3150  YZZ=              3.7349
  YYZ=              2.2609  XYZ=             10.7100
 Hexadecapole moment (field-independent basis, Debye-Ang**3):
 XXXX=          -3900.5443 YYYY=           -959.6441 ZZZZ=           -968.2512 XXXY=            -95.2225
 XXXZ=            -32.0927 YYYX=              4.8905 YYYZ=             20.6933 ZZZX=            -22.7789
 ZZZY=             13.8763 XXYY=           -809.6167 XXZZ=           -892.0823 YYZZ=           -318.6310
 XXYZ=            -18.1953 YYXZ=              5.3986 ZZXY=             -1.6395
 N-N= 1.300864396254D+03 E-N=-4.555165958135D+03  KE= 8.291772957462D+02
 D1PCM: PCM CHGder 1st derivatives, ID1Alg=3 FixD1E=F DoIter=F DoCFld=F I1PDM=0.
 Calling FoFJK, ICntrl=      2127 FMM=F ISym2X=0 I1Cent= 0 IOpClX= 0 NMat=1 NMatS=1 NMatT=0.
 ***** Axes restored to original set *****
 -------------------------------------------------------------------
 Center     Atomic                   Forces (Hartrees/Bohr)
 Number     Number              X              Y              Z
 -------------------------------------------------------------------
      1        6          -0.004373250   -0.002583338   -0.001556608
      2        6           0.001948818   -0.003389286    0.001217119
      3        6          -0.016781757   -0.002839341   -0.007844610
      4        6           0.001703990    0.000211787    0.003527605
      5        6           0.005492343    0.006530079   -0.006363261
      6        8           0.001092469    0.006478396    0.003804557
      7        7           0.005188315    0.003592009    0.001866185
      8        6          -0.001217091    0.016416774    0.004000429
      9        6          -0.002422185    0.001786042    0.004734621
     10        6          -0.003161428    0.004904364   -0.006818806
     11        6           0.018292039   -0.019154963   -0.003587327
     12        6          -0.001223908    0.000222320    0.010233826
     13        6           0.004747367    0.000525210   -0.024047303
     14        6           0.004900657   -0.006230345    0.003687809
     15        1          -0.001225208    0.000878147    0.001407075
     16        1          -0.000875459    0.000774831    0.001167661
     17        1          -0.000895346    0.000703711    0.000940099
     18        9          -0.007122898    0.007409432    0.001626007
     19        9          -0.001822734   -0.000591342    0.008129159
     20        1           0.000416742   -0.001864262    0.000490807
     21        1          -0.000003591   -0.001267787    0.000542992
     22        1          -0.000220295   -0.001166691    0.000590352
     23        1           0.001778372    0.002973561    0.001796640
     24        1           0.000738425    0.002405360    0.001235674
     25        1          -0.000398457   -0.001010055   -0.002900154
     26        1           0.000285615   -0.001379699    0.001414801
     27        1          -0.003269927   -0.006779368   -0.002896366
     28        1          -0.000905625   -0.002699233    0.001203184
     29        1          -0.001617424    0.000539140   -0.000369027
     30        1          -0.002930149   -0.002734529   -0.004570339
     31        1           0.002233993    0.000963500    0.000730544
     32        6           0.002481238   -0.000638235    0.001476087
     33        1          -0.001268281   -0.000444929   -0.000893548
     34        1           0.000051377    0.000491086   -0.000082192
     35        1           0.000759463    0.000017078    0.000473986
     36        1          -0.000376210   -0.003049420    0.005632321
 -------------------------------------------------------------------
 Cartesian Forces:  Max     0.024047303 RMS     0.005207775

 GradGradGradGradGradGradGradGradGradGradGradGradGradGradGradGradGradGrad
 Berny optimization.
 FormGI is forming the generalized inverse of G from B-inverse, IUseBI=4.
 Internal  Forces:  Max     0.010843453 RMS     0.002834148
 Search for a local minimum.
 Step number   1 out of a maximum of   50
 All quantities printed in internal units (Hartrees-Bohrs-Radians)
 Mixed Optimization -- RFO/linear search
 Second derivative matrix not updated -- first step.
 ITU=  0
     Eigenvalues ---    0.00230   0.00230   0.00251   0.00293   0.00469
     Eigenvalues ---    0.00635   0.00720   0.00737   0.01403   0.01552
     Eigenvalues ---    0.02144   0.02151   0.02153   0.02160   0.02165
     Eigenvalues ---    0.02169   0.02170   0.02172   0.02662   0.03174
     Eigenvalues ---    0.03371   0.03811   0.04553   0.04666   0.04680
     Eigenvalues ---    0.04724   0.04790   0.05082   0.05327   0.05502
     Eigenvalues ---    0.05564   0.05589   0.05717   0.05828   0.06453
     Eigenvalues ---    0.08567   0.10310   0.11083   0.11766   0.12376
     Eigenvalues ---    0.13497   0.13974   0.16000   0.16000   0.16000
     Eigenvalues ---    0.16000   0.16000   0.16000   0.16000   0.16000
     Eigenvalues ---    0.16000   0.16000   0.16883   0.16980   0.17523
     Eigenvalues ---    0.17867   0.21924   0.21946   0.22001   0.22085
     Eigenvalues ---    0.23422   0.23491   0.24907   0.24998   0.24999
     Eigenvalues ---    0.25000   0.26761   0.27809   0.28612   0.28896
     Eigenvalues ---    0.30129   0.32014   0.33869   0.33932   0.33982
     Eigenvalues ---    0.34032   0.34081   0.34175   0.34175   0.34213
     Eigenvalues ---    0.34227   0.34248   0.34306   0.34326   0.34388
     Eigenvalues ---    0.34397   0.34586   0.35151   0.35263   0.35270
     Eigenvalues ---    0.35482   0.42182   0.42351   0.42495   0.43764
     Eigenvalues ---    0.46327   0.46490   0.46552   0.46659   0.50993
     Eigenvalues ---    0.56985   0.57047
 RFO step:  Lambda=-8.18181778D-03 EMin= 2.30000000D-03
 Linear search not attempted -- first point.
 Iteration  1 RMS(Cart)=  0.12932201 RMS(Int)=  0.00250847
 Iteration  2 RMS(Cart)=  0.00698044 RMS(Int)=  0.00019616
 Iteration  3 RMS(Cart)=  0.00001318 RMS(Int)=  0.00019604
 Iteration  4 RMS(Cart)=  0.00000000 RMS(Int)=  0.00019604
 Variable       Old X    -DE/DX   Delta X   Delta X   Delta X     New X
                                 (Linear)    (Quad)   (Total)
    R1        2.87707   0.00783   0.00000   0.02532   0.02532   2.90238
    R2        2.06665   0.00019   0.00000   0.00053   0.00053   2.06718
    R3        2.06913  -0.00006   0.00000  -0.00018  -0.00018   2.06895
    R4        2.06817   0.00070   0.00000   0.00198   0.00198   2.07015
    R5        2.92557  -0.00190   0.00000  -0.00663  -0.00663   2.91894
    R6        2.07552  -0.00030   0.00000  -0.00086  -0.00086   2.07466
    R7        2.07193   0.00060   0.00000   0.00171   0.00171   2.07364
    R8        2.94929  -0.00419   0.00000  -0.01521  -0.01521   2.93408
    R9        2.79653   0.00727   0.00000   0.02054   0.02054   2.81707
   R10        2.07445   0.00124   0.00000   0.00356   0.00356   2.07800
   R11        2.90820  -0.00094   0.00000  -0.00319  -0.00319   2.90501
   R12        2.07276   0.00066   0.00000   0.00190   0.00190   2.07467
   R13        2.90221   0.00181   0.00000   0.00611   0.00611   2.90832
   R14        2.68692   0.00332   0.00000   0.00771   0.00771   2.69464
   R15        2.06972   0.00122   0.00000   0.00349   0.00349   2.07321
   R16        2.06680   0.00580   0.00000   0.01647   0.01647   2.08327
   R17        1.85576  -0.00156   0.00000  -0.00302  -0.00302   1.85275
   R18        2.78199   0.00363   0.00000   0.00999   0.00999   2.79198
   R19        1.93438  -0.00599   0.00000  -0.01343  -0.01343   1.92095
   R20        2.84119   0.01084   0.00000   0.03303   0.03303   2.87422
   R21        2.07360   0.00025   0.00000   0.00071   0.00071   2.07431
   R22        2.07036  -0.00424   0.00000  -0.01210  -0.01210   2.05826
   R23        2.63351   0.00212   0.00000   0.00456   0.00453   2.63804
   R24        2.63393   0.00068   0.00000   0.00163   0.00159   2.63552
   R25        2.05430  -0.00206   0.00000  -0.00573  -0.00573   2.04857
   R26        2.63478  -0.00426   0.00000  -0.00908  -0.00907   2.62571
   R27        2.05239  -0.00081   0.00000  -0.00224  -0.00224   2.05015
   R28        2.63868  -0.00027   0.00000  -0.00078  -0.00074   2.63794
   R29        2.53409   0.00942   0.00000   0.01629   0.01629   2.55038
   R30        2.63766   0.00096   0.00000   0.00194   0.00197   2.63963
   R31        2.63549  -0.00257   0.00000  -0.00532  -0.00533   2.63016
   R32        2.53357   0.00777   0.00000   0.01343   0.01343   2.54699
   R33        2.05251  -0.00082   0.00000  -0.00226  -0.00226   2.05024
   R34        2.06784  -0.00081   0.00000  -0.00230  -0.00230   2.06554
   R35        2.07036  -0.00017   0.00000  -0.00048  -0.00048   2.06988
   R36        2.06949   0.00061   0.00000   0.00175   0.00175   2.07124
    A1        1.94803   0.00194   0.00000   0.01175   0.01169   1.95972
    A2        1.91900   0.00154   0.00000   0.01102   0.01095   1.92995
    A3        1.93930   0.00058   0.00000   0.00134   0.00134   1.94064
    A4        1.87358  -0.00126   0.00000  -0.00347  -0.00360   1.86998
    A5        1.89697  -0.00182   0.00000  -0.01423  -0.01422   1.88275
    A6        1.88466  -0.00117   0.00000  -0.00739  -0.00739   1.87727
    A7        1.98924   0.00467   0.00000   0.02259   0.02268   2.01192
    A8        1.87554   0.00123   0.00000   0.02309   0.02329   1.89883
    A9        1.90395  -0.00009   0.00000   0.00975   0.00995   1.91390
   A10        1.89809  -0.00370   0.00000  -0.02818  -0.02865   1.86944
   A11        1.93763  -0.00308   0.00000  -0.02570  -0.02599   1.91164
   A12        1.85345   0.00086   0.00000  -0.00188  -0.00263   1.85082
   A13        1.98035  -0.00008   0.00000   0.00789   0.00782   1.98818
   A14        1.88519   0.00322   0.00000   0.02749   0.02750   1.91269
   A15        1.85500  -0.00021   0.00000   0.00368   0.00387   1.85887
   A16        1.93927  -0.00192   0.00000  -0.00707  -0.00747   1.93180
   A17        1.87134   0.00009   0.00000  -0.01316  -0.01335   1.85799
   A18        1.93120  -0.00113   0.00000  -0.01987  -0.02009   1.91111
   A19        1.98788  -0.00219   0.00000  -0.01769  -0.01775   1.97013
   A20        1.88236  -0.00095   0.00000  -0.01962  -0.01967   1.86268
   A21        1.94787   0.00106   0.00000   0.00493   0.00501   1.95288
   A22        1.86960   0.00082   0.00000   0.00685   0.00644   1.87604
   A23        1.92027   0.00087   0.00000   0.00811   0.00807   1.92834
   A24        1.84837   0.00053   0.00000   0.01961   0.01957   1.86793
   A25        1.96000   0.00108   0.00000   0.00904   0.00891   1.96891
   A26        1.92383  -0.00161   0.00000  -0.02488  -0.02519   1.89863
   A27        1.94355  -0.00389   0.00000  -0.02029  -0.02094   1.92262
   A28        1.87590  -0.00072   0.00000  -0.01062  -0.01060   1.86530
[...]
    31  H   -0.004888  -0.040604   0.383534  -0.059513   0.004983  -0.000241
    32  C   -0.000002   0.005044  -0.043768   0.355584  -0.049609  -0.005964
    33  H   -0.000003  -0.000052  -0.007438  -0.034073  -0.009925   0.015349
    34  H    0.000005  -0.000157   0.004406  -0.027743  -0.002049  -0.000202
    35  H   -0.000013   0.000103  -0.005718  -0.031555   0.004533   0.000179
    36  H    0.000114  -0.007031  -0.042911   0.004855   0.000177   0.000518
               7          8          9         10         11         12
     1  C    0.003668  -0.000152   0.000000   0.000000  -0.000001  -0.000002
     2  C   -0.041017   0.002975   0.000003  -0.000016  -0.000103   0.000570
     3  C    0.255151  -0.035073   0.000005   0.000003  -0.000612  -0.005386
     4  C   -0.062079  -0.000168   0.000000   0.000000   0.000011  -0.000508
     5  C   -0.001459   0.000074   0.000000   0.000000   0.000000  -0.000008
     6  O   -0.029342   0.000265   0.000000   0.000000   0.000000  -0.000009
     7  N    6.922303   0.299684   0.000004  -0.000002  -0.002172  -0.057821
     8  C    0.299684   4.919937  -0.000610   0.007487  -0.053281   0.290320
     9  C    0.000004  -0.000610   4.859930   0.485951  -0.006669  -0.026932
    10  C   -0.000002   0.007487   0.485951   5.032384   0.489733  -0.080918
    11  C   -0.002172  -0.053281  -0.006669   0.489733   4.617306   0.389614
    12  C   -0.057821   0.290320  -0.026932  -0.080918   0.389614   5.357029
    13  C   -0.000161  -0.044837  -0.006641  -0.045872   0.018769   0.417260
    14  C   -0.000076   0.006729   0.488455  -0.039115  -0.043316  -0.077164
    15  H    0.000000   0.000005   0.374058  -0.034550   0.003534   0.000438
    16  H    0.000006  -0.000121  -0.036081   0.361789  -0.032725   0.006263
    17  H    0.000002  -0.000107  -0.036257   0.004507   0.000277   0.006223
    18  F   -0.004091   0.005386   0.002770  -0.045220   0.296032  -0.059194
    19  F    0.000005  -0.005654   0.002898   0.000037   0.002699  -0.049499
    20  H   -0.000020  -0.000001   0.000000   0.000000   0.000000   0.000000
    21  H   -0.000085   0.000002   0.000000   0.000000   0.000000   0.000000
    22  H    0.000014   0.000003   0.000000   0.000000   0.000000   0.000001
    23  H   -0.004056   0.000053  -0.000010   0.000028   0.000898   0.000431
    24  H   -0.002397   0.000075   0.000000   0.000000  -0.000012   0.000028
    25  H    0.004935  -0.000166   0.000000   0.000000   0.000000   0.000028
    26  H   -0.000254   0.000000   0.000000   0.000000   0.000000   0.000000
    27  H    0.000468  -0.000011   0.000000   0.000000   0.000000   0.000003
    28  H    0.061346  -0.000885   0.000000   0.000000  -0.000003   0.000492
    29  H   -0.036273   0.380865   0.000008   0.000043  -0.006860  -0.039717
    30  H   -0.037535   0.381233  -0.000039  -0.000132   0.004923  -0.046353
    31  H   -0.053873  -0.007689  -0.000027  -0.000048   0.000395   0.007191
    32  C   -0.001137  -0.001928   0.000000   0.000000  -0.000003   0.000246
    33  H    0.003651  -0.002377   0.000000   0.000000  -0.000002   0.000300
    34  H   -0.000100   0.000114   0.000000   0.000000   0.000000  -0.000007
    35  H   -0.000256  -0.000374  -0.000001   0.000000  -0.000002  -0.000377
    36  H    0.334037  -0.032826  -0.000023   0.000112   0.003835  -0.012014
              13         14         15         16         17         18
     1  C    0.000001   0.000000   0.000000   0.000000   0.000000   0.000000
     2  C   -0.000001  -0.000001   0.000000   0.000000   0.000000  -0.000159
     3  C   -0.000676  -0.000066   0.000000   0.000000   0.000000   0.000035
     4  C    0.000034   0.000001   0.000000   0.000000   0.000000  -0.000001
     5  C   -0.000002   0.000000   0.000000   0.000000   0.000000   0.000000
     6  O    0.000000   0.000000   0.000000   0.000000   0.000000   0.000000
     7  N   -0.000161  -0.000076   0.000000   0.000006   0.000002  -0.004091
     8  C   -0.044837   0.006729   0.000005  -0.000121  -0.000107   0.005386
     9  C   -0.006641   0.488455   0.374058  -0.036081  -0.036257   0.002770
    10  C   -0.045872  -0.039115  -0.034550   0.361789   0.004507  -0.045220
    11  C    0.018769  -0.043316   0.003534  -0.032725   0.000277   0.296032
    12  C    0.417260  -0.077164   0.000438   0.006263   0.006223  -0.059194
    13  C    4.597223   0.484195   0.003559   0.000329  -0.032289   0.002469
    14  C    0.484195   5.028350  -0.033750   0.004375   0.362056   0.000002
    15  H    0.003559  -0.033750   0.578271  -0.005617  -0.005642  -0.000024
    16  H    0.000329   0.004375  -0.005617   0.583190  -0.000127  -0.000364
    17  H   -0.032289   0.362056  -0.005642  -0.000127   0.582916   0.000001
    18  F    0.002469   0.000002  -0.000024  -0.000364   0.000001   9.089319
    19  F    0.284883  -0.043621  -0.000025   0.000001  -0.000483  -0.000001
    20  H    0.000000   0.000000   0.000000   0.000000   0.000000   0.000000
    21  H    0.000000   0.000000   0.000000   0.000000   0.000000   0.000000
    22  H   -0.000002  -0.000001   0.000000   0.000000   0.000000   0.000000
    23  H   -0.000001  -0.000003   0.000000   0.000003   0.000000   0.000126
    24  H   -0.000001   0.000000   0.000000   0.000000   0.000000  -0.000001
    25  H    0.000002   0.000000   0.000000   0.000000   0.000000   0.000000
    26  H    0.000000   0.000000   0.000000   0.000000   0.000000   0.000000
    27  H    0.000000   0.000000   0.000000   0.000000   0.000000   0.000000
    28  H   -0.000004   0.000000   0.000000   0.000000   0.000000   0.000000
    29  H    0.003003  -0.000201   0.000000   0.000000   0.000002   0.002599
    30  H   -0.004939   0.000383   0.000000   0.000002  -0.000002   0.000196
    31  H    0.002379  -0.000124   0.000000  -0.000002  -0.000014   0.000003
    32  C    0.000066  -0.000004   0.000000   0.000000   0.000000   0.000000
    33  H   -0.000036  -0.000001   0.000000   0.000000   0.000000   0.000000
    34  H   -0.000001   0.000000   0.000000   0.000000   0.000000   0.000000
    35  H    0.000125   0.000019   0.000000   0.000000   0.000001   0.000000
    36  H   -0.000328   0.000022   0.000000   0.000004   0.000000   0.011041
              19         20         21         22         23         24
     1  C    0.000000   0.387669   0.379340   0.386890  -0.034397  -0.037138
     2  C    0.000005  -0.032420  -0.026284  -0.035873   0.374786   0.380012
     3  C   -0.000467  -0.005261   0.003868  -0.004835  -0.033326  -0.034797
     4  C    0.000008   0.001081   0.000158  -0.001189   0.005488  -0.010642
     5  C    0.000000   0.000289  -0.000009   0.000089   0.000031   0.003141
     6  O    0.000000  -0.000007   0.000000   0.000000   0.000002  -0.000003
     7  N    0.000005  -0.000020  -0.000085   0.000014  -0.004056  -0.002397
     8  C   -0.005654  -0.000001   0.000002   0.000003   0.000053   0.000075
     9  C    0.002898   0.000000   0.000000   0.000000  -0.000010   0.000000
    10  C    0.000037   0.000000   0.000000   0.000000   0.000028   0.000000
    11  C    0.002699   0.000000   0.000000   0.000000   0.000898  -0.000012
    12  C   -0.049499   0.000000   0.000000   0.000001   0.000431   0.000028
    13  C    0.284883   0.000000   0.000000  -0.000002  -0.000001  -0.000001
    14  C   -0.043621   0.000000   0.000000  -0.000001  -0.000003   0.000000
    15  H   -0.000025   0.000000   0.000000   0.000000   0.000000   0.000000
    16  H    0.000001   0.000000   0.000000   0.000000   0.000003   0.000000
    17  H   -0.000483   0.000000   0.000000   0.000000   0.000000   0.000000
    18  F   -0.000001   0.000000   0.000000   0.000000   0.000126  -0.000001
    19  F    9.091789   0.000000   0.000000   0.000000   0.000000   0.000000
    20  H    0.000000   0.594244  -0.030164  -0.033298   0.005085  -0.005712
    21  H    0.000000  -0.030164   0.603315  -0.030934  -0.005183  -0.001909
    22  H    0.000000  -0.033298  -0.030934   0.602145  -0.003938   0.005303
    23  H    0.000000   0.005085  -0.005183  -0.003938   0.634110  -0.040530
    24  H    0.000000  -0.005712  -0.001909   0.005303  -0.040530   0.624960
    25  H   -0.000002   0.003085  -0.000055   0.000741   0.000136   0.000133
    26  H    0.000000  -0.000069   0.000000  -0.000001   0.000001  -0.000141
    27  H    0.000000   0.000942  -0.000024  -0.000010  -0.000047   0.001690
    28  H    0.000000   0.000004   0.000001   0.000000  -0.000044   0.000642
    29  H    0.000194   0.000000   0.000000   0.000000  -0.000013   0.000010
    30  H    0.009914   0.000000   0.000000  -0.000001   0.000007  -0.000018
    31  H    0.001787  -0.000206  -0.000013   0.005332  -0.007435   0.006737
    32  C   -0.001790  -0.000031  -0.000002  -0.000049  -0.000150  -0.000008
    33  H   -0.000149   0.000001   0.000000   0.000000   0.000002  -0.000003
    34  H    0.000008   0.000008   0.000000   0.000000   0.000003   0.000001
    35  H    0.007077   0.000004   0.000000   0.000005  -0.000005   0.000003
    36  H   -0.000009   0.000017  -0.000026   0.000020   0.006514   0.001290
              25         26         27         28         29         30
     1  C    0.002372   0.000038  -0.000135  -0.000035   0.000003   0.000009
     2  C   -0.008729  -0.000011   0.003117  -0.000156  -0.000236   0.000053
     3  C   -0.043643   0.005617  -0.013368  -0.001649   0.004929  -0.004054
     4  C    0.363439  -0.030779  -0.047588  -0.011332  -0.000057   0.000651
     5  C   -0.032858   0.378987   0.365791  -0.040708  -0.000020   0.000065
     6  O    0.003364  -0.041344  -0.041403   0.280583   0.000075   0.000137
     7  N    0.004935  -0.000254   0.000468   0.061346  -0.036273  -0.037535
     8  C   -0.000166   0.000000  -0.000011  -0.000885   0.380865   0.381233
     9  C    0.000000   0.000000   0.000000   0.000000   0.000008  -0.000039
    10  C    0.000000   0.000000   0.000000   0.000000   0.000043  -0.000132
    11  C    0.000000   0.000000   0.000000  -0.000003  -0.006860   0.004923
    12  C    0.000028   0.000000   0.000003   0.000492  -0.039717  -0.046353
    13  C    0.000002   0.000000   0.000000  -0.000004   0.003003  -0.004939
    14  C    0.000000   0.000000   0.000000   0.000000  -0.000201   0.000383
    15  H    0.000000   0.000000   0.000000   0.000000   0.000000   0.000000
    16  H    0.000000   0.000000   0.000000   0.000000   0.000000   0.000002
    17  H    0.000000   0.000000   0.000000   0.000000   0.000002  -0.000002
    18  F    0.000000   0.000000   0.000000   0.000000   0.002599   0.000196
    19  F   -0.000002   0.000000   0.000000   0.000000   0.000194   0.009914
    20  H    0.003085  -0.000069   0.000942   0.000004   0.000000   0.000000
    21  H   -0.000055   0.000000  -0.000024   0.000001   0.000000   0.000000
    22  H    0.000741  -0.000001  -0.000010   0.000000   0.000000  -0.000001
    23  H    0.000136   0.000001  -0.000047  -0.000044  -0.000013   0.000007
    24  H    0.000133  -0.000141   0.001690   0.000642   0.000010  -0.000018
    25  H    0.661488  -0.003162   0.000988   0.000153   0.000006  -0.000050
    26  H   -0.003162   0.656921  -0.053547   0.005966   0.000000   0.000009
    27  H    0.000988  -0.053547   0.706489  -0.001619   0.000000  -0.000013
    28  H    0.000153   0.005966  -0.001619   0.382186  -0.000438  -0.000715
    29  H    0.000006   0.000000   0.000000  -0.000438   0.593113  -0.027544
    30  H   -0.000050   0.000009  -0.000013  -0.000715  -0.027544   0.581725
    31  H   -0.001383  -0.000201  -0.000025   0.000795   0.000313  -0.001470
    32  C   -0.038715  -0.008659   0.006675   0.000021  -0.000023   0.002690
    33  H    0.006001  -0.001109   0.000630   0.000051   0.000175   0.002069
    34  H   -0.006765   0.004024  -0.000108  -0.000027  -0.000003  -0.000005
    35  H   -0.001879  -0.000090  -0.000157  -0.000043   0.000019   0.000599
    36  H   -0.000193   0.000014  -0.000075  -0.001285  -0.005539   0.005860
              31         32         33         34         35         36
     1  C   -0.004888  -0.000002  -0.000003   0.000005  -0.000013   0.000114
     2  C   -0.040604   0.005044  -0.000052  -0.000157   0.000103  -0.007031
     3  C    0.383534  -0.043768  -0.007438   0.004406  -0.005718  -0.042911
     4  C   -0.059513   0.355584  -0.034073  -0.027743  -0.031555   0.004855
     5  C    0.004983  -0.049609  -0.009925  -0.002049   0.004533   0.000177
     6  O   -0.000241  -0.005964   0.015349  -0.000202   0.000179   0.000518
     7  N   -0.053873  -0.001137   0.003651  -0.000100  -0.000256   0.334037
     8  C   -0.007689  -0.001928  -0.002377   0.000114  -0.000374  -0.032826
     9  C   -0.000027   0.000000   0.000000   0.000000  -0.000001  -0.000023
    10  C   -0.000048   0.000000   0.000000   0.000000   0.000000   0.000112
    11  C    0.000395  -0.000003  -0.000002   0.000000  -0.000002   0.003835
    12  C    0.007191   0.000246   0.000300  -0.000007  -0.000377  -0.012014
    13  C    0.002379   0.000066  -0.000036  -0.000001   0.000125  -0.000328
    14  C   -0.000124  -0.000004  -0.000001   0.000000   0.000019   0.000022
    15  H    0.000000   0.000000   0.000000   0.000000   0.000000   0.000000
    16  H   -0.000002   0.000000   0.000000   0.000000   0.000000   0.000004
    17  H   -0.000014   0.000000   0.000000   0.000000   0.000001   0.000000
    18  F    0.000003   0.000000   0.000000   0.000000   0.000000   0.011041
    19  F    0.001787  -0.001790  -0.000149   0.000008   0.007077  -0.000009
    20  H   -0.000206  -0.000031   0.000001   0.000008   0.000004   0.000017
    21  H   -0.000013  -0.000002   0.000000   0.000000   0.000000  -0.000026
    22  H    0.005332  -0.000049   0.000000   0.000000   0.000005   0.000020
    23  H   -0.007435  -0.000150   0.000002   0.000003  -0.000005   0.006514
    24  H    0.006737  -0.000008  -0.000003   0.000001   0.000003   0.001290
    25  H   -0.001383  -0.038715   0.006001  -0.006765  -0.001879  -0.000193
    26  H   -0.000201  -0.008659  -0.001109   0.004024  -0.000090   0.000014
    27  H   -0.000025   0.006675   0.000630  -0.000108  -0.000157  -0.000075
    28  H    0.000795   0.000021   0.000051  -0.000027  -0.000043  -0.001285
    29  H    0.000313  -0.000023   0.000175  -0.000003   0.000019  -0.005539
    30  H   -0.001470   0.002690   0.002069  -0.000005   0.000599   0.005860
    31  H    0.677550  -0.006911  -0.000218   0.000016   0.005824   0.002536
    32  C   -0.006911   4.992421   0.379719   0.373961   0.371152  -0.000159
    33  H   -0.000218   0.379719   0.595672  -0.030277  -0.033228  -0.000048
    34  H    0.000016   0.373961  -0.030277   0.615393  -0.029599   0.000007
    35  H    0.005824   0.371152  -0.033228  -0.029599   0.614128  -0.000029
    36  H    0.002536  -0.000159  -0.000048   0.000007  -0.000029   0.470762
 Mulliken charges:
               1
     1  C   -0.328219
     2  C   -0.209263
     3  C    0.086150
     4  C   -0.080217
     5  C    0.071311
     6  O   -0.596668
     7  N   -0.551067
     8  C   -0.108945
     9  C   -0.100793
    10  C   -0.136202
    11  C    0.317737
    12  C   -0.020531
    13  C    0.321494
    14  C   -0.137145
    15  H    0.119743
    16  H    0.119075
    17  H    0.118937
    18  F   -0.300923
    19  F   -0.299605
    20  H    0.114762
    21  H    0.108004
    22  H    0.109587
    23  H    0.101436
    24  H    0.109288
    25  H    0.090731
    26  H    0.087791
    27  H    0.071337
    28  H    0.326703
    29  H    0.131566
    30  H    0.132343
    31  H    0.085510
    32  C   -0.328663
    33  H    0.115317
    34  H    0.099098
    35  H    0.099557
    36  H    0.260763
 Sum of Mulliken charges =   0.00000
 Mulliken charges with hydrogens summed into heavy atoms:
               1
     1  C    0.004134
     2  C    0.001461
     3  C    0.171660
     4  C    0.010513
     5  C    0.230439
     6  O   -0.269965
     7  N   -0.290304
     8  C    0.154964
     9  C    0.018950
    10  C   -0.017126
    11  C    0.317737
    12  C   -0.020531
    13  C    0.321494
    14  C   -0.018208
    18  F   -0.300923
    19  F   -0.299605
    32  C   -0.014690
 Electronic spatial extent (au):  <R**2>=           4541.6571
 Charge=              0.0000 electrons
 Dipole moment (field-independent basis, Debye):
    X=              4.4914    Y=             -1.3876    Z=              2.9855  Tot=              5.5688
 Quadrupole moment (field-independent basis, Debye-Ang):
   XX=           -101.8758   YY=           -100.6563   ZZ=           -103.9419
   XY=              0.8935   XZ=             -6.7304   YZ=              0.1873
 Traceless Quadrupole moment (field-independent basis, Debye-Ang):
   XX=              0.2822   YY=              1.5017   ZZ=             -1.7839
   XY=              0.8935   XZ=             -6.7304   YZ=              0.1873
 Octapole moment (field-independent basis, Debye-Ang**2):
  XXX=            101.8497  YYY=             -7.3427  ZZZ=             -8.4653  XYY=              2.8608
  XXY=             -9.8497  XXZ=             57.0290  XZZ=             24.0694  YZZ=              4.0647
  YYZ=             -3.2397  XYZ=             -0.0224
 Hexadecapole moment (field-independent basis, Debye-Ang**3):
 XXXX=          -3788.1561 YYYY=          -1083.4792 ZZZZ=           -901.5352 XXXY=            -47.7696
 XXXZ=            -56.9348 YYYX=             -6.4075 YYYZ=             28.4184 ZZZX=            -22.6797
 ZZZY=             37.1757 XXYY=           -796.3414 XXZZ=           -861.3556 YYZZ=           -326.0216
 XXYZ=             40.2035 YYXZ=              7.9059 ZZXY=             21.6027
 N-N= 1.302270311771D+03 E-N=-4.558039944136D+03  KE= 8.290829231077D+02
 1\1\GINC-SWANNODE-0-6\FOpt\RB3LYP\6-31G(d,p)\C13H19F2N1O1\ROOT\06-Mar-
 2019\0\\# b3lyp/6-31g(d,p) Opt=(maxcycles=50) scrf=(solvent=chloroform
 )\\AT3_1ginp015\\0,1\C,-1.2913149409,-0.6250876453,0.9674080715\C,-0.8
 243035178,0.8291942395,0.8543829893\C,0.1234615204,1.3056045041,1.9737
 471218\C,-0.4710166265,1.1747184788,3.4038498318\C,-1.6851188458,2.097
 1362567,3.629174719\O,-1.3427006875,3.4771681369,3.62160948\N,0.518595
 8357,2.7141754358,1.6798012347\C,1.9426658529,3.048338845,1.8634911504
 \C,4.7034499003,0.8796514239,-0.7018928168\C,3.8405255991,1.8315141624
 ,-1.2504466433\C,2.973201861,2.497380064,-0.3964167023\C,2.9110663533,
 2.2777299172,0.9817153074\C,3.7917742646,1.310984362,1.4685333892\C,4.
 6852516189,0.6092095803,0.6662590851\H,5.3921772318,0.3439469133,-1.34
 65515735\H,3.8334917062,2.0585962668,-2.3101420543\H,5.3422854901,-0.1
 270717495,1.1144622322\F,2.1228232222,3.4191141659,-0.9165831351\F,3.7
 753824204,1.0421604632,2.7974253587\H,-1.9549498198,-0.782598709,1.822
 6942625\H,-1.8421700772,-0.9191415242,0.068649079\H,-0.4406475713,-1.3
 076591483,1.0739258124\H,-0.2895843955,0.9525402246,-0.0967636267\H,-1
 .6949194632,1.4957752171,0.8022263323\H,-0.8343312375,0.1425401436,3.4
 932158691\H,-2.1277316087,1.8771529578,4.609028509\H,-2.463105579,1.87
 89849511,2.8783593581\H,-0.6990554043,3.5582712544,2.8837319039\H,2.05
 14736092,4.1173000353,1.6562283381\H,2.2148287631,2.8924273473,2.90641
 32662\H,1.0133476403,0.6575421833,1.9325781917\C,0.5782661519,1.386426
 9895,4.5072756335\H,0.8337409283,2.4447893052,4.6050334093\H,0.1846479
 234,1.0584724709,5.4754738239\H,1.4961782893,0.8248783616,4.3062423452
 \H,0.2763805926,2.9304091187,0.715912447\\Version=EM64L-G09RevD.01\Sta
 te=1-A\HF=-836.4996754\RMSD=5.031e-09\RMSF=5.073e-06\Dipole=1.1530146,
 -1.1750329,-1.4456819\Quadrupole=1.3333999,-1.4357755,0.1023756,4.0327
 714,0.7007463,-2.8888164\PG=C01 [X(C13H19F2N1O1)]\\@


 SOME PHYSICISTS WOULD PREFER TO COME BACK TO THE IDEA OF AN OBJECTIVE
 REAL WORLD WHOSE SMALLEST PARTS EXIST OBJECTIVELY IN THE SAME SENSE AS
 STONES OR TREES EXIST INDEPENDENTLY OF WHETHER WE OBSERVE THEM.
 THIS, HOWEVER, IS IMPOSSIBLE.  -- WERNER HEISENBERG
 Job cpu time:       0 days  4 hours 16 minutes 26.0 seconds.
 File lengths (MBytes):  RWF=    272 Int=      0 D2E=      0 Chk=     13 Scr=      1
 Normal termination of Gaussian 09 at Wed Mar  6 13:01:10 2019.
