 Entering Gaussian System, Link 0=/usr/local/shared/gaussian/em64t/09-D01/g09/g09
 Initial command:
 /usr/local/shared/gaussian/em64t/09-D01/g09/l1.exe "/scratch/ke291/AT3_2ginp005/Gau-13690.inp" -scrdir="/scratch/ke291/AT3_2ginp005/"
 Entering Link 1 = /usr/local/shared/gaussian/em64t/09-D01/g09/l1.exe PID=     13711.
  
 Copyright (c) 1988,1990,1992,1993,1995,1998,2003,2009,2013,
            Gaussian, Inc.  All Rights Reserved.
  
 This is part of the Gaussian(R) 09 program.  It is based on
 the Gaussian(R) 03 system (copyright 2003, Gaussian, Inc.),
 the Gaussian(R) 98 system (copyright 1998, Gaussian, Inc.),
 the Gaussian(R) 94 system (copyright 1995, Gaussian, Inc.),
 the Gaussian 92(TM) system (copyright 1992, Gaussian, Inc.),
 the Gaussian 90(TM) system (copyright 1990, Gaussian, Inc.),
 the Gaussian 88(TM) system (copyright 1988, Gaussian, Inc.),
 the Gaussian 86(TM) system (copyright 1986, Carnegie Mellon
 University), and the Gaussian 82(TM) system (copyright 1983,
 Carnegie Mellon University). Gaussian is a federally registered
 trademark of Gaussian, Inc.
  
 This software contains proprietary and confidential information,
 including trade secrets, belonging to Gaussian, Inc.
  
 This software is provided under written license and may be
 used, copied, transmitted, or stored only in accord with that
 written license.
  
 The following legend is applicable only to US Government
 contracts under FAR:
  
                    RESTRICTED RIGHTS LEGEND
  
 Use, reproduction and disclosure by the US Government is
 subject to restrictions as set forth in subparagraphs (a)
 and (c) of the Commercial Computer Software - Restricted
 Rights clause in FAR 52.227-19.
  
 Gaussian, Inc.
 340 Quinnipiac St., Bldg. 40, Wallingford CT 06492
  
  
 ---------------------------------------------------------------
 Warning -- This program may not be used in any manner that
 competes with the business of Gaussian, Inc. or will provide
 assistance to any competitor of Gaussian, Inc.  The licensee
 of this program is prohibited from giving any competitor of
 Gaussian, Inc. access to this program.  By using this program,
 the user acknowledges that Gaussian, Inc. is engaged in the
 business of creating and licensing software in the field of
 computational chemistry and represents and warrants to the
 licensee that it is not a competitor of Gaussian, Inc. and that
 it will not use this program in any manner prohibited above.
 ---------------------------------------------------------------
  

 Cite this work as:
 Gaussian 09, Revision D.01,
 M. J. Frisch, G. W. Trucks, H. B. Schlegel, G. E. Scuseria, 
 M. A. Robb, J. R. Cheeseman, G. Scalmani, V. Barone, B. Mennucci, 
 G. A. Petersson, H. Nakatsuji, M. Caricato, X. Li, H. P. Hratchian, 
 A. F. Izmaylov, J. Bloino, G. Zheng, J. L. Sonnenberg, M. Hada, 
 M. Ehara, K. Toyota, R. Fukuda, J. Hasegawa, M. Ishida, T. Nakajima, 
 Y. Honda, O. Kitao, H. Nakai, T. Vreven, J. A. Montgomery, Jr., 
 J. E. Peralta, F. Ogliaro, M. Bearpark, J. J. Heyd, E. Brothers, 
 K. N. Kudin, V. N. Staroverov, T. Keith, R. Kobayashi, J. Normand, 
 K. Raghavachari, A. Rendell, J. C. Burant, S. S. Iyengar, J. Tomasi, 
 M. Cossi, N. Rega, J. M. Millam, M. Klene, J. E. Knox, J. B. Cross, 
 V. Bakken, C. Adamo, J. Jaramillo, R. Gomperts, R. E. Stratmann, 
 O. Yazyev, A. J. Austin, R. Cammi, C. Pomelli, J. W. Ochterski, 
 R. L. Martin, K. Morokuma, V. G. Zakrzewski, G. A. Voth, 
 P. Salvador, J. J. Dannenberg, S. Dapprich, A. D. Daniels, 
 O. Farkas, J. B. Foresman, J. V. Ortiz, J. Cioslowski, 
 and D. J. Fox, Gaussian, Inc., Wallingford CT, 2013.
 
 ******************************************
 Gaussian 09:  EM64L-G09RevD.01 24-Apr-2013
                 6-Mar-2019 
 ******************************************
 %nprocshared=2
 Will use up to    2 processors via shared memory.
 %mem=6000MB
 %chk=AT3_2ginp005.chk
 ---------------------------------------------------------------
 # b3lyp/6-31g(d,p) Opt=(maxcycles=50) scrf=(solvent=chloroform)
 ---------------------------------------------------------------
 1/6=50,14=-1,18=20,19=15,26=3,38=1/1,3;
 2/9=110,12=2,17=6,18=5,40=1/2;
 3/5=1,6=6,7=101,11=2,16=1,25=1,30=1,70=2201,71=1,72=7,74=-5/1,2,3;
 4//1;
 5/5=2,38=5,53=7/2;
 6/7=2,8=2,9=2,10=2,28=1/1;
 7//1,2,3,16;
 1/6=50,14=-1,18=20,19=15,26=3/3(2);
 2/9=110/2;
 99//99;
 2/9=110/2;
 3/5=1,6=6,7=101,11=2,16=1,25=1,30=1,70=2205,71=1,72=7,74=-5/1,2,3;
 4/5=5,16=3,69=1/1;
 5/5=2,38=5,53=7/2;
 7//1,2,3,16;
 1/6=50,14=-1,18=20,19=15,26=3/3(-5);
 2/9=110/2;
 6/7=2,8=2,9=2,10=2,19=2,28=1/1;
 99/9=1/99;
 ------------
 AT3_2ginp005
 ------------
 Symbolic Z-matrix:
 Charge =  0 Multiplicity = 1
 C                    -2.46342  -1.86768  -0.60579 
 C                    -2.04432  -0.89178   0.48491 
 C                    -2.76584  -1.10032   1.83772 
 C                    -2.10863  -0.22838   2.95547 
 C                    -2.72438  -0.51884   4.33747 
 O                    -4.04599  -0.00899   4.45303 
 N                    -4.20882  -0.80775   1.74824 
 C                    -5.02805  -2.02317   1.65879 
 C                    -9.22525  -1.02266   1.45395 
 C                    -8.68337  -1.53389   2.63231 
 C                    -7.32819  -1.8583    2.69074 
 C                    -6.48875  -1.68348   1.58999 
 C                    -7.05181  -1.17073   0.41954 
 C                    -8.40437  -0.84132   0.34225 
 H                    -10.28025  -0.76583   1.40379 
 H                    -9.30543  -1.68189   3.51024 
 H                    -8.80664  -0.44263  -0.58422 
 F                    -6.83925  -2.35879   3.83413 
 F                    -6.28102  -0.98344  -0.66223 
 H                    -1.82018  -1.7458   -1.48346 
 H                    -2.37541  -2.90363  -0.26431 
 H                    -3.49291  -1.68865  -0.92877 
 H                    -0.96373  -1.00228   0.64002 
 H                    -2.20515   0.12679   0.11232 
 H                    -1.05271  -0.52623   3.01635 
 H                    -2.12236  -0.05472   5.12567 
 H                    -2.75125  -1.5958    4.5343 
 H                    -4.48318  -0.20895   3.59722 
 H                    -4.76592  -2.62273   0.78029 
 H                    -4.84154  -2.65788   2.53378 
 H                    -2.6136   -2.14717   2.1359 
 C                    -2.14184   1.27846   2.6647 
 H                    -3.15991   1.64561   2.50153 
 H                    -1.71457   1.83969   3.50312 
 H                    -1.54663   1.5247    1.78029 
 H                    -4.39056  -0.23256   0.92236 
 

 GradGradGradGradGradGradGradGradGradGradGradGradGradGradGradGradGradGrad
 Berny optimization.
 Initialization pass.
                           ----------------------------
                           !    Initial Parameters    !
                           ! (Angstroms and Degrees)  !
 --------------------------                            --------------------------
 ! Name  Definition              Value          Derivative Info.                !
 --------------------------------------------------------------------------------
 ! R1    R(1,2)                  1.5224         estimate D2E/DX2                !
 ! R2    R(1,20)                 1.0949         estimate D2E/DX2                !
 ! R3    R(1,21)                 1.0943         estimate D2E/DX2                !
 ! R4    R(1,22)                 1.0937         estimate D2E/DX2                !
 ! R5    R(2,3)                  1.5473         estimate D2E/DX2                !
 ! R6    R(2,23)                 1.0972         estimate D2E/DX2                !
 ! R7    R(2,24)                 1.0964         estimate D2E/DX2                !
 ! R8    R(3,4)                  1.5626         estimate D2E/DX2                !
 ! R9    R(3,7)                  1.4751         estimate D2E/DX2                !
 ! R10   R(3,31)                 1.0991         estimate D2E/DX2                !
 ! R11   R(4,5)                  1.5406         estimate D2E/DX2                !
 ! R12   R(4,25)                 1.0988         estimate D2E/DX2                !
 ! R13   R(4,32)                 1.535          estimate D2E/DX2                !
 ! R14   R(5,6)                  1.4213         estimate D2E/DX2                !
 ! R15   R(5,26)                 1.095          estimate D2E/DX2                !
 ! R16   R(5,27)                 1.0951         estimate D2E/DX2                !
 ! R17   R(6,28)                 0.9816         estimate D2E/DX2                !
 ! R18   R(7,8)                  1.4685         estimate D2E/DX2                !
 ! R19   R(7,36)                 1.0227         estimate D2E/DX2                !
 ! R20   R(8,12)                 1.5013         estimate D2E/DX2                !
 ! R21   R(8,29)                 1.0954         estimate D2E/DX2                !
 ! R22   R(8,30)                 1.0969         estimate D2E/DX2                !
 ! R23   R(9,10)                 1.3941         estimate D2E/DX2                !
 ! R24   R(9,14)                 1.3938         estimate D2E/DX2                !
 ! R25   R(9,15)                 1.087          estimate D2E/DX2                !
 ! R26   R(10,11)                1.3947         estimate D2E/DX2                !
 ! R27   R(10,16)                1.0861         estimate D2E/DX2                !
 ! R28   R(11,12)                1.3953         estimate D2E/DX2                !
 ! R29   R(11,18)                1.3405         estimate D2E/DX2                !
 ! R30   R(12,13)                1.3964         estimate D2E/DX2                !
 ! R31   R(13,14)                1.3942         estimate D2E/DX2                !
 ! R32   R(13,19)                1.3414         estimate D2E/DX2                !
 ! R33   R(14,17)                1.0859         estimate D2E/DX2                !
 ! R34   R(32,33)                1.0945         estimate D2E/DX2                !
 ! R35   R(32,34)                1.0957         estimate D2E/DX2                !
 ! R36   R(32,35)                1.0941         estimate D2E/DX2                !
 ! A1    A(2,1,20)             109.9502         estimate D2E/DX2                !
 ! A2    A(2,1,21)             111.17           estimate D2E/DX2                !
 ! A3    A(2,1,22)             111.4549         estimate D2E/DX2                !
 ! A4    A(20,1,21)            107.9537         estimate D2E/DX2                !
 ! A5    A(20,1,22)            107.3394         estimate D2E/DX2                !
 ! A6    A(21,1,22)            108.8326         estimate D2E/DX2                !
 ! A7    A(1,2,3)              114.3065         estimate D2E/DX2                !
 ! A8    A(1,2,23)             107.9284         estimate D2E/DX2                !
 ! A9    A(1,2,24)             108.1597         estimate D2E/DX2                !
 ! A10   A(3,2,23)             108.7879         estimate D2E/DX2                !
 ! A11   A(3,2,24)             110.7267         estimate D2E/DX2                !
 ! A12   A(23,2,24)            106.6216         estimate D2E/DX2                !
 ! A13   A(2,3,4)              110.737          estimate D2E/DX2                !
 ! A14   A(2,3,7)              112.1106         estimate D2E/DX2                !
 ! A15   A(2,3,31)             107.5158         estimate D2E/DX2                !
 ! A16   A(4,3,7)              110.131          estimate D2E/DX2                !
 ! A17   A(4,3,31)             106.211          estimate D2E/DX2                !
 ! A18   A(7,3,31)             109.9308         estimate D2E/DX2                !
 ! A19   A(3,4,5)              111.6156         estimate D2E/DX2                !
 ! A20   A(3,4,25)             107.0109         estimate D2E/DX2                !
 ! A21   A(3,4,32)             113.7773         estimate D2E/DX2                !
 ! A22   A(5,4,25)             106.4556         estimate D2E/DX2                !
 ! A23   A(5,4,32)             110.2653         estimate D2E/DX2                !
 ! A24   A(25,4,32)            107.3001         estimate D2E/DX2                !
 ! A25   A(4,5,6)              112.1457         estimate D2E/DX2                !
 ! A26   A(4,5,26)             110.246          estimate D2E/DX2                !
 ! A27   A(4,5,27)             110.8823         estimate D2E/DX2                !
 ! A28   A(6,5,26)             107.4971         estimate D2E/DX2                !
 ! A29   A(6,5,27)             108.3821         estimate D2E/DX2                !
 ! A30   A(26,5,27)            107.5133         estimate D2E/DX2                !
 ! A31   A(5,6,28)             105.6757         estimate D2E/DX2                !
 ! A32   A(3,7,8)              112.6613         estimate D2E/DX2                !
 ! A33   A(3,7,36)             109.5347         estimate D2E/DX2                !
 ! A34   A(8,7,36)             108.4915         estimate D2E/DX2                !
 ! A35   A(7,8,12)             110.9975         estimate D2E/DX2                !
 ! A36   A(7,8,29)             111.6151         estimate D2E/DX2                !
 ! A37   A(7,8,30)             109.6008         estimate D2E/DX2                !
 ! A38   A(12,8,29)            108.6589         estimate D2E/DX2                !
 ! A39   A(12,8,30)            109.446          estimate D2E/DX2                !
 ! A40   A(29,8,30)            106.3986         estimate D2E/DX2                !
 ! A41   A(10,9,14)            119.5363         estimate D2E/DX2                !
 ! A42   A(10,9,15)            120.1926         estimate D2E/DX2                !
 ! A43   A(14,9,15)            120.2709         estimate D2E/DX2                !
 ! A44   A(9,10,11)            119.8931         estimate D2E/DX2                !
 ! A45   A(9,10,16)            120.7033         estimate D2E/DX2                !
 ! A46   A(11,10,16)           119.4036         estimate D2E/DX2                !
 ! A47   A(10,11,12)           121.4922         estimate D2E/DX2                !
 ! A48   A(10,11,18)           118.4891         estimate D2E/DX2                !
 ! A49   A(12,11,18)           120.0164         estimate D2E/DX2                !
 ! A50   A(8,12,11)            121.3903         estimate D2E/DX2                !
 ! A51   A(8,12,13)            120.9191         estimate D2E/DX2                !
 ! A52   A(11,12,13)           117.689          estimate D2E/DX2                !
 ! A53   A(12,13,14)           121.6274         estimate D2E/DX2                !
 ! A54   A(12,13,19)           119.7042         estimate D2E/DX2                !
 ! A55   A(14,13,19)           118.6682         estimate D2E/DX2                !
 ! A56   A(9,14,13)            119.7619         estimate D2E/DX2                !
 ! A57   A(9,14,17)            120.6717         estimate D2E/DX2                !
 ! A58   A(13,14,17)           119.5661         estimate D2E/DX2                !
 ! A59   A(4,32,33)            112.1887         estimate D2E/DX2                !
 ! A60   A(4,32,34)            110.4527         estimate D2E/DX2                !
 ! A61   A(4,32,35)            111.2403         estimate D2E/DX2                !
 ! A62   A(33,32,34)           107.7575         estimate D2E/DX2                !
 ! A63   A(33,32,35)           108.0614         estimate D2E/DX2                !
 ! A64   A(34,32,35)           106.9256         estimate D2E/DX2                !
 ! D1    D(20,1,2,3)          -172.4789         estimate D2E/DX2                !
 ! D2    D(20,1,2,23)          -51.3106         estimate D2E/DX2                !
 ! D3    D(20,1,2,24)           63.6839         estimate D2E/DX2                !
 ! D4    D(21,1,2,3)           -52.9914         estimate D2E/DX2                !
 ! D5    D(21,1,2,23)           68.1769         estimate D2E/DX2                !
 ! D6    D(21,1,2,24)         -176.8286         estimate D2E/DX2                !
 ! D7    D(22,1,2,3)            68.6188         estimate D2E/DX2                !
 ! D8    D(22,1,2,23)         -170.2129         estimate D2E/DX2                !
 ! D9    D(22,1,2,24)          -55.2184         estimate D2E/DX2                !
 ! D10   D(1,2,3,4)            170.3486         estimate D2E/DX2                !
 ! D11   D(1,2,3,7)            -66.2131         estimate D2E/DX2                !
 ! D12   D(1,2,3,31)            54.7211         estimate D2E/DX2                !
 ! D13   D(23,2,3,4)            49.6562         estimate D2E/DX2                !
 ! D14   D(23,2,3,7)           173.0945         estimate D2E/DX2                !
 ! D15   D(23,2,3,31)          -65.9712         estimate D2E/DX2                !
 ! D16   D(24,2,3,4)           -67.2021         estimate D2E/DX2                !
 ! D17   D(24,2,3,7)            56.2361         estimate D2E/DX2                !
 ! D18   D(24,2,3,31)          177.1704         estimate D2E/DX2                !
 ! D19   D(2,3,4,5)           -174.6369         estimate D2E/DX2                !
 ! D20   D(2,3,4,25)           -58.5415         estimate D2E/DX2                !
 ! D21   D(2,3,4,32)            59.7929         estimate D2E/DX2                !
 ! D22   D(7,3,4,5)             60.7912         estimate D2E/DX2                !
 ! D23   D(7,3,4,25)           176.8866         estimate D2E/DX2                !
 ! D24   D(7,3,4,32)           -64.779          estimate D2E/DX2                !
 ! D25   D(31,3,4,5)           -58.1996         estimate D2E/DX2                !
 ! D26   D(31,3,4,25)           57.8958         estimate D2E/DX2                !
 ! D27   D(31,3,4,32)          176.2301         estimate D2E/DX2                !
 ! D28   D(2,3,7,8)            101.7033         estimate D2E/DX2                !
 ! D29   D(2,3,7,36)           -19.1489         estimate D2E/DX2                !
 ! D30   D(4,3,7,8)           -134.5187         estimate D2E/DX2                !
 ! D31   D(4,3,7,36)           104.6291         estimate D2E/DX2                !
 ! D32   D(31,3,7,8)           -17.8263         estimate D2E/DX2                !
 ! D33   D(31,3,7,36)         -138.6785         estimate D2E/DX2                !
 ! D34   D(3,4,5,6)            -71.6119         estimate D2E/DX2                !
 ! D35   D(3,4,5,26)           168.6462         estimate D2E/DX2                !
 ! D36   D(3,4,5,27)            49.6986         estimate D2E/DX2                !
 ! D37   D(25,4,5,6)           171.9544         estimate D2E/DX2                !
 ! D38   D(25,4,5,26)           52.2125         estimate D2E/DX2                !
 ! D39   D(25,4,5,27)          -66.7351         estimate D2E/DX2                !
 ! D40   D(32,4,5,6)            55.8764         estimate D2E/DX2                !
 ! D41   D(32,4,5,26)          -63.8656         estimate D2E/DX2                !
 ! D42   D(32,4,5,27)          177.1869         estimate D2E/DX2                !
 ! D43   D(3,4,32,33)           56.8827         estimate D2E/DX2                !
 ! D44   D(3,4,32,34)          177.1246         estimate D2E/DX2                !
 ! D45   D(3,4,32,35)          -64.2997         estimate D2E/DX2                !
 ! D46   D(5,4,32,33)          -69.4007         estimate D2E/DX2                !
 ! D47   D(5,4,32,34)           50.8412         estimate D2E/DX2                !
 ! D48   D(5,4,32,35)          169.4169         estimate D2E/DX2                !
 ! D49   D(25,4,32,33)         175.0509         estimate D2E/DX2                !
 ! D50   D(25,4,32,34)         -64.7072         estimate D2E/DX2                !
 ! D51   D(25,4,32,35)          53.8685         estimate D2E/DX2                !
 ! D52   D(4,5,6,28)            41.5354         estimate D2E/DX2                !
 ! D53   D(26,5,6,28)          162.8702         estimate D2E/DX2                !
 ! D54   D(27,5,6,28)          -81.2012         estimate D2E/DX2                !
 ! D55   D(3,7,8,12)           179.1613         estimate D2E/DX2                !
 ! D56   D(3,7,8,29)           -59.4601         estimate D2E/DX2                !
 ! D57   D(3,7,8,30)            58.1499         estimate D2E/DX2                !
 ! D58   D(36,7,8,12)          -59.3918         estimate D2E/DX2                !
 ! D59   D(36,7,8,29)           61.9868         estimate D2E/DX2                !
 ! D60   D(36,7,8,30)          179.5968         estimate D2E/DX2                !
 ! D61   D(7,8,12,11)         -104.879          estimate D2E/DX2                !
 ! D62   D(7,8,12,13)           74.6496         estimate D2E/DX2                !
 ! D63   D(29,8,12,11)         132.0233         estimate D2E/DX2                !
 ! D64   D(29,8,12,13)         -48.448          estimate D2E/DX2                !
 ! D65   D(30,8,12,11)          16.2235         estimate D2E/DX2                !
 ! D66   D(30,8,12,13)        -164.2478         estimate D2E/DX2                !
 ! D67   D(14,9,10,11)           0.0462         estimate D2E/DX2                !
 ! D68   D(14,9,10,16)         179.9361         estimate D2E/DX2                !
 ! D69   D(15,9,10,11)        -179.8457         estimate D2E/DX2                !
 ! D70   D(15,9,10,16)           0.0442         estimate D2E/DX2                !
 ! D71   D(10,9,14,13)          -0.074          estimate D2E/DX2                !
 ! D72   D(10,9,14,17)        -179.8796         estimate D2E/DX2                !
 ! D73   D(15,9,14,13)         179.8178         estimate D2E/DX2                !
 ! D74   D(15,9,14,17)           0.0123         estimate D2E/DX2                !
 ! D75   D(9,10,11,12)           0.0104         estimate D2E/DX2                !
 ! D76   D(9,10,11,18)        -179.4256         estimate D2E/DX2                !
 ! D77   D(16,10,11,12)       -179.8809         estimate D2E/DX2                !
 ! D78   D(16,10,11,18)          0.6831         estimate D2E/DX2                !
 ! D79   D(10,11,12,8)         179.5055         estimate D2E/DX2                !
 ! D80   D(10,11,12,13)         -0.0378         estimate D2E/DX2                !
 ! D81   D(18,11,12,8)          -1.0669         estimate D2E/DX2                !
 ! D82   D(18,11,12,13)        179.3897         estimate D2E/DX2                !
 ! D83   D(8,12,13,14)        -179.5364         estimate D2E/DX2                !
 ! D84   D(8,12,13,19)           0.3029         estimate D2E/DX2                !
 ! D85   D(11,12,13,14)          0.0092         estimate D2E/DX2                !
 ! D86   D(11,12,13,19)        179.8486         estimate D2E/DX2                !
 ! D87   D(12,13,14,9)           0.0466         estimate D2E/DX2                !
 ! D88   D(12,13,14,17)        179.8544         estimate D2E/DX2                !
 ! D89   D(19,13,14,9)        -179.7943         estimate D2E/DX2                !
 ! D90   D(19,13,14,17)          0.0134         estimate D2E/DX2                !
 --------------------------------------------------------------------------------
 Trust Radius=3.00D-01 FncErr=1.00D-07 GrdErr=1.00D-06
 Number of steps in this run=     50 maximum allowed number of steps=    216.
 GradGradGradGradGradGradGradGradGradGradGradGradGradGradGradGradGradGrad

                          Input orientation:                          
 ---------------------------------------------------------------------
 Center     Atomic      Atomic             Coordinates (Angstroms)
 Number     Number       Type             X           Y           Z
 ---------------------------------------------------------------------
      1          6           0       -2.463418   -1.867677   -0.605788
      2          6           0       -2.044322   -0.891777    0.484912
      3          6           0       -2.765844   -1.100318    1.837723
      4          6           0       -2.108634   -0.228377    2.955473
      5          6           0       -2.724380   -0.518842    4.337466
      6          8           0       -4.045993   -0.008991    4.453025
      7          7           0       -4.208818   -0.807750    1.748242
      8          6           0       -5.028053   -2.023168    1.658787
      9          6           0       -9.225246   -1.022655    1.453950
     10          6           0       -8.683374   -1.533886    2.632312
     11          6           0       -7.328186   -1.858304    2.690735
     12          6           0       -6.488753   -1.683479    1.589994
     13          6           0       -7.051813   -1.170734    0.419541
     14          6           0       -8.404371   -0.841319    0.342251
     15          1           0      -10.280251   -0.765828    1.403789
     16          1           0       -9.305433   -1.681890    3.510243
     17          1           0       -8.806641   -0.442626   -0.584224
     18          9           0       -6.839246   -2.358788    3.834131
     19          9           0       -6.281021   -0.983443   -0.662227
     20          1           0       -1.820182   -1.745802   -1.483460
     21          1           0       -2.375407   -2.903629   -0.264307
     22          1           0       -3.492910   -1.688653   -0.928773
     23          1           0       -0.963731   -1.002281    0.640018
     24          1           0       -2.205148    0.126786    0.112322
     25          1           0       -1.052707   -0.526230    3.016352
     26          1           0       -2.122358   -0.054720    5.125672
     27          1           0       -2.751249   -1.595799    4.534296
     28          1           0       -4.483175   -0.208949    3.597218
     29          1           0       -4.765917   -2.622730    0.780293
     30          1           0       -4.841538   -2.657878    2.533776
     31          1           0       -2.613598   -2.147166    2.135897
     32          6           0       -2.141838    1.278462    2.664697
     33          1           0       -3.159914    1.645607    2.501533
     34          1           0       -1.714572    1.839686    3.503122
     35          1           0       -1.546627    1.524696    1.780293
     36          1           0       -4.390559   -0.232560    0.922356
 ---------------------------------------------------------------------
                    Distance matrix (angstroms):
                    1          2          3          4          5
     1  C    0.000000
     2  C    1.522383   0.000000
     3  C    2.578962   1.547314   0.000000
     4  C    3.936465   2.558888   1.562553   0.000000
     5  C    5.130616   3.929851   2.566817   1.540590   0.000000
     6  O    5.617014   4.531216   3.109595   2.458486   1.421254
     7  N    3.116300   2.507610   1.475051   2.490753   2.998517
     8  C    3.424884   3.400100   2.449747   3.664107   3.839951
     9  C    7.118911   7.247195   6.471259   7.316530   7.129499
    10  C    7.020296   7.007185   5.986361   6.710886   6.280722
    11  C    5.876489   5.806811   4.702886   5.474529   5.069607
    12  C    4.588977   4.647684   3.776440   4.813242   4.803695
    13  C    4.752936   5.015681   4.515056   5.635069   5.873821
    14  C    6.103041   6.361849   5.839221   6.844044   6.951837
    15  H    8.145879   8.287987   7.534354   8.334981   8.109171
    16  H    7.986826   7.905735   6.775085   7.363042   6.734036
    17  H    6.501362   6.861031   6.541377   7.578829   7.824496
    18  F    6.253155   6.029982   4.707653   5.262070   4.535512
    19  F    3.919075   4.390211   4.315076   5.573750   6.153249
    20  H    1.094949   2.157333   3.513002   4.699990   6.017157
    21  H    1.094327   2.172210   2.796945   4.194654   5.194738
    22  H    1.093720   2.175299   2.920319   4.374471   5.449071
    23  H    2.133074   1.097245   2.166038   2.696491   4.123678
    24  H    2.135478   1.096430   2.190245   2.866873   4.305610
    25  H    4.112114   2.743194   2.157216   1.098820   2.130701
    26  H    6.021027   4.716292   3.509695   2.177179   1.095038
    27  H    5.155311   4.170480   2.741755   2.185287   1.095126
    28  H    4.949349   4.012569   2.615260   2.459809   1.933225
    29  H    2.791564   3.238908   2.726938   4.186345   4.609523
    30  H    4.017055   3.891192   2.686818   3.680906   3.508722
    31  H    2.759983   2.150774   1.099080   2.146729   2.740551
    32  C    4.549470   3.077484   2.594584   1.534997   2.523453
    33  H    4.741700   3.427772   2.852374   2.196148   2.871442
    34  H    5.584662   4.084020   3.538693   2.175336   2.697869
    35  H    4.247597   2.786585   2.894907   2.184071   3.478834
    36  H    2.953422   2.476036   2.056842   3.056266   3.810654
                    6          7          8          9         10
     6  O    0.000000
     7  N    2.824956   0.000000
     8  C    3.581776   1.468465   0.000000
     9  C    6.070142   5.029646   4.319654   0.000000
    10  C    5.210144   4.618496   3.814252   1.394102   0.000000
    11  C    4.159136   3.423801   2.526402   2.413873   1.394702
    12  C    4.119215   2.447457   1.501255   2.818438   2.434166
    13  C    5.162712   3.159086   2.521503   2.411585   2.773126
    14  C    6.048693   4.424997   3.811766   1.393769   2.408707
    15  H    6.981161   6.081341   5.406617   1.086974   2.156200
    16  H    5.599030   5.462989   4.673365   2.160871   1.086106
    17  H    6.944472   5.168529   4.669790   2.160050   3.398845
    18  F    3.702275   3.698081   2.850471   3.625398   2.350668
    19  F    5.666631   3.183591   2.835148   3.626045   4.114398
    20  H    6.573629   4.126672   4.499009   7.999143   8.005491
    21  H    5.781264   3.435762   3.392644   7.308267   7.075100
    22  H    5.664884   2.907735   3.027215   6.243444   6.296523
    23  H    5.002598   3.434617   4.312634   8.301538   7.990290
    24  H    4.716868   2.750325   3.870743   7.238989   7.146719
    25  H    3.360257   3.412974   4.459505   8.335342   7.706487
    26  H    2.038361   4.040718   4.933269   8.054158   7.172985
    27  H    2.049616   3.241547   3.692565   7.192334   6.229886
    28  H    0.981589   1.962791   2.710313   5.267158   4.508678
    29  H    4.564962   2.131065   1.095418   4.785360   4.467888
    30  H    3.366454   2.107219   1.096928   4.801757   4.004094
    31  H    3.463038   2.118735   2.464265   6.741177   6.120843
    32  C    2.912294   3.076455   4.499206   7.545576   7.120537
    33  H    2.707610   2.772473   4.202389   6.708599   6.374550
    34  H    3.123371   4.038537   5.413166   8.294717   7.791245
    35  H    3.967685   3.539575   4.972165   8.096708   7.811147
    36  H    3.554481   1.022722   2.038383   4.927580   4.800589
                   11         12         13         14         15
    11  C    0.000000
    12  C    1.395293   0.000000
    13  C    2.389028   1.396390   0.000000
    14  C    2.776294   2.436327   1.394239   0.000000
    15  H    3.400650   3.905408   3.399339   2.156731   0.000000
    16  H    2.147608   3.408965   3.859083   3.399213   2.495313
    17  H    3.862037   3.411678   2.148745   1.085879   2.495633
    18  F    1.340485   2.369607   3.621613   4.116498   4.503843
    19  F    3.619985   2.367636   1.341425   2.353251   4.506619
    20  H    6.911922   5.589773   5.596613   6.892231   8.992737
    21  H    5.861314   4.674058   5.033820   6.400738   8.356991
    22  H    5.276264   3.913986   3.840831   5.143532   7.236052
    23  H    6.741254   5.647332   6.094401   7.448335   9.350765
    24  H    6.069128   4.879533   5.026739   6.278572   8.226295
    25  H    6.423557   5.737972   6.568720   7.829244   9.370450
    26  H    6.023494   5.849725   6.905989   7.934957   8.994960
    27  H    4.941253   4.758733   5.967138   7.078154   8.196023
    28  H    3.411183   3.197738   4.197685   5.135220   6.223129
    29  H    3.286238   2.122727   2.731987   4.074758   5.851898
    30  H    2.616749   2.133892   3.401015   4.560312   5.868247
    31  H    4.755904   3.940792   4.857679   6.201246   7.824426
    32  C    6.061203   5.368776   5.928502   7.007606   8.485445
    33  H    5.448640   4.795298   5.235776   6.192869   7.597319
    34  H    6.771098   6.234224   6.859828   7.869708   9.196019
    35  H    6.760179   5.895185   6.278858   7.395583   9.036838
    36  H    3.794715   2.636916   2.866229   4.100951   5.933348
                   16         17         18         19         20
    16  H    0.000000
    17  H    4.306882   0.000000
    18  F    2.577823   5.202325   0.000000
    19  F    5.200423   2.584052   4.735021   0.000000
    20  H    8.998341   7.163624   7.337815   4.599424   0.000000
    21  H    7.985307   6.893450   6.084398   4.370272   1.770642
    22  H    7.313709   5.468732   5.859377   2.888240   1.763225
    23  H    8.847828   7.957589   6.823793   5.474465   2.407383
    24  H    8.076585   6.662516   6.442422   4.294796   2.490242
    25  H    8.347872   8.549540   6.124628   6.409076   4.724900
    26  H    7.540150   8.799604   5.406093   7.187265   6.828740
    27  H    6.634261   8.012292   4.217120   6.311745   6.091205
    28  H    5.042945   6.019254   3.198282   4.687746   5.938580
    29  H    5.380057   4.789803   3.700579   2.657756   3.817189
    30  H    4.672515   5.509202   2.402335   3.884621   5.108685
    31  H    6.847333   6.975550   4.559044   4.757493   3.726976
    32  C    7.797161   7.611651   6.054982   5.772129   5.143621
    33  H    7.060959   6.765215   5.598971   5.163583   5.401547
    34  H    8.367958   8.497811   6.633177   6.795046   6.142709
    35  H    8.571697   7.884738   6.878337   5.888221   4.628507
    36  H    5.740532   4.670727   4.358365   2.578483   3.832061
                   21         22         23         24         25
    21  H    0.000000
    22  H    1.779465   0.000000
    23  H    2.534908   3.054334   0.000000
    24  H    3.058472   2.457240   1.759083   0.000000
    25  H    4.261958   4.782241   2.425181   3.191855   0.000000
    26  H    6.101819   6.419070   4.728782   5.017318   2.411577
    27  H    4.987812   5.513965   4.325839   4.776963   2.516580
    28  H    5.159008   4.863614   4.664857   4.176916   3.493735
    29  H    2.623858   2.326790   4.135475   3.816223   4.814894
    30  H    3.737842   3.840240   4.622197   4.535234   4.374019
    31  H    2.527835   3.221122   2.504092   3.071245   2.416405
    32  C    5.111116   4.852030   3.269411   2.800890   2.137003
    33  H    5.381530   4.795328   3.911492   2.987762   3.069566
    34  H    6.093378   5.937454   4.103401   3.830433   2.504510
    35  H    4.947457   4.631702   2.832950   2.273748   2.445015
    36  H    3.550157   2.520448   3.523540   2.358242   3.951242
                   26         27         28         29         30
    26  H    0.000000
    27  H    1.766396   0.000000
    28  H    2.816632   2.408534   0.000000
    29  H    5.697842   4.382467   3.720396   0.000000
    30  H    4.570372   3.082110   2.693805   1.755465   0.000000
    31  H    3.682173   2.464807   3.063897   2.587721   2.320097
    32  C    2.798955   3.482551   2.926405   5.065182   4.774965
    33  H    3.294501   3.847836   2.528028   4.874486   4.620485
    34  H    2.527396   3.733708   3.445420   6.052905   5.562880
    35  H    3.744006   4.332798   3.863943   5.344621   5.377555
    36  H    4.779564   4.194266   2.676569   2.423631   2.946561
                   31         32         33         34         35
    31  H    0.000000
    32  C    3.498159   0.000000
    33  H    3.849322   1.094485   0.000000
    34  H    4.309587   1.095667   1.769141   0.000000
    35  H    3.840241   1.094110   1.771299   1.759421   0.000000
    36  H    2.880276   3.221131   2.745141   4.256226   3.451370
                   36
    36  H    0.000000
 Stoichiometry    C13H19F2NO
 Framework group  C1[X(C13H19F2NO)]
 Deg. of freedom   102
 Full point group                 C1      NOp   1
 Largest Abelian subgroup         C1      NOp   1
 Largest concise Abelian subgroup C1      NOp   1
                         Standard orientation:                         
 ---------------------------------------------------------------------
 Center     Atomic      Atomic             Coordinates (Angstroms)
 Number     Number       Type             X           Y           Z
 ---------------------------------------------------------------------
      1          6           0        2.030734    2.890224   -0.951065
      2          6           0        2.747001    1.779385   -0.195653
      3          6           0        2.171397    0.365110   -0.446029
      4          6           0        3.105030   -0.728456    0.165539
      5          6           0        2.621745   -2.148458   -0.185812
      6          8           0        1.435960   -2.499463    0.514667
      7          7           0        0.803384    0.220223    0.086253
      8          6           0       -0.223300    0.311642   -0.959669
      9          6           0       -4.169110   -0.179077    0.728286
     10          6           0       -3.586222   -1.212915   -0.003111
     11          6           0       -2.313390   -1.046738   -0.548528
     12          6           0       -1.597719    0.139241   -0.380863
     13          6           0       -2.200057    1.162139    0.354510
     14          6           0       -3.471748    1.014428    0.906674
     15          1           0       -5.159817   -0.304255    1.157636
     16          1           0       -4.112210   -2.151269   -0.152954
     17          1           0       -3.907405    1.830958    1.474667
     18          9           0       -1.784568   -2.054682   -1.256551
     19          9           0       -1.546869    2.318486    0.543264
     20          1           0        2.572794    3.833886   -0.830287
     21          1           0        1.974644    2.667994   -2.021121
     22          1           0        1.017661    3.045039   -0.569048
     23          1           0        3.801542    1.790447   -0.498586
     24          1           0        2.725089    2.023655    0.872996
     25          1           0        4.090669   -0.609678   -0.305432
     26          1           0        3.388666   -2.885192    0.075271
     27          1           0        2.428458   -2.240441   -1.259814
     28          1           0        0.868601   -1.698727    0.493591
     29          1           0       -0.181542    1.272966   -1.483171
     30          1           0       -0.046531   -0.461555   -1.717409
     31          1           0        2.170782    0.195704   -1.531975
     32          6           0        3.304454   -0.594632    1.681632
     33          1           0        2.355530   -0.614096    2.226664
     34          1           0        3.924135   -1.415110    2.060179
     35          1           0        3.820872    0.336655    1.932818
     36          1           0        0.626733    0.951568    0.778993
 ---------------------------------------------------------------------
 Rotational constants (GHZ):      0.6530548      0.3051062      0.2383469
 Standard basis: 6-31G(d,p) (6D, 7F)
 There are   350 symmetry adapted cartesian basis functions of A   symmetry.
 There are   350 symmetry adapted basis functions of A   symmetry.
   350 basis functions,   609 primitive gaussians,   350 cartesian basis functions
    65 alpha electrons       65 beta electrons
       nuclear repulsion energy      1291.5434430090 Hartrees.
 NAtoms=   36 NActive=   36 NUniq=   36 SFac= 1.00D+00 NAtFMM=   60 NAOKFM=F Big=F
 Integral buffers will be    131072 words long.
 Raffenetti 2 integral format.
 Two-electron integral symmetry is turned on.
 ------------------------------------------------------------------------------
 Polarizable Continuum Model (PCM)
 =================================
 Model                : PCM (using non-symmetric T matrix).
 Atomic radii         : UFF (Universal Force Field).
 Polarization charges : Total charges.
 Charge compensation  : None.
 Solution method      : On-the-fly selection.
 Cavity type          : Scaled VdW (van der Waals Surface) (Alpha=1.100).
 Cavity algorithm     : GePol (No added spheres)
                        Default sphere list used, NSphG=   36.
                        Lebedev-Laikov grids with approx.  5.0 points / Ang**2.
                        Smoothing algorithm: Karplus/York (Gamma=1.0000).
                        Polarization charges: spherical gaussians, with
                                              point-specific exponents (IZeta= 3).
                        Self-potential: point-specific (ISelfS= 7).
                        Self-field    : sphere-specific E.n sum rule (ISelfD= 2).
 1st derivatives      : Analytical E(r).r(x)/FMM algorithm (CHGder, D1EAlg=3).
                        Cavity 1st derivative terms included.
 Solvent              : Chloroform, Eps=   4.711300 Eps(inf)=   2.090627
 ------------------------------------------------------------------------------
 One-electron integrals computed using PRISM.
 NBasis=   350 RedAO= T EigKep=  4.07D-04  NBF=   350
 NBsUse=   350 1.00D-06 EigRej= -1.00D+00 NBFU=   350
 ExpMin= 1.61D-01 ExpMax= 7.00D+03 ExpMxC= 1.05D+03 IAcc=1 IRadAn=         1 AccDes= 0.00D+00
 Harris functional with IExCor=  402 and IRadAn=       1 diagonalized for initial guess.
 HarFok:  IExCor=  402 AccDes= 0.00D+00 IRadAn=         1 IDoV= 1 UseB2=F ITyADJ=14
 ICtDFT=  3500011 ScaDFX=  1.000000  1.000000  1.000000  1.000000
 FoFCou: FMM=F IPFlag=           0 FMFlag=      100000 FMFlg1=           0
         NFxFlg=           0 DoJE=T BraDBF=F KetDBF=T FulRan=T
         wScrn=  0.000000 ICntrl=     500 IOpCl=  0 I1Cent=   200000004 NGrid=           0
         NMat0=    1 NMatS0=      1 NMatT0=    0 NMatD0=    1 NMtDS0=    0 NMtDT0=    0
 Petite list used in FoFCou.
 Requested convergence on RMS density matrix=1.00D-08 within 128 cycles.
 Requested convergence on MAX density matrix=1.00D-06.
 Requested convergence on             energy=1.00D-06.
 No special actions if energy rises.
 Inv3:  Mode=1 IEnd=    18302700.
 Iteration    1 A*A^-1 deviation from unit magnitude is 7.11D-15 for   1650.
 Iteration    1 A*A^-1 deviation from orthogonality  is 7.12D-15 for   1650    908.
 Iteration    1 A^-1*A deviation from unit magnitude is 7.11D-15 for    114.
 Iteration    1 A^-1*A deviation from orthogonality  is 1.32D-13 for   2277   2236.
 Error on total polarization charges =  0.00794
 SCF Done:  E(RB3LYP) =  -836.495077709     A.U. after   12 cycles
            NFock= 12  Conv=0.64D-08     -V/T= 2.0088

 **********************************************************************

            Population analysis using the SCF density.

 **********************************************************************

 Orbital symmetries:
       Occupied  (A) (A) (A) (A) (A) (A) (A) (A) (A) (A) (A) (A)
                 (A) (A) (A) (A) (A) (A) (A) (A) (A) (A) (A) (A)
                 (A) (A) (A) (A) (A) (A) (A) (A) (A) (A) (A) (A)
                 (A) (A) (A) (A) (A) (A) (A) (A) (A) (A) (A) (A)
                 (A) (A) (A) (A) (A) (A) (A) (A) (A) (A) (A) (A)
                 (A) (A) (A) (A) (A)
       Virtual   (A) (A) (A) (A) (A) (A) (A) (A) (A) (A) (A) (A)
                 (A) (A) (A) (A) (A) (A) (A) (A) (A) (A) (A) (A)
                 (A) (A) (A) (A) (A) (A) (A) (A) (A) (A) (A) (A)
                 (A) (A) (A) (A) (A) (A) (A) (A) (A) (A) (A) (A)
                 (A) (A) (A) (A) (A) (A) (A) (A) (A) (A) (A) (A)
                 (A) (A) (A) (A) (A) (A) (A) (A) (A) (A) (A) (A)
                 (A) (A) (A) (A) (A) (A) (A) (A) (A) (A) (A) (A)
                 (A) (A) (A) (A) (A) (A) (A) (A) (A) (A) (A) (A)
                 (A) (A) (A) (A) (A) (A) (A) (A) (A) (A) (A) (A)
                 (A) (A) (A) (A) (A) (A) (A) (A) (A) (A) (A) (A)
                 (A) (A) (A) (A) (A) (A) (A) (A) (A) (A) (A) (A)
                 (A) (A) (A) (A) (A) (A) (A) (A) (A) (A) (A) (A)
                 (A) (A) (A) (A) (A) (A) (A) (A) (A) (A) (A) (A)
                 (A) (A) (A) (A) (A) (A) (A) (A) (A) (A) (A) (A)
                 (A) (A) (A) (A) (A) (A) (A) (A) (A) (A) (A) (A)
                 (A) (A) (A) (A) (A) (A) (A) (A) (A) (A) (A) (A)
                 (A) (A) (A) (A) (A) (A) (A) (A) (A) (A) (A) (A)
                 (A) (A) (A) (A) (A) (A) (A) (A) (A) (A) (A) (A)
                 (A) (A) (A) (A) (A) (A) (A) (A) (A) (A) (A) (A)
                 (A) (A) (A) (A) (A) (A) (A) (A) (A) (A) (A) (A)
                 (A) (A) (A) (A) (A) (A) (A) (A) (A) (A) (A) (A)
                 (A) (A) (A) (A) (A) (A) (A) (A) (A) (A) (A) (A)
                 (A) (A) (A) (A) (A) (A) (A) (A) (A) (A) (A) (A)
                 (A) (A) (A) (A) (A) (A) (A) (A) (A)
 The electronic state is 1-A.
 Alpha  occ. eigenvalues --  -24.72608 -24.71955 -19.11219 -14.33393 -10.28474
 Alpha  occ. eigenvalues --  -10.28375 -10.22268 -10.21531 -10.21305 -10.21091
 Alpha  occ. eigenvalues --  -10.20873 -10.20102 -10.20010 -10.18218 -10.18150
 Alpha  occ. eigenvalues --  -10.17477 -10.16683  -1.23898  -1.23314  -0.98867
 Alpha  occ. eigenvalues --   -0.91974  -0.87181  -0.80201  -0.77015  -0.75609
 Alpha  occ. eigenvalues --   -0.75559  -0.69202  -0.66857  -0.65259  -0.63247
 Alpha  occ. eigenvalues --   -0.61372  -0.59728  -0.56456  -0.55585  -0.53362
 Alpha  occ. eigenvalues --   -0.50016  -0.49526  -0.49116  -0.48374  -0.47400
 Alpha  occ. eigenvalues --   -0.46740  -0.45873  -0.45253  -0.44444  -0.44276
 Alpha  occ. eigenvalues --   -0.42565  -0.41903  -0.40730  -0.39772  -0.39442
 Alpha  occ. eigenvalues --   -0.39026  -0.37341  -0.36700  -0.35955  -0.35767
 Alpha  occ. eigenvalues --   -0.35597  -0.34945  -0.34400  -0.32735  -0.31604
 Alpha  occ. eigenvalues --   -0.30388  -0.25847  -0.24937  -0.24411  -0.23047
 Alpha virt. eigenvalues --   -0.01663  -0.00467   0.06785   0.08543   0.09812
 Alpha virt. eigenvalues --    0.10870   0.11512   0.12743   0.14027   0.14175
 Alpha virt. eigenvalues --    0.14596   0.15113   0.15420   0.15664   0.16930
 Alpha virt. eigenvalues --    0.17858   0.18017   0.18570   0.18853   0.19560
 Alpha virt. eigenvalues --    0.19735   0.20670   0.20734   0.22030   0.22297
 Alpha virt. eigenvalues --    0.23066   0.24132   0.25350   0.26465   0.28019
 Alpha virt. eigenvalues --    0.28425   0.29168   0.29458   0.30295   0.32198
 Alpha virt. eigenvalues --    0.37142   0.38299   0.46286   0.48453   0.49616
 Alpha virt. eigenvalues --    0.49906   0.51206   0.52059   0.52212   0.52933
 Alpha virt. eigenvalues --    0.54252   0.55003   0.55465   0.57025   0.57863
 Alpha virt. eigenvalues --    0.58001   0.58835   0.59124   0.59700   0.60395
 Alpha virt. eigenvalues --    0.61669   0.62511   0.63496   0.64183   0.65888
 Alpha virt. eigenvalues --    0.66580   0.67932   0.68929   0.69447   0.69885
 Alpha virt. eigenvalues --    0.72822   0.74536   0.77172   0.78383   0.79283
 Alpha virt. eigenvalues --    0.79439   0.80273   0.81296   0.81778   0.82758
 Alpha virt. eigenvalues --    0.83474   0.84794   0.85318   0.86500   0.87119
 Alpha virt. eigenvalues --    0.87526   0.87924   0.88826   0.89809   0.90268
 Alpha virt. eigenvalues --    0.91332   0.92860   0.93319   0.94041   0.94602
 Alpha virt. eigenvalues --    0.94751   0.95111   0.96398   0.96573   0.97675
 Alpha virt. eigenvalues --    1.00923   1.02054   1.03039   1.04034   1.05345
 Alpha virt. eigenvalues --    1.08988   1.09966   1.11004   1.13068   1.17471
 Alpha virt. eigenvalues --    1.20195   1.21125   1.21927   1.22155   1.23323
 Alpha virt. eigenvalues --    1.24564   1.27203   1.28301   1.31204   1.31364
 Alpha virt. eigenvalues --    1.34427   1.35575   1.36993   1.38133   1.39084
 Alpha virt. eigenvalues --    1.39540   1.40720   1.43139   1.43388   1.43726
 Alpha virt. eigenvalues --    1.45745   1.49085   1.50164   1.51997   1.55060
 Alpha virt. eigenvalues --    1.56002   1.59265   1.60978   1.64132   1.65825
 Alpha virt. eigenvalues --    1.66914   1.70322   1.70854   1.73341   1.74866
 Alpha virt. eigenvalues --    1.75084   1.76415   1.77280   1.79858   1.80652
 Alpha virt. eigenvalues --    1.81982   1.82463   1.83260   1.85048   1.85648
 Alpha virt. eigenvalues --    1.86486   1.87998   1.88423   1.89211   1.89758
 Alpha virt. eigenvalues --    1.90646   1.91678   1.93248   1.93888   1.95605
 Alpha virt. eigenvalues --    1.96344   1.96964   1.97994   1.98642   1.99676
 Alpha virt. eigenvalues --    2.02871   2.03427   2.04747   2.05520   2.05780
 Alpha virt. eigenvalues --    2.06528   2.06858   2.07311   2.08690   2.11445
 Alpha virt. eigenvalues --    2.12590   2.14548   2.16540   2.16853   2.18439
 Alpha virt. eigenvalues --    2.19009   2.20727   2.20844   2.22545   2.26082
 Alpha virt. eigenvalues --    2.26281   2.28292   2.29134   2.30196   2.30726
 Alpha virt. eigenvalues --    2.31450   2.31862   2.33483   2.34964   2.35733
 Alpha virt. eigenvalues --    2.36160   2.37738   2.37766   2.38745   2.40693
 Alpha virt. eigenvalues --    2.42505   2.44548   2.46318   2.46780   2.48197
 Alpha virt. eigenvalues --    2.51176   2.51497   2.52514   2.53027   2.54664
 Alpha virt. eigenvalues --    2.56404   2.57632   2.58255   2.59671   2.62226
 Alpha virt. eigenvalues --    2.62673   2.63640   2.65609   2.66838   2.68110
 Alpha virt. eigenvalues --    2.70156   2.71704   2.72821   2.74239   2.74593
 Alpha virt. eigenvalues --    2.76058   2.77520   2.77768   2.80868   2.84015
 Alpha virt. eigenvalues --    2.84422   2.84902   2.86210   2.87795   2.88907
 Alpha virt. eigenvalues --    2.90175   2.91282   2.92206   2.93630   2.94973
 Alpha virt. eigenvalues --    2.98175   3.01570   3.04459   3.04970   3.06351
 Alpha virt. eigenvalues --    3.09941   3.14456   3.19822   3.20497   3.22170
 Alpha virt. eigenvalues --    3.25303   3.28980   3.31578   3.32149   3.35172
 Alpha virt. eigenvalues --    3.36042   3.38450   3.39732   3.42256   3.43865
 Alpha virt. eigenvalues --    3.45724   3.47785   3.49022   3.52075   3.52750
 Alpha virt. eigenvalues --    3.57041   3.62993   3.80214   3.94300   4.09827
 Alpha virt. eigenvalues --    4.09918   4.12910   4.18102   4.34027   4.38359
 Alpha virt. eigenvalues --    4.43979   4.45651   4.54410   4.57274   4.61915
 Alpha virt. eigenvalues --    4.66450   4.77806   4.78220   5.52588   5.61119
          Condensed to atoms (all electrons):
               1          2          3          4          5          6
     1  C    4.955969   0.356251  -0.041011   0.004735  -0.000120   0.000001
     2  C    0.356251   4.942754   0.379399  -0.046860   0.003926  -0.000025
     3  C   -0.041011   0.379399   4.865614   0.366184  -0.034607  -0.005970
     4  C    0.004735  -0.046860   0.366184   5.033361   0.359185  -0.048202
     5  C   -0.000120   0.003926  -0.034607   0.359185   4.720177   0.270103
     6  O    0.000001  -0.000025  -0.005970  -0.048202   0.270103   8.193080
     7  N   -0.000980  -0.048967   0.253676  -0.060487  -0.001845  -0.023679
     8  C   -0.001333  -0.000899  -0.033871   0.003925   0.000081   0.001276
     9  C    0.000000   0.000000   0.000000   0.000000   0.000000   0.000000
    10  C    0.000000   0.000000   0.000004   0.000000   0.000000   0.000008
    11  C   -0.000003  -0.000002  -0.000012  -0.000009   0.000001   0.000246
    12  C    0.000034  -0.000198   0.004907  -0.000284  -0.000078  -0.000269
    13  C   -0.000027  -0.000032   0.000123   0.000012  -0.000001   0.000005
    14  C   -0.000003   0.000000   0.000005   0.000000   0.000000   0.000000
    15  H    0.000000   0.000000   0.000000   0.000000   0.000000   0.000000
    16  H    0.000000   0.000000   0.000000   0.000000   0.000000   0.000000
    17  H    0.000000   0.000000   0.000000   0.000000   0.000000   0.000000
    18  F    0.000000   0.000000  -0.000001   0.000001  -0.000019  -0.000121
    19  F   -0.000976  -0.000008   0.000007   0.000000   0.000000   0.000000
    20  H    0.379077  -0.027187   0.004225  -0.000149   0.000002   0.000000
    21  H    0.386248  -0.036148  -0.005657  -0.000033  -0.000006   0.000000
    22  H    0.378594  -0.033354  -0.005364   0.000130   0.000003   0.000000
    23  H   -0.038514   0.375395  -0.035141  -0.000539   0.000206   0.000006
    24  H   -0.043057   0.383218  -0.031046  -0.008368  -0.000020  -0.000008
    25  H   -0.000008  -0.004910  -0.040585   0.356375  -0.033019   0.003522
    26  H    0.000002  -0.000183   0.005060  -0.026550   0.375748  -0.040925
    27  H   -0.000008   0.000171  -0.011746  -0.050669   0.370012  -0.044732
    28  H    0.000000   0.000331  -0.003259  -0.008067  -0.041559   0.282381
    29  H    0.001720   0.001091  -0.002801  -0.000427   0.000004  -0.000050
    30  H    0.000096  -0.000189  -0.004038   0.000327   0.000317   0.000965
    31  H   -0.007231  -0.039084   0.385487  -0.046673  -0.006000  -0.000543
    32  C    0.000168  -0.006080  -0.044442   0.350273  -0.050323   0.003354
    33  H   -0.000026  -0.000252  -0.008959  -0.034647  -0.006194   0.007568
    34  H   -0.000002   0.000123   0.004671  -0.028719  -0.004331  -0.000684
    35  H   -0.000069   0.002539  -0.005484  -0.031902   0.004810   0.000306
    36  H    0.000275  -0.007712  -0.037086   0.001312   0.000006   0.000436
               7          8          9         10         11         12
     1  C   -0.000980  -0.001333   0.000000   0.000000  -0.000003   0.000034
     2  C   -0.048967  -0.000899   0.000000   0.000000  -0.000002  -0.000198
     3  C    0.253676  -0.033871   0.000000   0.000004  -0.000012   0.004907
     4  C   -0.060487   0.003925   0.000000   0.000000  -0.000009  -0.000284
     5  C   -0.001845   0.000081   0.000000   0.000000   0.000001  -0.000078
     6  O   -0.023679   0.001276   0.000000   0.000008   0.000246  -0.000269
     7  N    6.958707   0.261579   0.000031  -0.000164   0.002413  -0.042707
     8  C    0.261579   4.958863  -0.000622   0.008577  -0.046646   0.292418
     9  C    0.000031  -0.000622   4.850462   0.485373  -0.007739  -0.027857
    10  C   -0.000164   0.008577   0.485373   5.051693   0.470064  -0.069584
    11  C    0.002413  -0.046646  -0.007739   0.470064   4.585983   0.419307
    12  C   -0.042707   0.292418  -0.027857  -0.069584   0.419307   5.313928
    13  C   -0.006165  -0.050984  -0.009800  -0.049278   0.019191   0.390220
    14  C   -0.000155   0.008756   0.488536  -0.030855  -0.050142  -0.075046
    15  H    0.000000   0.000004   0.375833  -0.034304   0.003663   0.000195
    16  H    0.000001  -0.000145  -0.037225   0.359587  -0.032197   0.006402
    17  H    0.000001  -0.000156  -0.036774   0.004639   0.000499   0.006406
    18  F   -0.000230  -0.004104   0.003055  -0.046300   0.305839  -0.051595
    19  F   -0.002762   0.004591   0.002925  -0.000064   0.002358  -0.058165
    20  H   -0.000034   0.000093   0.000000   0.000000   0.000000   0.000002
    21  H   -0.000645  -0.000434   0.000000   0.000000   0.000000   0.000040
    22  H    0.004349  -0.000685  -0.000001   0.000000  -0.000013  -0.000675
    23  H    0.004956  -0.000096   0.000000   0.000000   0.000000   0.000003
    24  H   -0.007486  -0.000120   0.000000   0.000000   0.000001   0.000049
    25  H    0.005209  -0.000146   0.000000   0.000000   0.000000   0.000007
    26  H   -0.000242   0.000015   0.000000   0.000000   0.000000  -0.000001
    27  H    0.000005  -0.000191   0.000000   0.000000  -0.000030   0.000059
    28  H    0.054542  -0.003234  -0.000006  -0.000022   0.001702  -0.001002
    29  H   -0.047856   0.357454   0.000013  -0.000259   0.004440  -0.028582
    30  H   -0.042360   0.382366  -0.000038   0.000599  -0.006811  -0.032223
    31  H   -0.046663  -0.007221   0.000000   0.000000   0.000018   0.000819
    32  C   -0.007712   0.000157   0.000000   0.000000   0.000000   0.000009
    33  H    0.008549  -0.000176   0.000000   0.000000   0.000000   0.000046
    34  H   -0.000007   0.000000   0.000000   0.000000   0.000000   0.000000
    35  H    0.000135  -0.000021   0.000000   0.000000   0.000000   0.000000
    36  H    0.335502  -0.033764  -0.000020   0.000020  -0.000186  -0.009305
              13         14         15         16         17         18
     1  C   -0.000027  -0.000003   0.000000   0.000000   0.000000   0.000000
     2  C   -0.000032   0.000000   0.000000   0.000000   0.000000   0.000000
     3  C    0.000123   0.000005   0.000000   0.000000   0.000000  -0.000001
     4  C    0.000012   0.000000   0.000000   0.000000   0.000000   0.000001
     5  C   -0.000001   0.000000   0.000000   0.000000   0.000000  -0.000019
     6  O    0.000005   0.000000   0.000000   0.000000   0.000000  -0.000121
     7  N   -0.006165  -0.000155   0.000000   0.000001   0.000001  -0.000230
     8  C   -0.050984   0.008756   0.000004  -0.000145  -0.000156  -0.004104
     9  C   -0.009800   0.488536   0.375833  -0.037225  -0.036774   0.003055
    10  C   -0.049278  -0.030855  -0.034304   0.359587   0.004639  -0.046300
    11  C    0.019191  -0.050142   0.003663  -0.032197   0.000499   0.305839
    12  C    0.390220  -0.075046   0.000195   0.006402   0.006406  -0.051595
    13  C    4.619512   0.480531   0.003678   0.000485  -0.032698   0.002570
    14  C    0.480531   5.046115  -0.034859   0.004694   0.359111  -0.000051
    15  H    0.003678  -0.034859   0.577964  -0.005881  -0.005923  -0.000022
    16  H    0.000485   0.004694  -0.005881   0.589830  -0.000149  -0.000553
    17  H   -0.032698   0.359111  -0.005923  -0.000149   0.591334   0.000001
    18  F    0.002570  -0.000051  -0.000022  -0.000553   0.000001   9.067520
    19  F    0.304243  -0.046818  -0.000022   0.000001  -0.000394   0.000000
    20  H   -0.000002   0.000000   0.000000   0.000000   0.000000   0.000000
    21  H   -0.000005   0.000000   0.000000   0.000000   0.000000   0.000000
    22  H    0.000557   0.000032   0.000000   0.000000   0.000000   0.000000
    23  H    0.000001   0.000000   0.000000   0.000000   0.000000   0.000000
    24  H   -0.000019   0.000000   0.000000   0.000000   0.000000   0.000000
    25  H    0.000000   0.000000   0.000000   0.000000   0.000000   0.000000
    26  H    0.000000   0.000000   0.000000   0.000000   0.000000   0.000000
    27  H    0.000001   0.000000   0.000000   0.000000   0.000000   0.000014
    28  H   -0.000156  -0.000005   0.000000   0.000001   0.000000   0.001325
    29  H   -0.010748  -0.000174   0.000000   0.000003   0.000000   0.000226
    30  H    0.005074  -0.000153   0.000000  -0.000007   0.000002   0.009745
    31  H   -0.000038   0.000000   0.000000   0.000000   0.000000  -0.000008
    32  C   -0.000001   0.000000   0.000000   0.000000   0.000000   0.000000
    33  H   -0.000003   0.000000   0.000000   0.000000   0.000000   0.000000
    34  H    0.000000   0.000000   0.000000   0.000000   0.000000   0.000000
    35  H    0.000000   0.000000   0.000000   0.000000   0.000000   0.000000
    36  H    0.004097  -0.000070   0.000000   0.000000   0.000004  -0.000013
              19         20         21         22         23         24
     1  C   -0.000976   0.379077   0.386248   0.378594  -0.038514  -0.043057
     2  C   -0.000008  -0.027187  -0.036148  -0.033354   0.375395   0.383218
     3  C    0.000007   0.004225  -0.005657  -0.005364  -0.035141  -0.031046
     4  C    0.000000  -0.000149  -0.000033   0.000130  -0.000539  -0.008368
     5  C    0.000000   0.000002  -0.000006   0.000003   0.000206  -0.000020
     6  O    0.000000   0.000000   0.000000   0.000000   0.000006  -0.000008
     7  N   -0.002762  -0.000034  -0.000645   0.004349   0.004956  -0.007486
     8  C    0.004591   0.000093  -0.000434  -0.000685  -0.000096  -0.000120
     9  C    0.002925   0.000000   0.000000  -0.000001   0.000000   0.000000
    10  C   -0.000064   0.000000   0.000000   0.000000   0.000000   0.000000
    11  C    0.002358   0.000000   0.000000  -0.000013   0.000000   0.000001
    12  C   -0.058165   0.000002   0.000040  -0.000675   0.000003   0.000049
    13  C    0.304243  -0.000002  -0.000005   0.000557   0.000001  -0.000019
    14  C   -0.046818   0.000000   0.000000   0.000032   0.000000   0.000000
    15  H   -0.000022   0.000000   0.000000   0.000000   0.000000   0.000000
    16  H    0.000001   0.000000   0.000000   0.000000   0.000000   0.000000
    17  H   -0.000394   0.000000   0.000000   0.000000   0.000000   0.000000
    18  F    0.000000   0.000000   0.000000   0.000000   0.000000   0.000000
    19  F    9.068969   0.000001   0.000001   0.004947   0.000000  -0.000012
    20  H    0.000001   0.606716  -0.030604  -0.030318  -0.005913  -0.002060
    21  H    0.000001  -0.030604   0.604636  -0.033508  -0.003694   0.005636
    22  H    0.004947  -0.030318  -0.033508   0.608494   0.005815  -0.006970
    23  H    0.000000  -0.005913  -0.003694   0.005815   0.632399  -0.035713
    24  H   -0.000012  -0.002060   0.005636  -0.006970  -0.035713   0.626499
    25  H    0.000000  -0.000007   0.000000  -0.000001   0.003831  -0.000004
    26  H    0.000000   0.000000   0.000000   0.000000   0.000004   0.000001
    27  H    0.000000   0.000000   0.000000   0.000000  -0.000009  -0.000001
    28  H    0.000000   0.000000  -0.000001  -0.000006  -0.000031   0.000016
    29  H    0.002239  -0.000002   0.001471  -0.000786  -0.000168   0.000178
    30  H    0.000149  -0.000006   0.000019   0.000160   0.000033  -0.000015
    31  H   -0.000002   0.000033   0.005850  -0.000516  -0.003551   0.005742
    32  C    0.000000   0.000005   0.000005  -0.000019  -0.001403   0.002731
    33  H    0.000000   0.000000   0.000000  -0.000005   0.000028   0.000742
    34  H    0.000000   0.000000   0.000000   0.000000  -0.000050  -0.000079
    35  H    0.000000   0.000005  -0.000001   0.000009   0.000727   0.001567
    36  H    0.007742  -0.000132   0.000172   0.002017   0.000156   0.004683
              25         26         27         28         29         30
     1  C   -0.000008   0.000002  -0.000008   0.000000   0.001720   0.000096
     2  C   -0.004910  -0.000183   0.000171   0.000331   0.001091  -0.000189
     3  C   -0.040585   0.005060  -0.011746  -0.003259  -0.002801  -0.004038
     4  C    0.356375  -0.026550  -0.050669  -0.008067  -0.000427   0.000327
     5  C   -0.033019   0.375748   0.370012  -0.041559   0.000004   0.000317
     6  O    0.003522  -0.040925  -0.044732   0.282381  -0.000050   0.000965
     7  N    0.005209  -0.000242   0.000005   0.054542  -0.047856  -0.042360
     8  C   -0.000146   0.000015  -0.000191  -0.003234   0.357454   0.382366
     9  C    0.000000   0.000000   0.000000  -0.000006   0.000013  -0.000038
    10  C    0.000000   0.000000   0.000000  -0.000022  -0.000259   0.000599
    11  C    0.000000   0.000000  -0.000030   0.001702   0.004440  -0.006811
    12  C    0.000007  -0.000001   0.000059  -0.001002  -0.028582  -0.032223
    13  C    0.000000   0.000000   0.000001  -0.000156  -0.010748   0.005074
    14  C    0.000000   0.000000   0.000000  -0.000005  -0.000174  -0.000153
    15  H    0.000000   0.000000   0.000000   0.000000   0.000000   0.000000
    16  H    0.000000   0.000000   0.000000   0.000001   0.000003  -0.000007
    17  H    0.000000   0.000000   0.000000   0.000000   0.000000   0.000002
    18  F    0.000000   0.000000   0.000014   0.001325   0.000226   0.009745
    19  F    0.000000   0.000000   0.000000   0.000000   0.002239   0.000149
    20  H   -0.000007   0.000000   0.000000   0.000000  -0.000002  -0.000006
    21  H    0.000000   0.000000   0.000000  -0.000001   0.001471   0.000019
    22  H   -0.000001   0.000000   0.000000  -0.000006  -0.000786   0.000160
    23  H    0.003831   0.000004  -0.000009  -0.000031  -0.000168   0.000033
    24  H   -0.000004   0.000001  -0.000001   0.000016   0.000178  -0.000015
    25  H    0.673510  -0.003776   0.001677   0.000240   0.000018  -0.000051
    26  H   -0.003776   0.654764  -0.053050   0.005605  -0.000001   0.000013
    27  H    0.001677  -0.053050   0.707644  -0.000925  -0.000024   0.000246
    28  H    0.000240   0.005605  -0.000925   0.385889   0.000778  -0.001847
    29  H    0.000018  -0.000001  -0.000024   0.000778   0.656538  -0.044525
    30  H   -0.000051   0.000013   0.000246  -0.001847  -0.044525   0.595089
    31  H   -0.002494  -0.000146   0.006058   0.000589   0.002467   0.001864
    32  C   -0.040073  -0.009596   0.007554  -0.001482  -0.000007   0.000001
    33  H    0.006078  -0.000550   0.000252   0.001357   0.000014  -0.000021
    34  H   -0.003177   0.004730  -0.000058   0.000081   0.000000   0.000001
    35  H   -0.004861  -0.000161  -0.000125  -0.000076   0.000001  -0.000001
    36  H   -0.000162   0.000016  -0.000043  -0.000962  -0.005533   0.005791
              31         32         33         34         35         36
     1  C   -0.007231   0.000168  -0.000026  -0.000002  -0.000069   0.000275
     2  C   -0.039084  -0.006080  -0.000252   0.000123   0.002539  -0.007712
     3  C    0.385487  -0.044442  -0.008959   0.004671  -0.005484  -0.037086
     4  C   -0.046673   0.350273  -0.034647  -0.028719  -0.031902   0.001312
     5  C   -0.006000  -0.050323  -0.006194  -0.004331   0.004810   0.000006
     6  O   -0.000543   0.003354   0.007568  -0.000684   0.000306   0.000436
     7  N   -0.046663  -0.007712   0.008549  -0.000007   0.000135   0.335502
     8  C   -0.007221   0.000157  -0.000176   0.000000  -0.000021  -0.033764
     9  C    0.000000   0.000000   0.000000   0.000000   0.000000  -0.000020
    10  C    0.000000   0.000000   0.000000   0.000000   0.000000   0.000020
    11  C    0.000018   0.000000   0.000000   0.000000   0.000000  -0.000186
    12  C    0.000819   0.000009   0.000046   0.000000   0.000000  -0.009305
    13  C   -0.000038  -0.000001  -0.000003   0.000000   0.000000   0.004097
    14  C    0.000000   0.000000   0.000000   0.000000   0.000000  -0.000070
    15  H    0.000000   0.000000   0.000000   0.000000   0.000000   0.000000
    16  H    0.000000   0.000000   0.000000   0.000000   0.000000   0.000000
    17  H    0.000000   0.000000   0.000000   0.000000   0.000000   0.000004
    18  F   -0.000008   0.000000   0.000000   0.000000   0.000000  -0.000013
    19  F   -0.000002   0.000000   0.000000   0.000000   0.000000   0.007742
    20  H    0.000033   0.000005   0.000000   0.000000   0.000005  -0.000132
    21  H    0.005850   0.000005   0.000000   0.000000  -0.000001   0.000172
    22  H   -0.000516  -0.000019  -0.000005   0.000000   0.000009   0.002017
    23  H   -0.003551  -0.001403   0.000028  -0.000050   0.000727   0.000156
    24  H    0.005742   0.002731   0.000742  -0.000079   0.001567   0.004683
    25  H   -0.002494  -0.040073   0.006078  -0.003177  -0.004861  -0.000162
    26  H   -0.000146  -0.009596  -0.000550   0.004730  -0.000161   0.000016
    27  H    0.006058   0.007554   0.000252  -0.000058  -0.000125  -0.000043
    28  H    0.000589  -0.001482   0.001357   0.000081  -0.000076  -0.000962
    29  H    0.002467  -0.000007   0.000014   0.000000   0.000001  -0.005533
    30  H    0.001864   0.000001  -0.000021   0.000001  -0.000001   0.005791
    31  H    0.642883   0.005355   0.000146  -0.000150  -0.000009   0.005433
    32  C    0.005355   4.968869   0.383760   0.379216   0.377160   0.000952
    33  H    0.000146   0.383760   0.594990  -0.030376  -0.032333  -0.000418
    34  H   -0.000150   0.379216  -0.030376   0.609340  -0.031747  -0.000006
    35  H   -0.000009   0.377160  -0.032333  -0.031747   0.620714  -0.000060
    36  H    0.005433   0.000952  -0.000418  -0.000006  -0.000060   0.467296
 Mulliken charges:
               1
     1  C   -0.329802
     2  C   -0.193109
     3  C    0.081722
     4  C   -0.083235
     5  C    0.073540
     6  O   -0.598048
     7  N   -0.548506
     8  C   -0.095305
     9  C   -0.086148
    10  C   -0.149731
    11  C    0.328066
    12  C   -0.037275
    13  C    0.329659
    14  C   -0.149449
    15  H    0.119675
    16  H    0.115154
    17  H    0.114099
    18  F   -0.287277
    19  F   -0.288949
    20  H    0.106254
    21  H    0.106660
    22  H    0.107114
    23  H    0.101262
    24  H    0.103918
    25  H    0.082806
    26  H    0.089222
    27  H    0.067916
    28  H    0.327804
    29  H    0.113289
    30  H    0.129427
    31  H    0.097584
    32  C   -0.318430
    33  H    0.110428
    34  H    0.101224
    35  H    0.098877
    36  H    0.259566
 Sum of Mulliken charges =   0.00000
 Mulliken charges with hydrogens summed into heavy atoms:
               1
     1  C   -0.009775
     2  C    0.012071
     3  C    0.179306
     4  C   -0.000430
     5  C    0.230678
     6  O   -0.270245
     7  N   -0.288940
     8  C    0.147411
     9  C    0.033526
    10  C   -0.034577
    11  C    0.328066
    12  C   -0.037275
    13  C    0.329659
    14  C   -0.035350
    18  F   -0.287277
    19  F   -0.288949
    32  C   -0.007900
 Electronic spatial extent (au):  <R**2>=           4733.6569
 Charge=              0.0000 electrons
 Dipole moment (field-independent basis, Debye):
    X=             -1.1344    Y=              3.5789    Z=             -0.6845  Tot=              3.8162
 Quadrupole moment (field-independent basis, Debye-Ang):
   XX=            -85.0561   YY=           -110.5289   ZZ=           -100.6492
   XY=              4.9689   XZ=             -6.1726   YZ=              3.0844
 Traceless Quadrupole moment (field-independent basis, Debye-Ang):
   XX=             13.6887   YY=            -11.7842   ZZ=             -1.9045
   XY=              4.9689   XZ=             -6.1726   YZ=              3.0844
 Octapole moment (field-independent basis, Debye-Ang**2):
  XXX=            -56.0510  YYY=             20.0155  ZZZ=             -6.5438  XYY=            -12.8256
  XXY=             -8.2328  XXZ=             14.6422  XZZ=             -4.6526  YZZ=              4.1906
  YYZ=             -4.4254  XYZ=              1.6728
 Hexadecapole moment (field-independent basis, Debye-Ang**3):
 XXXX=          -3742.3484 YYYY=          -1653.0446 ZZZZ=           -519.6892 XXXY=             15.3363
 XXXZ=           -100.0048 YYYX=             32.5405 YYYZ=             47.9069 ZZZX=              2.6961
 ZZZY=             31.8683 XXYY=           -892.5413 XXZZ=           -766.7807 YYZZ=           -354.5000
 XXYZ=             26.6664 YYXZ=            -12.9524 ZZXY=            -10.6198
 N-N= 1.291543443009D+03 E-N=-4.536862289069D+03  KE= 8.291841949202D+02
 D1PCM: PCM CHGder 1st derivatives, ID1Alg=3 FixD1E=F DoIter=F DoCFld=F I1PDM=0.
 Calling FoFJK, ICntrl=      2127 FMM=F ISym2X=0 I1Cent= 0 IOpClX= 0 NMat=1 NMatS=1 NMatT=0.
 ***** Axes restored to original set *****
 -------------------------------------------------------------------
 Center     Atomic                   Forces (Hartrees/Bohr)
 Number     Number              X              Y              Z
 -------------------------------------------------------------------
      1        6          -0.000640397   -0.001039751   -0.004450409
      2        6           0.002190417   -0.004177076    0.002234951
      3        6           0.017877592    0.015911644   -0.001028708
      4        6           0.001288147   -0.001693749    0.002954279
      5        6          -0.008937913    0.000910940   -0.005778952
      6        8          -0.005478225    0.004348370    0.002190884
      7        7          -0.003500401   -0.004296970    0.002348176
      8        6          -0.000792234   -0.005376704   -0.003082196
      9        6           0.005738039   -0.001573430    0.001409497
     10        6          -0.003396561   -0.001725760    0.007326569
     11        6          -0.016009302    0.008032006   -0.013172372
     12        6           0.008812279   -0.003549237    0.000999460
     13        6          -0.021834281   -0.000399791    0.015016938
     14        6          -0.000174126    0.003020625   -0.008466866
     15        1           0.001926809   -0.000478159   -0.000017121
     16        1           0.001441240   -0.000435649   -0.000163266
     17        1           0.001503391   -0.000439463   -0.000042845
     18        9           0.005311824   -0.001895363    0.003979427
     19        9           0.009038398    0.000249712   -0.005451018
     20        1          -0.000924065   -0.000916122   -0.000784256
     21        1          -0.000523473   -0.001176873   -0.001097406
     22        1          -0.001159710   -0.001929992   -0.000491503
     23        1          -0.000030210    0.001841886    0.002172698
     24        1           0.000127363    0.001459453    0.003115886
     25        1           0.000420338   -0.001999065   -0.000713329
     26        1           0.000526298    0.000964571    0.000384025
     27        1           0.005845115   -0.006054120   -0.000412581
     28        1           0.004596112    0.001265657    0.001058626
     29        1           0.000211295   -0.002674293   -0.001794422
     30        1           0.000059453    0.004355765   -0.000952155
     31        1          -0.004306069    0.000424905   -0.000664467
     32        6           0.001559245    0.001902687   -0.002639041
     33        1           0.000427360   -0.001148518    0.001228158
     34        1          -0.000978848   -0.000419351    0.000280560
     35        1          -0.000362256    0.000364452   -0.000213949
     36        1           0.000147355   -0.001653236    0.004716729
 -------------------------------------------------------------------
 Cartesian Forces:  Max     0.021834281 RMS     0.005040835

 GradGradGradGradGradGradGradGradGradGradGradGradGradGradGradGradGradGrad
 Berny optimization.
 FormGI is forming the generalized inverse of G from B-inverse, IUseBI=4.
 Internal  Forces:  Max     0.009621768 RMS     0.002715681
 Search for a local minimum.
 Step number   1 out of a maximum of   50
 All quantities printed in internal units (Hartrees-Bohrs-Radians)
 Mixed Optimization -- RFO/linear search
 Second derivative matrix not updated -- first step.
 ITU=  0
     Eigenvalues ---    0.00230   0.00230   0.00230   0.00303   0.00470
     Eigenvalues ---    0.00699   0.00749   0.00786   0.01411   0.01567
     Eigenvalues ---    0.02145   0.02151   0.02155   0.02160   0.02163
     Eigenvalues ---    0.02167   0.02168   0.02169   0.02765   0.03163
     Eigenvalues ---    0.03372   0.03842   0.04630   0.04757   0.04783
     Eigenvalues ---    0.04862   0.04997   0.05134   0.05313   0.05509
     Eigenvalues ---    0.05537   0.05605   0.05617   0.05724   0.06540
     Eigenvalues ---    0.08604   0.09814   0.10999   0.11727   0.12395
     Eigenvalues ---    0.13168   0.13954   0.16000   0.16000   0.16000
     Eigenvalues ---    0.16000   0.16000   0.16000   0.16000   0.16000
     Eigenvalues ---    0.16000   0.16000   0.16699   0.16934   0.17521
     Eigenvalues ---    0.18204   0.21928   0.21947   0.22022   0.22085
     Eigenvalues ---    0.23432   0.23491   0.24908   0.24999   0.24999
     Eigenvalues ---    0.25000   0.26611   0.27881   0.28467   0.28967
     Eigenvalues ---    0.30138   0.32246   0.33784   0.33813   0.33989
     Eigenvalues ---    0.34024   0.34080   0.34166   0.34194   0.34227
     Eigenvalues ---    0.34237   0.34247   0.34299   0.34317   0.34342
     Eigenvalues ---    0.34386   0.35142   0.35165   0.35267   0.35293
     Eigenvalues ---    0.35925   0.42272   0.42348   0.42499   0.43907
     Eigenvalues ---    0.46336   0.46502   0.46549   0.46630   0.51077
     Eigenvalues ---    0.56887   0.57096
 RFO step:  Lambda=-7.98567952D-03 EMin= 2.30000000D-03
 Linear search not attempted -- first point.
 Iteration  1 RMS(Cart)=  0.06384761 RMS(Int)=  0.00177072
 Iteration  2 RMS(Cart)=  0.00274230 RMS(Int)=  0.00015961
 Iteration  3 RMS(Cart)=  0.00000607 RMS(Int)=  0.00015952
 Iteration  4 RMS(Cart)=  0.00000000 RMS(Int)=  0.00015952
 Variable       Old X    -DE/DX   Delta X   Delta X   Delta X     New X
                                 (Linear)    (Quad)   (Total)
    R1        2.87689   0.00903   0.00000   0.02920   0.02920   2.90609
    R2        2.06915  -0.00002   0.00000  -0.00004  -0.00004   2.06911
    R3        2.06798   0.00073   0.00000   0.00207   0.00207   2.07005
    R4        2.06683   0.00092   0.00000   0.00263   0.00263   2.06946
    R5        2.92400  -0.00185   0.00000  -0.00645  -0.00645   2.91755
    R6        2.07349   0.00009   0.00000   0.00026   0.00026   2.07375
    R7        2.07195   0.00028   0.00000   0.00080   0.00080   2.07276
    R8        2.95280  -0.00252   0.00000  -0.00921  -0.00921   2.94358
    R9        2.78744   0.00935   0.00000   0.02602   0.02602   2.81347
   R10        2.07696  -0.00118   0.00000  -0.00342  -0.00342   2.07354
   R11        2.91129  -0.00119   0.00000  -0.00408  -0.00408   2.90721
   R12        2.07647   0.00091   0.00000   0.00262   0.00262   2.07909
   R13        2.90072   0.00093   0.00000   0.00311   0.00311   2.90384
   R14        2.68578   0.00309   0.00000   0.00718   0.00718   2.69296
   R15        2.06932   0.00097   0.00000   0.00278   0.00278   2.07210
   R16        2.06949   0.00574   0.00000   0.01638   0.01638   2.08587
   R17        1.85493  -0.00323   0.00000  -0.00622  -0.00622   1.84871
   R18        2.77500   0.00722   0.00000   0.01965   0.01965   2.79465
   R19        1.93267  -0.00476   0.00000  -0.01066  -0.01066   1.92201
   R20        2.83696   0.00755   0.00000   0.02286   0.02286   2.85982
   R21        2.07004   0.00295   0.00000   0.00844   0.00844   2.07848
   R22        2.07289  -0.00327   0.00000  -0.00939  -0.00939   2.06350
   R23        2.63447   0.00079   0.00000   0.00188   0.00185   2.63632
   R24        2.63384   0.00176   0.00000   0.00386   0.00383   2.63768
   R25        2.05408  -0.00198   0.00000  -0.00551  -0.00551   2.04857
   R26        2.63561  -0.00300   0.00000  -0.00627  -0.00628   2.62933
   R27        2.05244  -0.00090   0.00000  -0.00248  -0.00248   2.04996
   R28        2.63672   0.00060   0.00000   0.00113   0.00115   2.63787
   R29        2.53315   0.00604   0.00000   0.01044   0.01044   2.54359
   R30        2.63879  -0.00110   0.00000  -0.00256  -0.00252   2.63627
   R31        2.63473  -0.00416   0.00000  -0.00884  -0.00883   2.62590
   R32        2.53493   0.00962   0.00000   0.01668   0.01668   2.55161
   R33        2.05201  -0.00068   0.00000  -0.00190  -0.00190   2.05012
   R34        2.06828  -0.00097   0.00000  -0.00275  -0.00275   2.06552
   R35        2.07051  -0.00038   0.00000  -0.00109  -0.00109   2.06942
   R36        2.06757   0.00006   0.00000   0.00017   0.00017   2.06774
    A1        1.91899   0.00165   0.00000   0.01159   0.01152   1.93051
    A2        1.94028   0.00130   0.00000   0.00628   0.00626   1.94654
    A3        1.94525   0.00169   0.00000   0.00968   0.00963   1.95488
    A4        1.88415  -0.00144   0.00000  -0.00794  -0.00799   1.87616
    A5        1.87343  -0.00135   0.00000  -0.00527  -0.00536   1.86807
    A6        1.89949  -0.00206   0.00000  -0.01549  -0.01549   1.88400
    A7        1.99502   0.00189   0.00000   0.01116   0.01116   2.00619
    A8        1.88371   0.00129   0.00000   0.02469   0.02462   1.90833
    A9        1.88774   0.00146   0.00000   0.01376   0.01385   1.90159
   A10        1.89871  -0.00142   0.00000  -0.00810  -0.00851   1.89020
   A11        1.93255  -0.00314   0.00000  -0.03252  -0.03262   1.89993
   A12        1.86090  -0.00010   0.00000  -0.00896  -0.00951   1.85139
   A13        1.93273   0.00086   0.00000   0.02578   0.02500   1.95773
   A14        1.95670   0.00170   0.00000   0.02178   0.02095   1.97765
   A15        1.87651  -0.00020   0.00000  -0.00626  -0.00616   1.87034
   A16        1.92215   0.00035   0.00000   0.01552   0.01456   1.93671
   A17        1.85373   0.00050   0.00000   0.00028   0.00038   1.85411
   A18        1.91865  -0.00336   0.00000  -0.06007  -0.05985   1.85880
   A19        1.94806  -0.00249   0.00000  -0.02028  -0.02028   1.92778
   A20        1.86769  -0.00056   0.00000  -0.00980  -0.00973   1.85796
   A21        1.98579   0.00132   0.00000   0.00245   0.00239   1.98818
   A22        1.85800   0.00124   0.00000   0.01498   0.01482   1.87282
   A23        1.92449   0.00053   0.00000   0.00155   0.00144   1.92594
   A24        1.87274   0.00004   0.00000   0.01323   0.01316   1.88590
   A25        1.95731   0.00076   0.00000   0.00731   0.00724   1.96456
   A26        1.92416   0.00028   0.00000  -0.01063  -0.01088   1.91328
   A27        1.93526  -0.00481   0.00000  -0.02730  -0.02778   1.90748
   A28        1.87618  -0.00172   0.00000  -0.01699  -0.01693   1.85925
[...]
    29  H    0.001935   0.001458  -0.002484  -0.000345   0.000013  -0.000050
    30  H    0.000089  -0.000306  -0.003453   0.000203   0.000267   0.001217
    31  H   -0.006160  -0.041772   0.385421  -0.044347  -0.006378  -0.000425
    32  C    0.000164  -0.006028  -0.045633   0.351492  -0.049274   0.001393
    33  H   -0.000021  -0.000205  -0.008564  -0.035606  -0.007135   0.009367
    34  H   -0.000002   0.000121   0.004768  -0.028685  -0.003900  -0.000560
    35  H   -0.000073   0.002427  -0.005834  -0.030792   0.004691   0.000263
    36  H    0.000091  -0.007418  -0.036501   0.000322   0.000006   0.000564
               7          8          9         10         11         12
     1  C   -0.001290  -0.001256   0.000000   0.000000  -0.000005   0.000097
     2  C   -0.050175  -0.001266   0.000000   0.000000   0.000000  -0.000325
     3  C    0.254045  -0.031945   0.000000   0.000004   0.000086   0.004043
     4  C   -0.056103   0.003920   0.000000   0.000000  -0.000021  -0.000176
     5  C   -0.000997  -0.000080   0.000000   0.000000   0.000003  -0.000047
     6  O   -0.025581   0.000516   0.000000   0.000002   0.000092  -0.000006
     7  N    6.962535   0.274494   0.000030  -0.000075   0.003554  -0.047586
     8  C    0.274494   4.906797  -0.000643   0.007698  -0.051596   0.316794
     9  C    0.000030  -0.000643   4.858405   0.485526  -0.006372  -0.026365
    10  C   -0.000075   0.007698   0.485526   5.039749   0.482700  -0.079430
    11  C    0.003554  -0.051596  -0.006372   0.482700   4.596863   0.398012
    12  C   -0.047586   0.316794  -0.026365  -0.079430   0.398012   5.320949
    13  C   -0.003255  -0.050944  -0.005586  -0.048082   0.020574   0.397989
    14  C   -0.000089   0.007619   0.486101  -0.037151  -0.045468  -0.078352
    15  H    0.000000   0.000005   0.374243  -0.034233   0.003554   0.000395
    16  H    0.000001  -0.000128  -0.036028   0.361713  -0.031506   0.006171
    17  H    0.000000  -0.000128  -0.035904   0.004382   0.000325   0.006149
    18  F   -0.001328   0.001539   0.002872  -0.045335   0.296963  -0.054323
    19  F   -0.000452  -0.001270   0.002895   0.000008   0.002509  -0.053217
    20  H   -0.000047   0.000099   0.000000   0.000000   0.000000   0.000003
    21  H   -0.000487  -0.000567   0.000000   0.000000   0.000000   0.000058
    22  H    0.004918  -0.000888  -0.000002   0.000000  -0.000022  -0.001144
    23  H    0.005007  -0.000081   0.000000   0.000000   0.000000   0.000004
    24  H   -0.007207  -0.000173   0.000000   0.000000   0.000001   0.000039
    25  H    0.005208  -0.000127   0.000000   0.000000   0.000000   0.000004
    26  H   -0.000197   0.000007   0.000000   0.000000   0.000000   0.000000
    27  H   -0.000061   0.000011   0.000000   0.000000  -0.000008   0.000028
    28  H    0.054326  -0.001246  -0.000005   0.000037   0.001751  -0.002675
    29  H   -0.046527   0.360115  -0.000018  -0.000135   0.006309  -0.030363
    30  H   -0.049059   0.376657   0.000000   0.000088  -0.009580  -0.024715
    31  H   -0.049748  -0.006353   0.000000   0.000000   0.000014   0.000758
    32  C   -0.006861   0.000096   0.000000   0.000000  -0.000001   0.000005
    33  H    0.006959  -0.000105   0.000000   0.000000   0.000003   0.000025
    34  H   -0.000021   0.000000   0.000000   0.000000   0.000000   0.000000
    35  H    0.000084  -0.000016   0.000000   0.000000   0.000000   0.000000
    36  H    0.334217  -0.039515  -0.000014  -0.000050  -0.000454  -0.001798
              13         14         15         16         17         18
     1  C   -0.000027  -0.000005   0.000000   0.000000   0.000000   0.000000
     2  C   -0.000001   0.000000   0.000000   0.000000   0.000000   0.000000
     3  C    0.000061   0.000005   0.000000   0.000000   0.000000   0.000018
     4  C    0.000004   0.000000   0.000000   0.000000   0.000000  -0.000002
     5  C   -0.000001   0.000000   0.000000   0.000000   0.000000  -0.000048
     6  O    0.000001   0.000000   0.000000   0.000000   0.000000  -0.000609
     7  N   -0.003255  -0.000089   0.000000   0.000001   0.000000  -0.001328
     8  C   -0.050944   0.007619   0.000005  -0.000128  -0.000128   0.001539
     9  C   -0.005586   0.486101   0.374243  -0.036028  -0.035904   0.002872
    10  C   -0.048082  -0.037151  -0.034233   0.361713   0.004382  -0.045335
    11  C    0.020574  -0.045468   0.003554  -0.031506   0.000325   0.296963
    12  C    0.397989  -0.078352   0.000395   0.006171   0.006149  -0.054323
    13  C    4.624842   0.478493   0.003579   0.000325  -0.032157   0.002713
    14  C    0.478493   5.038854  -0.034252   0.004363   0.362041  -0.000004
    15  H    0.003579  -0.034252   0.578227  -0.005633  -0.005638  -0.000024
    16  H    0.000325   0.004363  -0.005633   0.580824  -0.000129  -0.000391
    17  H   -0.032157   0.362041  -0.005638  -0.000129   0.582747   0.000001
    18  F    0.002713  -0.000004  -0.000024  -0.000391   0.000001   9.077206
    19  F    0.293001  -0.044249  -0.000025   0.000001  -0.000505  -0.000001
    20  H   -0.000004   0.000000   0.000000   0.000000   0.000000   0.000000
    21  H   -0.000017   0.000000   0.000000   0.000000   0.000000   0.000000
    22  H    0.000845   0.000059   0.000000   0.000000   0.000000   0.000000
    23  H    0.000001   0.000000   0.000000   0.000000   0.000000   0.000000
    24  H   -0.000012   0.000000   0.000000   0.000000   0.000000   0.000000
    25  H    0.000000   0.000000   0.000000   0.000000   0.000000   0.000000
    26  H    0.000000   0.000000   0.000000   0.000000   0.000000  -0.000001
    27  H    0.000000   0.000000   0.000000   0.000000   0.000000   0.000009
    28  H   -0.000086   0.000002   0.000000   0.000001   0.000000   0.007562
    29  H   -0.011687   0.000066   0.000000   0.000002  -0.000002   0.000178
    30  H    0.005163  -0.000181   0.000000  -0.000005   0.000002   0.005570
    31  H   -0.000029   0.000000   0.000000   0.000000   0.000000  -0.000004
    32  C    0.000000   0.000000   0.000000   0.000000   0.000000   0.000000
    33  H    0.000000   0.000000   0.000000   0.000000   0.000000  -0.000002
    34  H    0.000000   0.000000   0.000000   0.000000   0.000000   0.000000
    35  H    0.000000   0.000000   0.000000   0.000000   0.000000   0.000000
    36  H    0.003471  -0.000148   0.000000   0.000000   0.000002  -0.000032
              19         20         21         22         23         24
     1  C   -0.002128   0.378371   0.385230   0.374919  -0.036000  -0.040842
     2  C    0.000028  -0.026309  -0.034576  -0.031567   0.372947   0.381402
     3  C   -0.000014   0.003967  -0.004898  -0.005664  -0.035597  -0.033869
     4  C    0.000000  -0.000134  -0.000046   0.000133  -0.000414  -0.008378
     5  C    0.000000   0.000001  -0.000004   0.000003   0.000201  -0.000025
     6  O    0.000000   0.000000   0.000000   0.000000   0.000006  -0.000007
     7  N   -0.000452  -0.000047  -0.000487   0.004918   0.005007  -0.007207
     8  C   -0.001270   0.000099  -0.000567  -0.000888  -0.000081  -0.000173
     9  C    0.002895   0.000000   0.000000  -0.000002   0.000000   0.000000
    10  C    0.000008   0.000000   0.000000   0.000000   0.000000   0.000000
    11  C    0.002509   0.000000   0.000000  -0.000022   0.000000   0.000001
    12  C   -0.053217   0.000003   0.000058  -0.001144   0.000004   0.000039
    13  C    0.293001  -0.000004  -0.000017   0.000845   0.000001  -0.000012
    14  C   -0.044249   0.000000   0.000000   0.000059   0.000000   0.000000
    15  H   -0.000025   0.000000   0.000000   0.000000   0.000000   0.000000
    16  H    0.000001   0.000000   0.000000   0.000000   0.000000   0.000000
    17  H   -0.000505   0.000000   0.000000   0.000000   0.000000   0.000000
    18  F   -0.000001   0.000000   0.000000   0.000000   0.000000   0.000000
    19  F    9.084326   0.000004  -0.000004   0.009565   0.000000  -0.000002
    20  H    0.000004   0.607261  -0.031315  -0.030107  -0.004695  -0.002709
    21  H   -0.000004  -0.031315   0.605985  -0.034320  -0.004153   0.005375
    22  H    0.009565  -0.030107  -0.034320   0.604342   0.005349  -0.005630
    23  H    0.000000  -0.004695  -0.004153   0.005349   0.633856  -0.036830
    24  H   -0.000002  -0.002709   0.005375  -0.005630  -0.036830   0.631291
    25  H    0.000000  -0.000004  -0.000004  -0.000002   0.003878  -0.000077
    26  H    0.000000   0.000000   0.000000   0.000000   0.000004   0.000002
    27  H    0.000000   0.000000   0.000000   0.000000  -0.000012  -0.000001
    28  H    0.000000   0.000000  -0.000001  -0.000007  -0.000031   0.000011
    29  H    0.006119   0.000010   0.001697  -0.002422  -0.000208   0.000163
    30  H    0.000196  -0.000005   0.000007   0.000229   0.000032  -0.000009
    31  H    0.000000   0.000005   0.005268  -0.000493  -0.003729   0.006094
    32  C    0.000000   0.000004   0.000004  -0.000016  -0.001338   0.002864
    33  H    0.000000   0.000000   0.000000  -0.000004   0.000032   0.000572
    34  H    0.000000   0.000000   0.000000   0.000000  -0.000049  -0.000095
    35  H    0.000000   0.000005  -0.000001   0.000008   0.000706   0.001917
    36  H    0.000612  -0.000088   0.000122   0.001501   0.000146   0.004986
              25         26         27         28         29         30
     1  C   -0.000014   0.000002  -0.000007   0.000003   0.001935   0.000089
     2  C   -0.004416  -0.000191   0.000198   0.000335   0.001458  -0.000306
     3  C   -0.041769   0.005137  -0.012126  -0.002380  -0.002484  -0.003453
     4  C    0.357532  -0.027835  -0.053760  -0.008219  -0.000345   0.000203
     5  C   -0.031737   0.375647   0.365238  -0.042076   0.000013   0.000267
     6  O    0.003347  -0.041503  -0.041197   0.278387  -0.000050   0.001217
     7  N    0.005208  -0.000197  -0.000061   0.054326  -0.046527  -0.049059
     8  C   -0.000127   0.000007   0.000011  -0.001246   0.360115   0.376657
     9  C    0.000000   0.000000   0.000000  -0.000005  -0.000018   0.000000
    10  C    0.000000   0.000000   0.000000   0.000037  -0.000135   0.000088
    11  C    0.000000   0.000000  -0.000008   0.001751   0.006309  -0.009580
    12  C    0.000004   0.000000   0.000028  -0.002675  -0.030363  -0.024715
    13  C    0.000000   0.000000   0.000000  -0.000086  -0.011687   0.005163
    14  C    0.000000   0.000000   0.000000   0.000002   0.000066  -0.000181
    15  H    0.000000   0.000000   0.000000   0.000000   0.000000   0.000000
    16  H    0.000000   0.000000   0.000000   0.000001   0.000002  -0.000005
    17  H    0.000000   0.000000   0.000000   0.000000  -0.000002   0.000002
    18  F    0.000000  -0.000001   0.000009   0.007562   0.000178   0.005570
    19  F    0.000000   0.000000   0.000000   0.000000   0.006119   0.000196
    20  H   -0.000004   0.000000   0.000000   0.000000   0.000010  -0.000005
    21  H   -0.000004   0.000000   0.000000  -0.000001   0.001697   0.000007
    22  H   -0.000002   0.000000   0.000000  -0.000007  -0.002422   0.000229
    23  H    0.003878   0.000004  -0.000012  -0.000031  -0.000208   0.000032
    24  H   -0.000077   0.000002  -0.000001   0.000011   0.000163  -0.000009
    25  H    0.669286  -0.003670   0.001775   0.000194   0.000015  -0.000035
    26  H   -0.003670   0.657959  -0.052990   0.005784  -0.000001   0.000012
    27  H    0.001775  -0.052990   0.715579  -0.001214  -0.000018   0.000053
    28  H    0.000194   0.005784  -0.001214   0.382351   0.000649  -0.002452
    29  H    0.000015  -0.000001  -0.000018   0.000649   0.651379  -0.046983
    30  H   -0.000035   0.000012   0.000053  -0.002452  -0.046983   0.610795
    31  H   -0.003564  -0.000100   0.006534   0.000350   0.001857   0.002775
    32  C   -0.039314  -0.009346   0.007511  -0.001054  -0.000004   0.000002
    33  H    0.006095  -0.000569   0.000344   0.001104   0.000009  -0.000018
    34  H   -0.003820   0.004708  -0.000073   0.000052   0.000000   0.000000
    35  H   -0.003962  -0.000145  -0.000132  -0.000068   0.000000  -0.000001
    36  H   -0.000169   0.000017  -0.000042  -0.001546  -0.002976   0.006412
              31         32         33         34         35         36
     1  C   -0.006160   0.000164  -0.000021  -0.000002  -0.000073   0.000091
     2  C   -0.041772  -0.006028  -0.000205   0.000121   0.002427  -0.007418
     3  C    0.385421  -0.045633  -0.008564   0.004768  -0.005834  -0.036501
     4  C   -0.044347   0.351492  -0.035606  -0.028685  -0.030792   0.000322
     5  C   -0.006378  -0.049274  -0.007135  -0.003900   0.004691   0.000006
     6  O   -0.000425   0.001393   0.009367  -0.000560   0.000263   0.000564
     7  N   -0.049748  -0.006861   0.006959  -0.000021   0.000084   0.334217
     8  C   -0.006353   0.000096  -0.000105   0.000000  -0.000016  -0.039515
     9  C    0.000000   0.000000   0.000000   0.000000   0.000000  -0.000014
    10  C    0.000000   0.000000   0.000000   0.000000   0.000000  -0.000050
    11  C    0.000014  -0.000001   0.000003   0.000000   0.000000  -0.000454
    12  C    0.000758   0.000005   0.000025   0.000000   0.000000  -0.001798
    13  C   -0.000029   0.000000   0.000000   0.000000   0.000000   0.003471
    14  C    0.000000   0.000000   0.000000   0.000000   0.000000  -0.000148
    15  H    0.000000   0.000000   0.000000   0.000000   0.000000   0.000000
    16  H    0.000000   0.000000   0.000000   0.000000   0.000000   0.000000
    17  H    0.000000   0.000000   0.000000   0.000000   0.000000   0.000002
    18  F   -0.000004   0.000000  -0.000002   0.000000   0.000000  -0.000032
    19  F    0.000000   0.000000   0.000000   0.000000   0.000000   0.000612
    20  H    0.000005   0.000004   0.000000   0.000000   0.000005  -0.000088
    21  H    0.005268   0.000004   0.000000   0.000000  -0.000001   0.000122
    22  H   -0.000493  -0.000016  -0.000004   0.000000   0.000008   0.001501
    23  H   -0.003729  -0.001338   0.000032  -0.000049   0.000706   0.000146
    24  H    0.006094   0.002864   0.000572  -0.000095   0.001917   0.004986
    25  H   -0.003564  -0.039314   0.006095  -0.003820  -0.003962  -0.000169
    26  H   -0.000100  -0.009346  -0.000569   0.004708  -0.000145   0.000017
    27  H    0.006534   0.007511   0.000344  -0.000073  -0.000132  -0.000042
    28  H    0.000350  -0.001054   0.001104   0.000052  -0.000068  -0.001546
    29  H    0.001857  -0.000004   0.000009   0.000000   0.000000  -0.002976
    30  H    0.002775   0.000002  -0.000018   0.000000  -0.000001   0.006412
    31  H    0.646449   0.005453   0.000098  -0.000153  -0.000010   0.006231
    32  C    0.005453   4.967253   0.383077   0.379572   0.377933   0.001408
    33  H    0.000098   0.383077   0.597573  -0.030853  -0.032046  -0.000201
    34  H   -0.000153   0.379572  -0.030853   0.607511  -0.031056  -0.000017
    35  H   -0.000010   0.377933  -0.032046  -0.031056   0.615935  -0.000054
    36  H    0.006231   0.001408  -0.000201  -0.000017  -0.000054   0.473846
 Mulliken charges:
               1
     1  C   -0.334249
     2  C   -0.186662
     3  C    0.081954
     4  C   -0.086651
     5  C    0.073088
     6  O   -0.595400
     7  N   -0.558234
     8  C   -0.068042
     9  C   -0.099134
    10  C   -0.137418
    11  C    0.331718
    12  C   -0.051001
    13  C    0.320825
    14  C   -0.137703
    15  H    0.119801
    16  H    0.120418
    17  H    0.118814
    18  F   -0.292527
    19  F   -0.297395
    20  H    0.105687
    21  H    0.106644
    22  H    0.110419
    23  H    0.100968
    24  H    0.101149
    25  H    0.085352
    26  H    0.087268
    27  H    0.064361
    28  H    0.330159
    29  H    0.112250
    30  H    0.127031
    31  H    0.095961
    32  C   -0.319363
    33  H    0.110073
    34  H    0.102550
    35  H    0.100218
    36  H    0.257070
 Sum of Mulliken charges =   0.00000
 Mulliken charges with hydrogens summed into heavy atoms:
               1
     1  C   -0.011498
     2  C    0.015454
     3  C    0.177915
     4  C   -0.001300
     5  C    0.224718
     6  O   -0.265241
     7  N   -0.301163
     8  C    0.171238
     9  C    0.020667
    10  C   -0.017000
    11  C    0.331718
    12  C   -0.051001
    13  C    0.320825
    14  C   -0.018889
    18  F   -0.292527
    19  F   -0.297395
    32  C   -0.006521
 Electronic spatial extent (au):  <R**2>=           4784.5302
 Charge=              0.0000 electrons
 Dipole moment (field-independent basis, Debye):
    X=             -1.8319    Y=              3.5044    Z=              0.1290  Tot=              3.9564
 Quadrupole moment (field-independent basis, Debye-Ang):
   XX=            -85.8077   YY=           -111.6587   ZZ=            -99.6319
   XY=              8.2522   XZ=             -5.4730   YZ=              0.8687
 Traceless Quadrupole moment (field-independent basis, Debye-Ang):
   XX=             13.2251   YY=            -12.6259   ZZ=             -0.5991
   XY=              8.2522   XZ=             -5.4730   YZ=              0.8687
 Octapole moment (field-independent basis, Debye-Ang**2):
  XXX=            -58.3145  YYY=             18.5595  ZZZ=             -8.7491  XYY=            -22.1017
  XXY=             -5.6694  XXZ=             14.9495  XZZ=             -2.5110  YZZ=              0.9286
  YYZ=              0.9660  XYZ=              2.8709
 Hexadecapole moment (field-independent basis, Debye-Ang**3):
 XXXX=          -3795.1207 YYYY=          -1759.0317 ZZZZ=           -413.9775 XXXY=             -5.2964
 XXXZ=           -114.4876 YYYX=             54.2071 YYYZ=             17.8837 ZZZX=              5.4601
 ZZZY=             15.5503 XXYY=           -932.2125 XXZZ=           -766.5681 YYZZ=           -347.5678
 XXYZ=              9.6685 YYXZ=            -13.9122 ZZXY=            -10.9722
 N-N= 1.289141122762D+03 E-N=-4.532053576514D+03  KE= 8.290798327289D+02
 1\1\GINC-SWANNODE-0-13\FOpt\RB3LYP\6-31G(d,p)\C13H19F2N1O1\KE291\06-Ma
 r-2019\0\\# b3lyp/6-31g(d,p) Opt=(maxcycles=50) scrf=(solvent=chlorofo
 rm)\\AT3_2ginp005\\0,1\C,-2.6133896095,-1.6791049847,-0.6692615678\C,-
 2.1320958188,-0.7746844289,0.4715204545\C,-2.7427131269,-1.0656952528,
 1.8569487712\C,-2.0413939925,-0.2636755416,2.9886813828\C,-2.589003501
 6,-0.6680211727,4.3713492452\O,-3.9048461554,-0.1939118209,4.615649587
 7\N,-4.2179994931,-0.8598525776,1.9095033946\C,-5.029792508,-2.0745854
 66,1.6889813228\C,-9.2162388507,-1.0266583986,1.2917733855\C,-8.655339
 1522,-1.1622108296,2.5629730103\C,-7.311770151,-1.5008991493,2.6584432
 102\C,-6.4899725624,-1.7223732781,1.5507357238\C,-7.1044446482,-1.5626
 863143,0.3072399038\C,-8.4431191983,-1.2263508549,0.1474146161\H,-10.2
 637241736,-0.7622488222,1.1925274633\H,-9.2351128144,-1.0103689801,3.4
 658957995\H,-8.8553188121,-1.1248549182,-0.8497061531\F,-6.7614885007,
 -1.6335297336,3.8861892205\F,-6.3498801953,-1.7503602682,-0.8040481563
 \H,-2.0828977577,-1.4390610797,-1.596384581\H,-2.4288862221,-2.7363329
 434,-0.447330915\H,-3.6826005946,-1.5583285287,-0.8672483915\H,-1.0412
 148326,-0.8581086582,0.5602823505\H,-2.3326431984,0.271267846,0.205527
 3238\H,-0.9846977079,-0.5688071511,2.9706752358\H,-1.9456705505,-0.247
 1894481,5.1543132364\H,-2.5352465902,-1.7672194152,4.471020898\H,-4.38
 09743554,-0.3695677675,3.7763518384\H,-4.7199363206,-2.6431389881,0.80
 48981049\H,-4.8988431252,-2.7249436303,2.5591559914\H,-2.5747222134,-2
 .1281164187,2.0825036508\C,-2.1060417107,1.2604570453,2.8058824268\H,-
 3.1415837465,1.6114265567,2.7929216501\H,-1.6039308888,1.7623740414,3.
 6397328717\H,-1.6178508624,1.586339405,1.8833934367\H,-4.4898430583,-0
 .1499900732,1.2331342577\\Version=EM64L-G09RevD.01\State=1-A\HF=-836.4
 997561\RMSD=4.085e-09\RMSF=3.792e-06\Dipole=-0.3634222,-0.3091621,-1.4
 816283\Quadrupole=12.4123889,-2.3630155,-10.0493735,-2.0309654,-0.1687
 862,-3.5551143\PG=C01 [X(C13H19F2N1O1)]\\@


 THERE'S SMALL CHOICE IN A BOWL OF ROTTEN APPLES.
                     SHAKESPEARE
 Job cpu time:       0 days  3 hours 47 minutes 28.1 seconds.
 File lengths (MBytes):  RWF=    277 Int=      0 D2E=      0 Chk=     13 Scr=      1
 Normal termination of Gaussian 09 at Wed Mar  6 12:52:44 2019.
