 Entering Gaussian System, Link 0=/usr/local/shared/gaussian/em64t/09-D01/g09/g09
 Initial command:
 /usr/local/shared/gaussian/em64t/09-D01/g09/l1.exe "/scratch/ke291/AT3_2ginp007/Gau-30145.inp" -scrdir="/scratch/ke291/AT3_2ginp007/"
 Entering Link 1 = /usr/local/shared/gaussian/em64t/09-D01/g09/l1.exe PID=     30160.
  
 Copyright (c) 1988,1990,1992,1993,1995,1998,2003,2009,2013,
            Gaussian, Inc.  All Rights Reserved.
  
 This is part of the Gaussian(R) 09 program.  It is based on
 the Gaussian(R) 03 system (copyright 2003, Gaussian, Inc.),
 the Gaussian(R) 98 system (copyright 1998, Gaussian, Inc.),
 the Gaussian(R) 94 system (copyright 1995, Gaussian, Inc.),
 the Gaussian 92(TM) system (copyright 1992, Gaussian, Inc.),
 the Gaussian 90(TM) system (copyright 1990, Gaussian, Inc.),
 the Gaussian 88(TM) system (copyright 1988, Gaussian, Inc.),
 the Gaussian 86(TM) system (copyright 1986, Carnegie Mellon
 University), and the Gaussian 82(TM) system (copyright 1983,
 Carnegie Mellon University). Gaussian is a federally registered
 trademark of Gaussian, Inc.
  
 This software contains proprietary and confidential information,
 including trade secrets, belonging to Gaussian, Inc.
  
 This software is provided under written license and may be
 used, copied, transmitted, or stored only in accord with that
 written license.
  
 The following legend is applicable only to US Government
 contracts under FAR:
  
                    RESTRICTED RIGHTS LEGEND
  
 Use, reproduction and disclosure by the US Government is
 subject to restrictions as set forth in subparagraphs (a)
 and (c) of the Commercial Computer Software - Restricted
 Rights clause in FAR 52.227-19.
  
 Gaussian, Inc.
 340 Quinnipiac St., Bldg. 40, Wallingford CT 06492
  
  
 ---------------------------------------------------------------
 Warning -- This program may not be used in any manner that
 competes with the business of Gaussian, Inc. or will provide
 assistance to any competitor of Gaussian, Inc.  The licensee
 of this program is prohibited from giving any competitor of
 Gaussian, Inc. access to this program.  By using this program,
 the user acknowledges that Gaussian, Inc. is engaged in the
 business of creating and licensing software in the field of
 computational chemistry and represents and warrants to the
 licensee that it is not a competitor of Gaussian, Inc. and that
 it will not use this program in any manner prohibited above.
 ---------------------------------------------------------------
  

 Cite this work as:
 Gaussian 09, Revision D.01,
 M. J. Frisch, G. W. Trucks, H. B. Schlegel, G. E. Scuseria, 
 M. A. Robb, J. R. Cheeseman, G. Scalmani, V. Barone, B. Mennucci, 
 G. A. Petersson, H. Nakatsuji, M. Caricato, X. Li, H. P. Hratchian, 
 A. F. Izmaylov, J. Bloino, G. Zheng, J. L. Sonnenberg, M. Hada, 
 M. Ehara, K. Toyota, R. Fukuda, J. Hasegawa, M. Ishida, T. Nakajima, 
 Y. Honda, O. Kitao, H. Nakai, T. Vreven, J. A. Montgomery, Jr., 
 J. E. Peralta, F. Ogliaro, M. Bearpark, J. J. Heyd, E. Brothers, 
 K. N. Kudin, V. N. Staroverov, T. Keith, R. Kobayashi, J. Normand, 
 K. Raghavachari, A. Rendell, J. C. Burant, S. S. Iyengar, J. Tomasi, 
 M. Cossi, N. Rega, J. M. Millam, M. Klene, J. E. Knox, J. B. Cross, 
 V. Bakken, C. Adamo, J. Jaramillo, R. Gomperts, R. E. Stratmann, 
 O. Yazyev, A. J. Austin, R. Cammi, C. Pomelli, J. W. Ochterski, 
 R. L. Martin, K. Morokuma, V. G. Zakrzewski, G. A. Voth, 
 P. Salvador, J. J. Dannenberg, S. Dapprich, A. D. Daniels, 
 O. Farkas, J. B. Foresman, J. V. Ortiz, J. Cioslowski, 
 and D. J. Fox, Gaussian, Inc., Wallingford CT, 2013.
 
 ******************************************
 Gaussian 09:  EM64L-G09RevD.01 24-Apr-2013
                 6-Mar-2019 
 ******************************************
 %nprocshared=2
 Will use up to    2 processors via shared memory.
 %mem=6000MB
 %chk=AT3_2ginp007.chk
 ---------------------------------------------------------------
 # b3lyp/6-31g(d,p) Opt=(maxcycles=50) scrf=(solvent=chloroform)
 ---------------------------------------------------------------
 1/6=50,14=-1,18=20,19=15,26=3,38=1/1,3;
 2/9=110,12=2,17=6,18=5,40=1/2;
 3/5=1,6=6,7=101,11=2,16=1,25=1,30=1,70=2201,71=1,72=7,74=-5/1,2,3;
 4//1;
 5/5=2,38=5,53=7/2;
 6/7=2,8=2,9=2,10=2,28=1/1;
 7//1,2,3,16;
 1/6=50,14=-1,18=20,19=15,26=3/3(2);
 2/9=110/2;
 99//99;
 2/9=110/2;
 3/5=1,6=6,7=101,11=2,16=1,25=1,30=1,70=2205,71=1,72=7,74=-5/1,2,3;
 4/5=5,16=3,69=1/1;
 5/5=2,38=5,53=7/2;
 7//1,2,3,16;
 1/6=50,14=-1,18=20,19=15,26=3/3(-5);
 2/9=110/2;
 6/7=2,8=2,9=2,10=2,19=2,28=1/1;
 99/9=1/99;
 ------------
 AT3_2ginp007
 ------------
 Symbolic Z-matrix:
 Charge =  0 Multiplicity = 1
 C                    -2.28476  -0.2173   -0.82375 
 C                    -2.19443   0.01273   0.68245 
 C                    -2.9961   -1.01713   1.51697 
 C                    -2.66608  -0.94172   3.03825 
 C                    -2.96725   0.43322   3.65429 
 O                    -2.81118   0.3872    5.07125 
 N                    -4.44036  -0.81154   1.29861 
 C                    -5.22822  -2.02456   1.54066 
 C                    -9.44571  -1.1608    1.20031 
 C                    -8.83239  -1.18022   2.45222 
 C                    -7.47076  -1.46436   2.55438 
 C                    -6.69705  -1.73762   1.42529 
 C                    -7.32887  -1.70735   0.18107 
 C                    -8.68899  -1.42527   0.05987 
 H                    -10.50607  -0.93774   1.11421 
 H                    -9.40373  -0.97367   3.35238 
 H                    -9.14705  -1.41063  -0.92459 
 F                    -6.90955  -1.48046   3.77246 
 F                    -6.62084  -1.95147  -0.9316 
 H                    -1.61503   0.4737   -1.34631 
 H                    -1.98423  -1.23745  -1.08273 
 H                    -3.29444  -0.04557  -1.20659 
 H                    -1.13407  -0.03454   0.95123 
 H                    -2.52947   1.0335    0.90311 
 H                    -3.28078  -1.68137   3.56734 
 H                    -3.99004   0.76095   3.44409 
 H                    -2.28195   1.19783   3.27577 
 H                    -3.51871  -0.18812   5.41096 
 H                    -4.9549   -2.80555   0.81955 
 H                    -5.02767  -2.44185   2.53324 
 H                    -2.71544  -2.01435   1.15091 
 C                    -1.21525  -1.35522   3.32876 
 H                    -0.49788  -0.59973   2.99454 
 H                    -1.0618   -1.49795   4.40403 
 H                    -0.97373  -2.30259   2.83563 
 H                    -4.61477  -0.52526   0.33571 
 

 GradGradGradGradGradGradGradGradGradGradGradGradGradGradGradGradGradGrad
 Berny optimization.
 Initialization pass.
                           ----------------------------
                           !    Initial Parameters    !
                           ! (Angstroms and Degrees)  !
 --------------------------                            --------------------------
 ! Name  Definition              Value          Derivative Info.                !
 --------------------------------------------------------------------------------
 ! R1    R(1,2)                  1.5263         estimate D2E/DX2                !
 ! R2    R(1,20)                 1.095          estimate D2E/DX2                !
 ! R3    R(1,21)                 1.0946         estimate D2E/DX2                !
 ! R4    R(1,22)                 1.0934         estimate D2E/DX2                !
 ! R5    R(2,3)                  1.5491         estimate D2E/DX2                !
 ! R6    R(2,23)                 1.0949         estimate D2E/DX2                !
 ! R7    R(2,24)                 1.0968         estimate D2E/DX2                !
 ! R8    R(3,4)                  1.5585         estimate D2E/DX2                !
 ! R9    R(3,7)                  1.4751         estimate D2E/DX2                !
 ! R10   R(3,31)                 1.0987         estimate D2E/DX2                !
 ! R11   R(4,5)                  1.5364         estimate D2E/DX2                !
 ! R12   R(4,25)                 1.0977         estimate D2E/DX2                !
 ! R13   R(4,32)                 1.5363         estimate D2E/DX2                !
 ! R14   R(5,6)                  1.4263         estimate D2E/DX2                !
 ! R15   R(5,26)                 1.0944         estimate D2E/DX2                !
 ! R16   R(5,27)                 1.0943         estimate D2E/DX2                !
 ! R17   R(6,28)                 0.9731         estimate D2E/DX2                !
 ! R18   R(7,8)                  1.4665         estimate D2E/DX2                !
 ! R19   R(7,36)                 1.0196         estimate D2E/DX2                !
 ! R20   R(8,12)                 1.501          estimate D2E/DX2                !
 ! R21   R(8,29)                 1.0976         estimate D2E/DX2                !
 ! R22   R(8,30)                 1.0952         estimate D2E/DX2                !
 ! R23   R(9,10)                 1.3942         estimate D2E/DX2                !
 ! R24   R(9,14)                 1.394          estimate D2E/DX2                !
 ! R25   R(9,15)                 1.087          estimate D2E/DX2                !
 ! R26   R(10,11)                1.3947         estimate D2E/DX2                !
 ! R27   R(10,16)                1.086          estimate D2E/DX2                !
 ! R28   R(11,12)                1.3958         estimate D2E/DX2                !
 ! R29   R(11,18)                1.3412         estimate D2E/DX2                !
 ! R30   R(12,13)                1.3958         estimate D2E/DX2                !
 ! R31   R(13,14)                1.3943         estimate D2E/DX2                !
 ! R32   R(13,19)                1.3412         estimate D2E/DX2                !
 ! R33   R(14,17)                1.0859         estimate D2E/DX2                !
 ! R34   R(32,33)                1.0941         estimate D2E/DX2                !
 ! R35   R(32,34)                1.0955         estimate D2E/DX2                !
 ! R36   R(32,35)                1.095          estimate D2E/DX2                !
 ! A1    A(2,1,20)             109.8534         estimate D2E/DX2                !
 ! A2    A(2,1,21)             110.9585         estimate D2E/DX2                !
 ! A3    A(2,1,22)             112.1168         estimate D2E/DX2                !
 ! A4    A(20,1,21)            107.8962         estimate D2E/DX2                !
 ! A5    A(20,1,22)            107.3725         estimate D2E/DX2                !
 ! A6    A(21,1,22)            108.4866         estimate D2E/DX2                !
 ! A7    A(1,2,3)              113.6274         estimate D2E/DX2                !
 ! A8    A(1,2,23)             107.0403         estimate D2E/DX2                !
 ! A9    A(1,2,24)             108.7062         estimate D2E/DX2                !
 ! A10   A(3,2,23)             109.8913         estimate D2E/DX2                !
 ! A11   A(3,2,24)             110.6262         estimate D2E/DX2                !
 ! A12   A(23,2,24)            106.6563         estimate D2E/DX2                !
 ! A13   A(2,3,4)              112.5875         estimate D2E/DX2                !
 ! A14   A(2,3,7)              109.5297         estimate D2E/DX2                !
 ! A15   A(2,3,31)             106.9604         estimate D2E/DX2                !
 ! A16   A(4,3,7)              110.1872         estimate D2E/DX2                !
 ! A17   A(4,3,31)             108.363          estimate D2E/DX2                !
 ! A18   A(7,3,31)             109.1041         estimate D2E/DX2                !
 ! A19   A(3,4,5)              113.1518         estimate D2E/DX2                !
 ! A20   A(3,4,25)             108.621          estimate D2E/DX2                !
 ! A21   A(3,4,32)             111.8101         estimate D2E/DX2                !
 ! A22   A(5,4,25)             107.4559         estimate D2E/DX2                !
 ! A23   A(5,4,32)             110.4967         estimate D2E/DX2                !
 ! A24   A(25,4,32)            104.8528         estimate D2E/DX2                !
 ! A25   A(4,5,6)              110.3657         estimate D2E/DX2                !
 ! A26   A(4,5,26)             111.9733         estimate D2E/DX2                !
 ! A27   A(4,5,27)             111.3351         estimate D2E/DX2                !
 ! A28   A(6,5,26)             107.6228         estimate D2E/DX2                !
 ! A29   A(6,5,27)             107.3163         estimate D2E/DX2                !
 ! A30   A(26,5,27)            108.0341         estimate D2E/DX2                !
 ! A31   A(5,6,28)             106.6383         estimate D2E/DX2                !
 ! A32   A(3,7,8)              112.7237         estimate D2E/DX2                !
 ! A33   A(3,7,36)             110.2687         estimate D2E/DX2                !
 ! A34   A(8,7,36)             107.2304         estimate D2E/DX2                !
 ! A35   A(7,8,12)             110.7872         estimate D2E/DX2                !
 ! A36   A(7,8,29)             110.2642         estimate D2E/DX2                !
 ! A37   A(7,8,30)             111.4903         estimate D2E/DX2                !
 ! A38   A(12,8,29)            109.2203         estimate D2E/DX2                !
 ! A39   A(12,8,30)            108.7635         estimate D2E/DX2                !
 ! A40   A(29,8,30)            106.1835         estimate D2E/DX2                !
 ! A41   A(10,9,14)            119.5493         estimate D2E/DX2                !
 ! A42   A(10,9,15)            120.2058         estimate D2E/DX2                !
 ! A43   A(14,9,15)            120.2446         estimate D2E/DX2                !
 ! A44   A(9,10,11)            119.8729         estimate D2E/DX2                !
 ! A45   A(9,10,16)            120.6773         estimate D2E/DX2                !
 ! A46   A(11,10,16)           119.4497         estimate D2E/DX2                !
 ! A47   A(10,11,12)           121.4542         estimate D2E/DX2                !
 ! A48   A(10,11,18)           118.52           estimate D2E/DX2                !
 ! A49   A(12,11,18)           120.0242         estimate D2E/DX2                !
 ! A50   A(8,12,11)            121.1773         estimate D2E/DX2                !
 ! A51   A(8,12,13)            121.0382         estimate D2E/DX2                !
 ! A52   A(11,12,13)           117.7709         estimate D2E/DX2                !
 ! A53   A(12,13,14)           121.562          estimate D2E/DX2                !
 ! A54   A(12,13,19)           119.7749         estimate D2E/DX2                !
 ! A55   A(14,13,19)           118.663          estimate D2E/DX2                !
 ! A56   A(9,14,13)            119.7888         estimate D2E/DX2                !
 ! A57   A(9,14,17)            120.6729         estimate D2E/DX2                !
 ! A58   A(13,14,17)           119.5379         estimate D2E/DX2                !
 ! A59   A(4,32,33)            112.0593         estimate D2E/DX2                !
 ! A60   A(4,32,34)            110.6681         estimate D2E/DX2                !
 ! A61   A(4,32,35)            110.8544         estimate D2E/DX2                !
 ! A62   A(33,32,34)           107.3353         estimate D2E/DX2                !
 ! A63   A(33,32,35)           108.3741         estimate D2E/DX2                !
 ! A64   A(34,32,35)           107.3616         estimate D2E/DX2                !
 ! D1    D(20,1,2,3)          -174.0002         estimate D2E/DX2                !
 ! D2    D(20,1,2,23)          -52.5            estimate D2E/DX2                !
 ! D3    D(20,1,2,24)           62.353          estimate D2E/DX2                !
 ! D4    D(21,1,2,3)           -54.7804         estimate D2E/DX2                !
 ! D5    D(21,1,2,23)           66.7199         estimate D2E/DX2                !
 ! D6    D(21,1,2,24)         -178.4271         estimate D2E/DX2                !
 ! D7    D(22,1,2,3)            66.6983         estimate D2E/DX2                !
 ! D8    D(22,1,2,23)         -171.8015         estimate D2E/DX2                !
 ! D9    D(22,1,2,24)          -56.9485         estimate D2E/DX2                !
 ! D10   D(1,2,3,4)            168.5732         estimate D2E/DX2                !
 ! D11   D(1,2,3,7)            -68.4615         estimate D2E/DX2                !
 ! D12   D(1,2,3,31)            49.6528         estimate D2E/DX2                !
 ! D13   D(23,2,3,4)            48.6767         estimate D2E/DX2                !
 ! D14   D(23,2,3,7)           171.642          estimate D2E/DX2                !
 ! D15   D(23,2,3,31)          -70.2437         estimate D2E/DX2                !
 ! D16   D(24,2,3,4)           -68.8319         estimate D2E/DX2                !
 ! D17   D(24,2,3,7)            54.1334         estimate D2E/DX2                !
 ! D18   D(24,2,3,31)          172.2476         estimate D2E/DX2                !
 ! D19   D(2,3,4,5)             59.6854         estimate D2E/DX2                !
 ! D20   D(2,3,4,25)           178.9173         estimate D2E/DX2                !
 ! D21   D(2,3,4,32)           -65.8567         estimate D2E/DX2                !
 ! D22   D(7,3,4,5)            -62.9112         estimate D2E/DX2                !
 ! D23   D(7,3,4,25)            56.3207         estimate D2E/DX2                !
 ! D24   D(7,3,4,32)           171.5467         estimate D2E/DX2                !
 ! D25   D(31,3,4,5)           177.7836         estimate D2E/DX2                !
 ! D26   D(31,3,4,25)          -62.9844         estimate D2E/DX2                !
 ! D27   D(31,3,4,32)           52.2416         estimate D2E/DX2                !
 ! D28   D(2,3,7,8)            154.9719         estimate D2E/DX2                !
 ! D29   D(2,3,7,36)            35.1704         estimate D2E/DX2                !
 ! D30   D(4,3,7,8)            -80.6516         estimate D2E/DX2                !
 ! D31   D(4,3,7,36)           159.5469         estimate D2E/DX2                !
 ! D32   D(31,3,7,8)            38.2017         estimate D2E/DX2                !
 ! D33   D(31,3,7,36)          -81.5999         estimate D2E/DX2                !
 ! D34   D(3,4,5,6)            172.4585         estimate D2E/DX2                !
 ! D35   D(3,4,5,26)            52.59           estimate D2E/DX2                !
 ! D36   D(3,4,5,27)           -68.4738         estimate D2E/DX2                !
 ! D37   D(25,4,5,6)            52.5577         estimate D2E/DX2                !
 ! D38   D(25,4,5,26)          -67.3108         estimate D2E/DX2                !
 ! D39   D(25,4,5,27)          171.6254         estimate D2E/DX2                !
 ! D40   D(32,4,5,6)           -61.2972         estimate D2E/DX2                !
 ! D41   D(32,4,5,26)          178.8343         estimate D2E/DX2                !
 ! D42   D(32,4,5,27)           57.7706         estimate D2E/DX2                !
 ! D43   D(3,4,32,33)           72.0301         estimate D2E/DX2                !
 ! D44   D(3,4,32,34)         -168.2026         estimate D2E/DX2                !
 ! D45   D(3,4,32,35)          -49.1906         estimate D2E/DX2                !
 ! D46   D(5,4,32,33)          -54.9614         estimate D2E/DX2                !
 ! D47   D(5,4,32,34)           64.8059         estimate D2E/DX2                !
 ! D48   D(5,4,32,35)         -176.1821         estimate D2E/DX2                !
 ! D49   D(25,4,32,33)        -170.4576         estimate D2E/DX2                !
 ! D50   D(25,4,32,34)         -50.6903         estimate D2E/DX2                !
 ! D51   D(25,4,32,35)          68.3217         estimate D2E/DX2                !
 ! D52   D(4,5,6,28)           -67.3294         estimate D2E/DX2                !
 ! D53   D(26,5,6,28)           55.1296         estimate D2E/DX2                !
 ! D54   D(27,5,6,28)          171.1879         estimate D2E/DX2                !
 ! D55   D(3,7,8,12)           174.9838         estimate D2E/DX2                !
 ! D56   D(3,7,8,29)           -63.9848         estimate D2E/DX2                !
 ! D57   D(3,7,8,30)            53.7035         estimate D2E/DX2                !
 ! D58   D(36,7,8,12)          -63.4754         estimate D2E/DX2                !
 ! D59   D(36,7,8,29)           57.556          estimate D2E/DX2                !
 ! D60   D(36,7,8,30)          175.2443         estimate D2E/DX2                !
 ! D61   D(7,8,12,11)          -96.1469         estimate D2E/DX2                !
 ! D62   D(7,8,12,13)           82.4773         estimate D2E/DX2                !
 ! D63   D(29,8,12,11)         142.2065         estimate D2E/DX2                !
 ! D64   D(29,8,12,13)         -39.1693         estimate D2E/DX2                !
 ! D65   D(30,8,12,11)          26.728          estimate D2E/DX2                !
 ! D66   D(30,8,12,13)        -154.6478         estimate D2E/DX2                !
 ! D67   D(14,9,10,11)          -0.0564         estimate D2E/DX2                !
 ! D68   D(14,9,10,16)         179.7982         estimate D2E/DX2                !
 ! D69   D(15,9,10,11)        -179.8583         estimate D2E/DX2                !
 ! D70   D(15,9,10,16)          -0.0037         estimate D2E/DX2                !
 ! D71   D(10,9,14,13)           0.0553         estimate D2E/DX2                !
 ! D72   D(10,9,14,17)        -179.7275         estimate D2E/DX2                !
 ! D73   D(15,9,14,13)         179.8572         estimate D2E/DX2                !
 ! D74   D(15,9,14,17)           0.0743         estimate D2E/DX2                !
 ! D75   D(9,10,11,12)          -0.2313         estimate D2E/DX2                !
 ! D76   D(9,10,11,18)        -179.7702         estimate D2E/DX2                !
 ! D77   D(16,10,11,12)        179.9124         estimate D2E/DX2                !
 ! D78   D(16,10,11,18)          0.3735         estimate D2E/DX2                !
 ! D79   D(10,11,12,8)         179.1711         estimate D2E/DX2                !
 ! D80   D(10,11,12,13)          0.5034         estimate D2E/DX2                !
 ! D81   D(18,11,12,8)          -1.2968         estimate D2E/DX2                !
 ! D82   D(18,11,12,13)       -179.9645         estimate D2E/DX2                !
 ! D83   D(8,12,13,14)        -179.1746         estimate D2E/DX2                !
 ! D84   D(8,12,13,19)           0.7074         estimate D2E/DX2                !
 ! D85   D(11,12,13,14)         -0.505          estimate D2E/DX2                !
 ! D86   D(11,12,13,19)        179.3771         estimate D2E/DX2                !
 ! D87   D(12,13,14,9)           0.2336         estimate D2E/DX2                !
 ! D88   D(12,13,14,17)       -179.9811         estimate D2E/DX2                !
 ! D89   D(19,13,14,9)        -179.6498         estimate D2E/DX2                !
 ! D90   D(19,13,14,17)          0.1355         estimate D2E/DX2                !
 --------------------------------------------------------------------------------
 Trust Radius=3.00D-01 FncErr=1.00D-07 GrdErr=1.00D-06
 Number of steps in this run=     50 maximum allowed number of steps=    216.
 GradGradGradGradGradGradGradGradGradGradGradGradGradGradGradGradGradGrad

                          Input orientation:                          
 ---------------------------------------------------------------------
 Center     Atomic      Atomic             Coordinates (Angstroms)
 Number     Number       Type             X           Y           Z
 ---------------------------------------------------------------------
      1          6           0       -2.284759   -0.217302   -0.823752
      2          6           0       -2.194429    0.012725    0.682452
      3          6           0       -2.996101   -1.017128    1.516967
      4          6           0       -2.666077   -0.941716    3.038250
      5          6           0       -2.967254    0.433216    3.654285
      6          8           0       -2.811178    0.387201    5.071246
      7          7           0       -4.440361   -0.811539    1.298610
      8          6           0       -5.228216   -2.024558    1.540658
      9          6           0       -9.445710   -1.160802    1.200308
     10          6           0       -8.832394   -1.180223    2.452221
     11          6           0       -7.470757   -1.464362    2.554377
     12          6           0       -6.697053   -1.737622    1.425293
     13          6           0       -7.328874   -1.707351    0.181066
     14          6           0       -8.688985   -1.425266    0.059874
     15          1           0      -10.506069   -0.937735    1.114213
     16          1           0       -9.403733   -0.973668    3.352379
     17          1           0       -9.147053   -1.410629   -0.924587
     18          9           0       -6.909545   -1.480458    3.772463
     19          9           0       -6.620836   -1.951473   -0.931603
     20          1           0       -1.615033    0.473702   -1.346306
     21          1           0       -1.984225   -1.237449   -1.082734
     22          1           0       -3.294438   -0.045573   -1.206587
     23          1           0       -1.134066   -0.034543    0.951229
     24          1           0       -2.529472    1.033502    0.903110
     25          1           0       -3.280782   -1.681369    3.567335
     26          1           0       -3.990036    0.760949    3.444085
     27          1           0       -2.281954    1.197829    3.275769
     28          1           0       -3.518706   -0.188119    5.410964
     29          1           0       -4.954903   -2.805554    0.819550
     30          1           0       -5.027668   -2.441845    2.533235
     31          1           0       -2.715438   -2.014346    1.150906
     32          6           0       -1.215248   -1.355215    3.328762
     33          1           0       -0.497879   -0.599733    2.994535
     34          1           0       -1.061795   -1.497954    4.404026
     35          1           0       -0.973730   -2.302590    2.835634
     36          1           0       -4.614772   -0.525263    0.335708
 ---------------------------------------------------------------------
                    Distance matrix (angstroms):
                    1          2          3          4          5
     1  C    0.000000
     2  C    1.526343   0.000000
     3  C    2.573848   1.549093   0.000000
     4  C    3.947814   2.585187   1.558494   0.000000
     5  C    4.576220   3.099333   2.583110   1.536439   0.000000
     6  O    5.949247   4.447710   3.826125   2.433135   1.426273
     7  N    3.082881   2.470480   1.475071   2.488248   3.044448
     8  C    4.185755   3.753785   2.449043   3.159096   3.952217
     9  C    7.501082   7.363859   6.458976   7.027763   7.108677
    10  C    7.384493   6.972646   5.913004   6.198692   6.200646
    11  C    6.313596   5.790123   4.615061   4.857185   5.009205
    12  C    5.180532   4.887653   3.771546   4.414053   4.857195
    13  C    5.354718   5.438067   4.586280   5.521899   5.972353
    14  C    6.576784   6.680919   5.890554   6.736465   7.007992
    15  H    8.477303   8.376942   7.521179   8.072633   8.072497
    16  H    8.288061   7.750842   6.665461   6.745051   6.595357
    17  H    6.966009   7.276503   6.629498   7.610979   7.909219
    18  F    6.641491   5.831816   4.540593   4.340084   4.383808
    19  F    4.671247   5.104540   4.472941   5.693809   6.329753
    20  H    1.095026   2.159643   3.511162   4.725720   5.180352
    21  H    1.094574   2.173247   2.798371   4.187468   5.118283
    22  H    1.093392   2.186753   2.907004   4.383669   4.895341
    23  H    2.123218   1.094918   2.180070   2.743297   3.299377
    24  H    2.146264   1.096781   2.190810   2.911867   2.849730
    25  H    4.734680   3.517480   2.173998   1.097670   2.139470
    26  H    4.698870   3.377967   2.804148   2.194684   1.094384
    27  H    4.336897   2.852617   2.917092   2.186691   1.094323
    28  H    6.355719   4.914557   4.015418   2.631474   1.943213
    29  H    4.065607   3.947367   2.742583   3.692593   4.740897
    30  H    4.872525   4.180617   2.681396   2.842981   3.710530
    31  H    2.704464   2.144742   1.098734   2.171414   3.510111
    32  C    4.436448   3.135763   2.562878   1.536321   2.524673
    33  H    4.233026   2.932425   2.932327   2.195438   2.756822
    34  H    5.519545   4.173143   3.508254   2.179097   2.814659
    35  H    4.411160   3.389245   2.735193   2.181071   3.482666
    36  H    2.620715   2.503542   2.063347   3.357764   3.827003
                    6          7          8          9         10
     6  O    0.000000
     7  N    4.280654   0.000000
     8  C    4.911589   1.466533   0.000000
     9  C    7.835655   5.018482   4.318468   0.000000
    10  C    6.750641   4.555952   3.812342   1.394209   0.000000
    11  C    5.610222   3.344612   2.523972   2.413730   1.394714
    12  C    5.736538   2.442609   1.501041   2.817526   2.434123
    13  C    6.979297   3.224111   2.522276   2.412170   2.774271
    14  C    7.933946   4.467878   3.811666   1.393974   2.409136
    15  H    8.753566   6.069822   5.405439   1.086983   2.156445
    16  H    6.947536   5.373948   4.671364   2.160600   1.085992
    17  H    8.906487   5.239701   4.670292   2.160275   3.399254
    18  F    4.687387   3.558689   2.846729   3.626333   2.351708
    19  F    7.484456   3.320809   2.838451   3.626309   4.115347
    20  H    6.528646   4.077978   5.256516   8.395019   8.321933
    21  H    6.418318   3.447434   4.245610   7.803327   7.706919
    22  H    6.311261   2.859345   3.899132   6.698882   6.733741
    23  H    4.468234   3.414086   4.590169   8.391301   7.926526
    24  H    4.227342   2.685534   4.128125   7.262069   6.857634
    25  H    2.600242   2.692274   2.831554   6.624209   5.684630
    26  H    2.043782   2.697883   3.593769   6.204195   5.310402
    27  H    2.039837   3.550414   4.698388   7.822409   7.017238
    28  H    0.973138   4.260230   4.612396   7.335197   6.162281
    29  H    5.732902   2.114320   1.097566   4.797659   4.510239
    30  H    4.399753   2.127704   1.095243   4.789244   4.009263
    31  H    4.598441   2.108061   2.542846   6.784360   6.309226
    32  C    2.935857   3.849475   4.444013   8.503447   7.669411
    33  H    3.261613   4.296998   5.149755   9.143179   8.372288
    34  H    2.656940   4.639987   5.082839   8.981509   8.018273
    35  H    3.950842   4.074703   4.455886   8.703586   7.947661
    36  H    5.148870   1.019585   2.018936   4.948677   4.764130
                   11         12         13         14         15
    11  C    0.000000
    12  C    1.395751   0.000000
    13  C    2.389933   1.395785   0.000000
    14  C    2.776356   2.435103   1.394332   0.000000
    15  H    3.400666   3.904509   3.399653   2.156644   0.000000
    16  H    2.148019   3.409311   3.860124   3.399323   2.495160
    17  H    3.862130   3.410478   2.148555   1.085912   2.495448
    18  F    1.341250   2.370758   3.622906   4.117374   4.505089
    19  F    3.621008   2.367805   1.341248   2.353117   4.506447
    20  H    7.298008   6.196664   6.303795   7.458165   9.332568
    21  H    6.586509   5.362007   5.512102   6.804016   8.805579
    22  H    5.796504   4.622511   4.578620   5.710395   7.628217
    23  H    6.690898   5.837126   6.462746   7.733397   9.416834
    24  H    5.777742   5.031951   5.573857   6.685521   8.219272
    25  H    4.316140   4.032669   5.277740   6.451088   7.666523
    26  H    4.225992   4.200752   5.280875   6.189713   7.125484
    27  H    5.876338   5.615535   6.594593   7.633653   8.767498
    28  H    5.040594   5.328079   6.646599   7.542976   8.236943
    29  H    3.337356   2.131312   2.692480   4.052860   5.864386
    30  H    2.631464   2.123749   3.371606   4.533893   5.855668
    31  H    4.988514   4.000640   4.724259   6.100871   7.864755
    32  C    6.304203   5.815463   6.885377   8.157652   9.560223
    33  H    7.040053   6.495157   7.470269   8.740020  10.188902
    34  H    6.670616   6.378591   7.559995   8.777868  10.016538
    35  H    6.556912   5.921543   6.912951   8.246193   9.782209
    36  H    3.736449   2.644410   2.964388   4.181543   5.956810
                   16         17         18         19         20
    16  H    0.000000
    17  H    4.306885   0.000000
    18  F    2.579589   5.203229   0.000000
    19  F    5.201261   2.583473   4.736396   0.000000
    20  H    9.210666   7.775595   7.619212   5.577770   0.000000
    21  H    8.648058   7.166666   6.920316   4.693701   1.770257
    22  H    7.679129   6.016312   6.318135   3.843565   1.763397
    23  H    8.662267   8.343876   6.588337   6.109363   2.401730
    24  H    7.568561   7.287430   5.808461   5.386604   2.491876
    25  H    6.167461   7.393497   3.640105   5.609756   5.618089
    26  H    5.685545   7.099005   3.695304   5.781435   5.354530
    27  H    7.445872   8.460297   5.369779   6.815129   4.725751
    28  H    6.283980   8.562244   3.981534   7.277416   7.051431
    29  H    5.437198   4.749942   3.781032   2.563459   5.157440
    30  H    4.687908   5.476246   2.449778   3.844964   5.932734
    31  H    7.117779   6.785117   4.974749   4.426390   3.692877
    32  C    8.197403   9.000421   5.712930   6.908445   5.035973
    33  H    8.920881   9.530230   6.518459   7.398132   4.609034
    34  H    8.424296   9.683653   5.881782   7.718650   6.104082
    35  H    8.549737   9.040911   6.065266   6.797438   5.060404
    36  H    5.677633   4.786835   4.241423   2.768473   3.581276
                   21         22         23         24         25
    21  H    0.000000
    22  H    1.775547   0.000000
    23  H    2.511326   3.053440   0.000000
    24  H    3.065630   2.490060   1.757895   0.000000
    25  H    4.847811   5.046419   3.763567   3.877252   0.000000
    26  H    5.339378   4.771067   3.873461   2.943482   2.546203
    27  H    5.001577   4.760534   2.870518   2.391188   3.061446
    28  H    6.754542   6.622884   5.059578   4.774064   2.384402
    29  H    3.860384   3.805242   4.721720   4.541811   3.408342
    30  H    4.877330   4.767858   4.843344   4.579992   2.167786
    31  H    2.475356   3.125553   2.541698   3.063554   2.503920
    32  C    4.479564   5.158254   2.720924   3.649238   2.104691
    33  H    4.386346   5.077131   2.213430   3.341988   3.040162
    34  H    5.569854   6.210723   3.750814   4.562758   2.378570
    35  H    4.184404   5.178741   2.953088   4.157462   2.498758
    36  H    3.072290   2.086159   3.568611   2.664614   3.682326
                   26         27         28         29         30
    26  H    0.000000
    27  H    1.771084   0.000000
    28  H    2.234165   2.830100   0.000000
    29  H    4.532008   5.404141   5.476743   0.000000
    30  H    3.487724   4.619256   3.954437   1.753367   0.000000
    31  H    3.819101   3.875696   4.704087   2.398126   2.727636
    32  C    3.491547   2.767436   3.317167   4.731242   4.043288
    33  H    3.774747   2.548185   3.890238   5.427824   4.911737
    34  H    3.820828   3.166859   2.960744   5.451108   4.485414
    35  H    4.342072   3.762725   4.192877   4.490802   4.067585
    36  H    3.421497   4.129775   5.203196   2.355742   2.944978
                   31         32         33         34         35
    31  H    0.000000
    32  C    2.725451   0.000000
    33  H    3.212112   1.094111   0.000000
    34  H    3.685646   1.095498   1.763935   0.000000
    35  H    2.440275   1.095000   1.775220   1.764950   0.000000
    36  H    2.547427   4.604775   4.901399   5.488259   4.760852
                   36
    36  H    0.000000
 Stoichiometry    C13H19F2NO
 Framework group  C1[X(C13H19F2NO)]
 Deg. of freedom   102
 Full point group                 C1      NOp   1
 Largest Abelian subgroup         C1      NOp   1
 Largest concise Abelian subgroup C1      NOp   1
                         Standard orientation:                         
 ---------------------------------------------------------------------
 Center     Atomic      Atomic             Coordinates (Angstroms)
 Number     Number       Type             X           Y           Z
 ---------------------------------------------------------------------
      1          6           0       -2.139685    3.182704   -0.612144
      2          6           0       -2.630946    1.739030   -0.676883
      3          6           0       -1.889562    0.786786    0.294339
      4          6           0       -2.586489   -0.601531    0.419925
      5          6           0       -2.686614   -1.350415   -0.917906
      6          8           0       -3.171162   -2.675627   -0.709867
      7          7           0       -0.493612    0.617162   -0.151063
      8          6           0        0.409965    0.250606    0.944338
      9          6           0        4.368665   -0.546497   -0.586181
     10          6           0        3.483060   -1.597137   -0.350221
     11          6           0        2.207763   -1.332033    0.148341
     12          6           0        1.790309   -0.029281    0.425265
     13          6           0        2.689835    1.008605    0.176546
     14          6           0        3.968647    0.762381   -0.321626
     15          1           0        5.363063   -0.746729   -0.976838
     16          1           0        3.774405   -2.623499   -0.552897
     17          1           0        4.642045    1.594789   -0.502831
     18          9           0        1.379519   -2.363517    0.369714
     19          9           0        2.326035    2.277106    0.416341
     20          1           0       -2.772032    3.819216   -1.239895
     21          1           0       -2.186993    3.566829    0.411722
     22          1           0       -1.112824    3.284717   -0.973608
     23          1           0       -3.700102    1.753046   -0.441185
     24          1           0       -2.541514    1.383048   -1.710424
     25          1           0       -1.999815   -1.227558    1.104603
     26          1           0       -1.716134   -1.427155   -1.417863
     27          1           0       -3.381505   -0.853095   -1.601530
     28          1           0       -2.478448   -3.151828   -0.219583
     29          1           0        0.459239    1.060368    1.683601
     30          1           0        0.050194   -0.632739    1.482690
     31          1           0       -1.895915    1.267900    1.282117
     32          6           0       -3.970175   -0.488174    1.077836
     33          1           0       -4.704834   -0.024898    0.412455
     34          1           0       -4.352615   -1.478805    1.347101
     35          1           0       -3.916992    0.102784    1.998143
     36          1           0       -0.143281    1.485912   -0.553675
 ---------------------------------------------------------------------
 Rotational constants (GHZ):      0.6588593      0.2702885      0.2070461
 Standard basis: 6-31G(d,p) (6D, 7F)
 There are   350 symmetry adapted cartesian basis functions of A   symmetry.
 There are   350 symmetry adapted basis functions of A   symmetry.
   350 basis functions,   609 primitive gaussians,   350 cartesian basis functions
    65 alpha electrons       65 beta electrons
       nuclear repulsion energy      1261.1385004408 Hartrees.
 NAtoms=   36 NActive=   36 NUniq=   36 SFac= 1.00D+00 NAtFMM=   60 NAOKFM=F Big=F
 Integral buffers will be    131072 words long.
 Raffenetti 2 integral format.
 Two-electron integral symmetry is turned on.
 ------------------------------------------------------------------------------
 Polarizable Continuum Model (PCM)
 =================================
 Model                : PCM (using non-symmetric T matrix).
 Atomic radii         : UFF (Universal Force Field).
 Polarization charges : Total charges.
 Charge compensation  : None.
 Solution method      : On-the-fly selection.
 Cavity type          : Scaled VdW (van der Waals Surface) (Alpha=1.100).
 Cavity algorithm     : GePol (No added spheres)
                        Default sphere list used, NSphG=   36.
                        Lebedev-Laikov grids with approx.  5.0 points / Ang**2.
                        Smoothing algorithm: Karplus/York (Gamma=1.0000).
                        Polarization charges: spherical gaussians, with
                                              point-specific exponents (IZeta= 3).
                        Self-potential: point-specific (ISelfS= 7).
                        Self-field    : sphere-specific E.n sum rule (ISelfD= 2).
 1st derivatives      : Analytical E(r).r(x)/FMM algorithm (CHGder, D1EAlg=3).
                        Cavity 1st derivative terms included.
 Solvent              : Chloroform, Eps=   4.711300 Eps(inf)=   2.090627
 ------------------------------------------------------------------------------
 One-electron integrals computed using PRISM.
 NBasis=   350 RedAO= T EigKep=  4.10D-04  NBF=   350
 NBsUse=   350 1.00D-06 EigRej= -1.00D+00 NBFU=   350
 ExpMin= 1.61D-01 ExpMax= 7.00D+03 ExpMxC= 1.05D+03 IAcc=1 IRadAn=         1 AccDes= 0.00D+00
 Harris functional with IExCor=  402 and IRadAn=       1 diagonalized for initial guess.
 HarFok:  IExCor=  402 AccDes= 0.00D+00 IRadAn=         1 IDoV= 1 UseB2=F ITyADJ=14
 ICtDFT=  3500011 ScaDFX=  1.000000  1.000000  1.000000  1.000000
 FoFCou: FMM=F IPFlag=           0 FMFlag=      100000 FMFlg1=           0
         NFxFlg=           0 DoJE=T BraDBF=F KetDBF=T FulRan=T
         wScrn=  0.000000 ICntrl=     500 IOpCl=  0 I1Cent=   200000004 NGrid=           0
         NMat0=    1 NMatS0=      1 NMatT0=    0 NMatD0=    1 NMtDS0=    0 NMtDT0=    0
 Petite list used in FoFCou.
 Requested convergence on RMS density matrix=1.00D-08 within 128 cycles.
 Requested convergence on MAX density matrix=1.00D-06.
 Requested convergence on             energy=1.00D-06.
 No special actions if energy rises.
 Inv3:  Mode=1 IEnd=    20342448.
 Iteration    1 A*A^-1 deviation from unit magnitude is 7.99D-15 for   2105.
 Iteration    1 A*A^-1 deviation from orthogonality  is 1.01D-14 for   2223   1838.
 Iteration    1 A^-1*A deviation from unit magnitude is 7.22D-15 for    379.
 Iteration    1 A^-1*A deviation from orthogonality  is 1.66D-12 for   2434   2406.
 Error on total polarization charges =  0.00773
 SCF Done:  E(RB3LYP) =  -836.488517680     A.U. after   12 cycles
            NFock= 12  Conv=0.62D-08     -V/T= 2.0088

 **********************************************************************

            Population analysis using the SCF density.

 **********************************************************************

 Orbital symmetries:
       Occupied  (A) (A) (A) (A) (A) (A) (A) (A) (A) (A) (A) (A)
                 (A) (A) (A) (A) (A) (A) (A) (A) (A) (A) (A) (A)
                 (A) (A) (A) (A) (A) (A) (A) (A) (A) (A) (A) (A)
                 (A) (A) (A) (A) (A) (A) (A) (A) (A) (A) (A) (A)
                 (A) (A) (A) (A) (A) (A) (A) (A) (A) (A) (A) (A)
                 (A) (A) (A) (A) (A)
       Virtual   (A) (A) (A) (A) (A) (A) (A) (A) (A) (A) (A) (A)
                 (A) (A) (A) (A) (A) (A) (A) (A) (A) (A) (A) (A)
                 (A) (A) (A) (A) (A) (A) (A) (A) (A) (A) (A) (A)
                 (A) (A) (A) (A) (A) (A) (A) (A) (A) (A) (A) (A)
                 (A) (A) (A) (A) (A) (A) (A) (A) (A) (A) (A) (A)
                 (A) (A) (A) (A) (A) (A) (A) (A) (A) (A) (A) (A)
                 (A) (A) (A) (A) (A) (A) (A) (A) (A) (A) (A) (A)
                 (A) (A) (A) (A) (A) (A) (A) (A) (A) (A) (A) (A)
                 (A) (A) (A) (A) (A) (A) (A) (A) (A) (A) (A) (A)
                 (A) (A) (A) (A) (A) (A) (A) (A) (A) (A) (A) (A)
                 (A) (A) (A) (A) (A) (A) (A) (A) (A) (A) (A) (A)
                 (A) (A) (A) (A) (A) (A) (A) (A) (A) (A) (A) (A)
                 (A) (A) (A) (A) (A) (A) (A) (A) (A) (A) (A) (A)
                 (A) (A) (A) (A) (A) (A) (A) (A) (A) (A) (A) (A)
                 (A) (A) (A) (A) (A) (A) (A) (A) (A) (A) (A) (A)
                 (A) (A) (A) (A) (A) (A) (A) (A) (A) (A) (A) (A)
                 (A) (A) (A) (A) (A) (A) (A) (A) (A) (A) (A) (A)
                 (A) (A) (A) (A) (A) (A) (A) (A) (A) (A) (A) (A)
                 (A) (A) (A) (A) (A) (A) (A) (A) (A) (A) (A) (A)
                 (A) (A) (A) (A) (A) (A) (A) (A) (A) (A) (A) (A)
                 (A) (A) (A) (A) (A) (A) (A) (A) (A) (A) (A) (A)
                 (A) (A) (A) (A) (A) (A) (A) (A) (A) (A) (A) (A)
                 (A) (A) (A) (A) (A) (A) (A) (A) (A) (A) (A) (A)
                 (A) (A) (A) (A) (A) (A) (A) (A) (A)
 The electronic state is 1-A.
 Alpha  occ. eigenvalues --  -24.72078 -24.71847 -19.13554 -14.31725 -10.28166
 Alpha  occ. eigenvalues --  -10.28139 -10.21680 -10.21559 -10.21045 -10.20759
 Alpha  occ. eigenvalues --  -10.20688 -10.19885 -10.19853 -10.18203 -10.18043
 Alpha  occ. eigenvalues --  -10.17494 -10.16748  -1.23424  -1.23180  -1.00642
 Alpha  occ. eigenvalues --   -0.90941  -0.86883  -0.79991  -0.76883  -0.75515
 Alpha  occ. eigenvalues --   -0.75352  -0.68686  -0.66693  -0.64878  -0.63000
 Alpha  occ. eigenvalues --   -0.61041  -0.60241  -0.56092  -0.55058  -0.53112
 Alpha  occ. eigenvalues --   -0.49732  -0.49312  -0.48868  -0.48315  -0.47095
 Alpha  occ. eigenvalues --   -0.46568  -0.46434  -0.45964  -0.44245  -0.43769
 Alpha  occ. eigenvalues --   -0.42911  -0.41065  -0.40488  -0.39962  -0.39198
 Alpha  occ. eigenvalues --   -0.38402  -0.37075  -0.36790  -0.36058  -0.35608
 Alpha  occ. eigenvalues --   -0.35382  -0.34823  -0.33932  -0.33054  -0.30931
 Alpha  occ. eigenvalues --   -0.30503  -0.26047  -0.25517  -0.24741  -0.22138
 Alpha virt. eigenvalues --   -0.01372  -0.00244   0.07191   0.08122   0.08947
 Alpha virt. eigenvalues --    0.10498   0.11180   0.12864   0.13708   0.14028
 Alpha virt. eigenvalues --    0.14475   0.14928   0.15579   0.16134   0.16394
 Alpha virt. eigenvalues --    0.17342   0.17670   0.18081   0.18644   0.19679
 Alpha virt. eigenvalues --    0.19887   0.20627   0.21659   0.22777   0.23473
 Alpha virt. eigenvalues --    0.23895   0.25229   0.25705   0.27382   0.27766
 Alpha virt. eigenvalues --    0.28804   0.29044   0.29504   0.31075   0.33139
 Alpha virt. eigenvalues --    0.37390   0.38531   0.46188   0.49283   0.49727
 Alpha virt. eigenvalues --    0.50009   0.50367   0.51867   0.52208   0.52983
 Alpha virt. eigenvalues --    0.53768   0.54751   0.55257   0.56821   0.57880
 Alpha virt. eigenvalues --    0.58324   0.59270   0.59510   0.59912   0.61333
 Alpha virt. eigenvalues --    0.61685   0.63126   0.63832   0.64803   0.65529
 Alpha virt. eigenvalues --    0.66618   0.67739   0.68868   0.70490   0.71510
 Alpha virt. eigenvalues --    0.72078   0.75782   0.77063   0.77899   0.79376
 Alpha virt. eigenvalues --    0.79613   0.80621   0.80902   0.82145   0.83650
 Alpha virt. eigenvalues --    0.84283   0.85188   0.85634   0.86358   0.86519
 Alpha virt. eigenvalues --    0.86979   0.87343   0.87798   0.89597   0.90582
 Alpha virt. eigenvalues --    0.91383   0.91586   0.92579   0.92902   0.94250
 Alpha virt. eigenvalues --    0.95417   0.96000   0.96765   0.98510   0.99043
 Alpha virt. eigenvalues --    1.00700   1.01858   1.02449   1.03728   1.04357
 Alpha virt. eigenvalues --    1.06748   1.09530   1.10296   1.11435   1.15728
 Alpha virt. eigenvalues --    1.18233   1.20716   1.20971   1.22028   1.22684
 Alpha virt. eigenvalues --    1.24406   1.24686   1.26696   1.30694   1.32187
 Alpha virt. eigenvalues --    1.35245   1.35713   1.38066   1.38262   1.39268
 Alpha virt. eigenvalues --    1.40275   1.40806   1.41907   1.42843   1.43327
 Alpha virt. eigenvalues --    1.45838   1.48018   1.50907   1.52253   1.54612
 Alpha virt. eigenvalues --    1.55794   1.59436   1.61147   1.64857   1.66311
 Alpha virt. eigenvalues --    1.67955   1.69340   1.70031   1.73353   1.75088
 Alpha virt. eigenvalues --    1.76562   1.78101   1.78381   1.79294   1.80536
 Alpha virt. eigenvalues --    1.81581   1.82142   1.82753   1.83960   1.84742
 Alpha virt. eigenvalues --    1.86154   1.87634   1.88508   1.89211   1.89392
 Alpha virt. eigenvalues --    1.90076   1.90541   1.91280   1.92341   1.93650
 Alpha virt. eigenvalues --    1.96035   1.97238   1.97801   1.99145   2.00838
 Alpha virt. eigenvalues --    2.01599   2.02113   2.04679   2.05121   2.05720
 Alpha virt. eigenvalues --    2.06130   2.06737   2.07349   2.08502   2.11557
 Alpha virt. eigenvalues --    2.12503   2.13248   2.16105   2.17661   2.18923
 Alpha virt. eigenvalues --    2.19004   2.20315   2.21509   2.22800   2.26189
 Alpha virt. eigenvalues --    2.27091   2.28998   2.29330   2.30233   2.30557
 Alpha virt. eigenvalues --    2.30888   2.31447   2.32894   2.33918   2.35004
 Alpha virt. eigenvalues --    2.36391   2.36727   2.37708   2.38118   2.39481
 Alpha virt. eigenvalues --    2.40751   2.42717   2.45671   2.47176   2.48656
 Alpha virt. eigenvalues --    2.50880   2.52148   2.52707   2.54519   2.54718
 Alpha virt. eigenvalues --    2.56256   2.57750   2.57887   2.59961   2.62798
 Alpha virt. eigenvalues --    2.64875   2.65105   2.67073   2.67171   2.68249
 Alpha virt. eigenvalues --    2.71123   2.72357   2.73362   2.74348   2.75768
 Alpha virt. eigenvalues --    2.76088   2.77257   2.77458   2.79379   2.81072
 Alpha virt. eigenvalues --    2.82290   2.84654   2.86347   2.88627   2.89574
 Alpha virt. eigenvalues --    2.90305   2.91019   2.94027   2.95294   2.97271
 Alpha virt. eigenvalues --    3.01152   3.02060   3.03946   3.04226   3.06701
 Alpha virt. eigenvalues --    3.10070   3.14641   3.20031   3.20761   3.21258
 Alpha virt. eigenvalues --    3.25714   3.28138   3.30827   3.31463   3.35167
 Alpha virt. eigenvalues --    3.35505   3.38567   3.39924   3.41548   3.43955
 Alpha virt. eigenvalues --    3.45881   3.47044   3.49782   3.53131   3.53556
 Alpha virt. eigenvalues --    3.56459   3.57511   3.80361   3.93168   4.08558
 Alpha virt. eigenvalues --    4.09797   4.12883   4.19180   4.32935   4.37863
 Alpha virt. eigenvalues --    4.40956   4.43955   4.54013   4.55506   4.59838
 Alpha virt. eigenvalues --    4.66599   4.74639   4.79195   5.50421   5.62098
          Condensed to atoms (all electrons):
               1          2          3          4          5          6
     1  C    4.941103   0.361550  -0.037080   0.004704   0.000130   0.000000
     2  C    0.361550   4.953349   0.369076  -0.033539  -0.009688   0.000005
     3  C   -0.037080   0.369076   4.854792   0.317912  -0.028591   0.003281
     4  C    0.004704  -0.033539   0.317912   5.068008   0.357265  -0.047107
     5  C    0.000130  -0.009688  -0.028591   0.357265   4.760457   0.231086
     6  O    0.000000   0.000005   0.003281  -0.047107   0.231086   8.163402
     7  N   -0.003558  -0.043236   0.280332  -0.061094  -0.009183   0.000049
     8  C    0.000331   0.004193  -0.032460  -0.004611   0.000203  -0.000003
     9  C    0.000000   0.000000   0.000000   0.000000   0.000000   0.000000
    10  C    0.000000   0.000000   0.000003   0.000000   0.000000   0.000000
    11  C    0.000000   0.000000  -0.000102   0.000026  -0.000037   0.000000
    12  C    0.000004  -0.000252   0.004899   0.000036   0.000029  -0.000001
    13  C   -0.000004  -0.000026   0.000341  -0.000002   0.000002   0.000000
    14  C    0.000000   0.000000   0.000007   0.000000   0.000000   0.000000
    15  H    0.000000   0.000000   0.000000   0.000000   0.000000   0.000000
    16  H    0.000000   0.000000   0.000000   0.000000   0.000000   0.000000
    17  H    0.000000   0.000000   0.000000   0.000000   0.000000   0.000000
    18  F    0.000000   0.000000  -0.000005  -0.000027  -0.000029  -0.000001
    19  F   -0.000009  -0.000001   0.000001   0.000000   0.000000   0.000000
    20  H    0.380402  -0.028212   0.003978  -0.000119  -0.000002   0.000000
    21  H    0.385303  -0.036258  -0.005588  -0.000006   0.000009   0.000000
    22  H    0.385079  -0.035949  -0.004497   0.000012  -0.000010   0.000000
    23  H   -0.038920   0.382699  -0.032847  -0.005546  -0.000737  -0.000007
    24  H   -0.041099   0.378009  -0.032472  -0.007446   0.002014  -0.000007
    25  H   -0.000142   0.005141  -0.032112   0.374474  -0.044695  -0.001842
    26  H   -0.000033  -0.001259  -0.000475  -0.050338   0.376568  -0.034480
    27  H   -0.000078   0.003500  -0.003285  -0.040476   0.381200  -0.035030
    28  H    0.000000   0.000019  -0.000077  -0.003746  -0.034324   0.287740
    29  H   -0.000227   0.000406  -0.008008  -0.001052  -0.000004   0.000000
    30  H    0.000003   0.000078  -0.002534   0.002131   0.000253  -0.000018
    31  H   -0.010632  -0.047304   0.367165  -0.053620   0.004831  -0.000064
    32  C    0.000039  -0.007391  -0.034198   0.346953  -0.046253  -0.002966
    33  H   -0.000121   0.000657  -0.004776  -0.033624  -0.006369  -0.000214
    34  H    0.000000   0.000171   0.004668  -0.027184  -0.005436   0.011272
    35  H   -0.000059  -0.000576  -0.005328  -0.033069   0.004846   0.000150
    36  H    0.004905  -0.009580  -0.036094   0.005406   0.000317   0.000001
               7          8          9         10         11         12
     1  C   -0.003558   0.000331   0.000000   0.000000   0.000000   0.000004
     2  C   -0.043236   0.004193   0.000000   0.000000   0.000000  -0.000252
     3  C    0.280332  -0.032460   0.000000   0.000003  -0.000102   0.004899
     4  C   -0.061094  -0.004611   0.000000   0.000000   0.000026   0.000036
     5  C   -0.009183   0.000203   0.000000   0.000000  -0.000037   0.000029
     6  O    0.000049  -0.000003   0.000000   0.000000   0.000000  -0.000001
     7  N    6.939506   0.281725   0.000024  -0.000032   0.005399  -0.049179
     8  C    0.281725   4.941825  -0.000629   0.008478  -0.048268   0.297462
     9  C    0.000024  -0.000629   4.854249   0.484699  -0.007920  -0.028832
    10  C   -0.000032   0.008478   0.484699   5.058172   0.471620  -0.071504
    11  C    0.005399  -0.048268  -0.007920   0.471620   4.594371   0.408774
    12  C   -0.049179   0.297462  -0.028832  -0.071504   0.408774   5.322706
    13  C   -0.007653  -0.049307  -0.008969  -0.050001   0.015196   0.394085
    14  C   -0.000158   0.008810   0.487723  -0.031070  -0.050349  -0.074808
    15  H    0.000000   0.000004   0.375512  -0.034508   0.003609   0.000217
    16  H    0.000002  -0.000148  -0.037332   0.358999  -0.032709   0.006370
    17  H    0.000001  -0.000156  -0.037254   0.004687   0.000495   0.006521
    18  F   -0.000355  -0.001458   0.003052  -0.047251   0.310801  -0.053490
    19  F   -0.001889   0.003041   0.002971  -0.000069   0.002411  -0.058187
    20  H    0.000183   0.000007   0.000000   0.000000   0.000000   0.000000
    21  H   -0.000552  -0.000049   0.000000   0.000000   0.000000  -0.000001
    22  H    0.000270  -0.000242   0.000000   0.000000  -0.000001   0.000018
    23  H    0.003899  -0.000187   0.000000   0.000000   0.000000   0.000003
    24  H   -0.001406  -0.000004   0.000000   0.000000   0.000000   0.000008
    25  H   -0.003727   0.000638   0.000000   0.000000   0.000062  -0.000384
    26  H    0.014751  -0.000003   0.000000   0.000002   0.000228  -0.000169
    27  H    0.000432  -0.000015   0.000000   0.000000   0.000000   0.000000
    28  H    0.000036   0.000002   0.000000   0.000000   0.000003  -0.000005
    29  H   -0.050589   0.356849  -0.000029  -0.000154   0.006048  -0.033249
    30  H   -0.041912   0.372935  -0.000020   0.000303  -0.009547  -0.027286
    31  H   -0.058311  -0.008736   0.000000   0.000000   0.000034   0.000425
    32  C    0.003655   0.000058   0.000000   0.000000   0.000000   0.000000
    33  H   -0.000028  -0.000002   0.000000   0.000000   0.000000   0.000000
    34  H   -0.000099  -0.000002   0.000000   0.000000   0.000000   0.000000
    35  H    0.000071  -0.000010   0.000000   0.000000   0.000000   0.000000
    36  H    0.329490  -0.037456  -0.000016  -0.000004  -0.000372  -0.008014
              13         14         15         16         17         18
     1  C   -0.000004   0.000000   0.000000   0.000000   0.000000   0.000000
     2  C   -0.000026   0.000000   0.000000   0.000000   0.000000   0.000000
     3  C    0.000341   0.000007   0.000000   0.000000   0.000000  -0.000005
     4  C   -0.000002   0.000000   0.000000   0.000000   0.000000  -0.000027
     5  C    0.000002   0.000000   0.000000   0.000000   0.000000  -0.000029
     6  O    0.000000   0.000000   0.000000   0.000000   0.000000  -0.000001
     7  N   -0.007653  -0.000158   0.000000   0.000002   0.000001  -0.000355
     8  C   -0.049307   0.008810   0.000004  -0.000148  -0.000156  -0.001458
     9  C   -0.008969   0.487723   0.375512  -0.037332  -0.037254   0.003052
    10  C   -0.050001  -0.031070  -0.034508   0.358999   0.004687  -0.047251
    11  C    0.015196  -0.050349   0.003609  -0.032709   0.000495   0.310801
    12  C    0.394085  -0.074808   0.000217   0.006370   0.006521  -0.053490
    13  C    4.621125   0.475347   0.003635   0.000480  -0.032508   0.002511
    14  C    0.475347   5.055793  -0.034731   0.004724   0.358449  -0.000060
    15  H    0.003635  -0.034731   0.580750  -0.005924  -0.005944  -0.000022
    16  H    0.000480   0.004724  -0.005924   0.594445  -0.000150  -0.000524
    17  H   -0.032508   0.358449  -0.005944  -0.000150   0.594412   0.000001
    18  F    0.002511  -0.000060  -0.000022  -0.000524   0.000001   9.067944
    19  F    0.308360  -0.047535  -0.000022   0.000001  -0.000387   0.000000
    20  H    0.000000   0.000000   0.000000   0.000000   0.000000   0.000000
    21  H    0.000000   0.000000   0.000000   0.000000   0.000000   0.000000
    22  H   -0.000001   0.000000   0.000000   0.000000   0.000000   0.000000
    23  H    0.000000   0.000000   0.000000   0.000000   0.000000   0.000000
    24  H   -0.000003   0.000000   0.000000   0.000000   0.000000   0.000000
    25  H   -0.000012   0.000000   0.000000   0.000000   0.000000   0.000052
    26  H   -0.000009   0.000000   0.000000   0.000000   0.000000   0.000191
    27  H    0.000000   0.000000   0.000000   0.000000   0.000000   0.000000
    28  H    0.000000   0.000000   0.000000   0.000000   0.000000   0.000035
    29  H   -0.013263   0.000046   0.000000   0.000003   0.000001   0.000194
    30  H    0.005714  -0.000180   0.000000  -0.000008   0.000002   0.008665
    31  H   -0.000102  -0.000001   0.000000   0.000000   0.000000  -0.000001
    32  C    0.000000   0.000000   0.000000   0.000000   0.000000   0.000000
    33  H    0.000000   0.000000   0.000000   0.000000   0.000000   0.000000
    34  H    0.000000   0.000000   0.000000   0.000000   0.000000   0.000000
    35  H    0.000000   0.000000   0.000000   0.000000   0.000000   0.000000
    36  H    0.005245  -0.000060   0.000000   0.000000   0.000002  -0.000011
              19         20         21         22         23         24
     1  C   -0.000009   0.380402   0.385303   0.385079  -0.038920  -0.041099
     2  C   -0.000001  -0.028212  -0.036258  -0.035949   0.382699   0.378009
     3  C    0.000001   0.003978  -0.005588  -0.004497  -0.032847  -0.032472
     4  C    0.000000  -0.000119  -0.000006   0.000012  -0.005546  -0.007446
     5  C    0.000000  -0.000002   0.000009  -0.000010  -0.000737   0.002014
     6  O    0.000000   0.000000   0.000000   0.000000  -0.000007  -0.000007
     7  N   -0.001889   0.000183  -0.000552   0.000270   0.003899  -0.001406
     8  C    0.003041   0.000007  -0.000049  -0.000242  -0.000187  -0.000004
     9  C    0.002971   0.000000   0.000000   0.000000   0.000000   0.000000
    10  C   -0.000069   0.000000   0.000000   0.000000   0.000000   0.000000
    11  C    0.002411   0.000000   0.000000  -0.000001   0.000000   0.000000
    12  C   -0.058187   0.000000  -0.000001   0.000018   0.000003   0.000008
    13  C    0.308360   0.000000   0.000000  -0.000001   0.000000  -0.000003
    14  C   -0.047535   0.000000   0.000000   0.000000   0.000000   0.000000
    15  H   -0.000022   0.000000   0.000000   0.000000   0.000000   0.000000
    16  H    0.000001   0.000000   0.000000   0.000000   0.000000   0.000000
    17  H   -0.000387   0.000000   0.000000   0.000000   0.000000   0.000000
    18  F    0.000000   0.000000   0.000000   0.000000   0.000000   0.000000
    19  F    9.072760   0.000000   0.000001  -0.000017   0.000000   0.000000
    20  H    0.000000   0.604046  -0.030561  -0.029944  -0.004953  -0.002515
    21  H    0.000001  -0.030561   0.602507  -0.032601  -0.004062   0.005549
    22  H   -0.000017  -0.029944  -0.032601   0.606944   0.005469  -0.005768
    23  H    0.000000  -0.004953  -0.004062   0.005469   0.617586  -0.034992
    24  H    0.000000  -0.002515   0.005549  -0.005768  -0.034992   0.623731
    25  H    0.000000   0.000003  -0.000007   0.000001   0.000104  -0.000085
    26  H    0.000000  -0.000001   0.000000   0.000000   0.000065   0.001252
    27  H    0.000000   0.000003   0.000000   0.000004   0.000564   0.001009
    28  H    0.000000   0.000000   0.000000   0.000000   0.000000  -0.000002
    29  H    0.004859  -0.000005   0.000082   0.000042   0.000010   0.000046
    30  H    0.000196   0.000000   0.000001  -0.000003  -0.000001  -0.000018
    31  H   -0.000006  -0.000076   0.007109  -0.000276  -0.001287   0.006811
    32  C    0.000000  -0.000001  -0.000008  -0.000003   0.002255   0.000296
    33  H    0.000000   0.000009   0.000006   0.000000   0.003230   0.000147
    34  H    0.000000   0.000000   0.000000   0.000000  -0.000128  -0.000018
    35  H    0.000000   0.000000   0.000013   0.000000   0.000551   0.000045
    36  H    0.005134  -0.000377  -0.000046   0.006497   0.000124  -0.000263
              25         26         27         28         29         30
     1  C   -0.000142  -0.000033  -0.000078   0.000000  -0.000227   0.000003
     2  C    0.005141  -0.001259   0.003500   0.000019   0.000406   0.000078
     3  C   -0.032112  -0.000475  -0.003285  -0.000077  -0.008008  -0.002534
     4  C    0.374474  -0.050338  -0.040476  -0.003746  -0.001052   0.002131
     5  C   -0.044695   0.376568   0.381200  -0.034324  -0.000004   0.000253
     6  O   -0.001842  -0.034480  -0.035030   0.287740   0.000000  -0.000018
     7  N   -0.003727   0.014751   0.000432   0.000036  -0.050589  -0.041912
     8  C    0.000638  -0.000003  -0.000015   0.000002   0.356849   0.372935
     9  C    0.000000   0.000000   0.000000   0.000000  -0.000029  -0.000020
    10  C    0.000000   0.000002   0.000000   0.000000  -0.000154   0.000303
    11  C    0.000062   0.000228   0.000000   0.000003   0.006048  -0.009547
    12  C   -0.000384  -0.000169   0.000000  -0.000005  -0.033249  -0.027286
    13  C   -0.000012  -0.000009   0.000000   0.000000  -0.013263   0.005714
    14  C    0.000000   0.000000   0.000000   0.000000   0.000046  -0.000180
    15  H    0.000000   0.000000   0.000000   0.000000   0.000000   0.000000
    16  H    0.000000   0.000000   0.000000   0.000000   0.000003  -0.000008
    17  H    0.000000   0.000000   0.000000   0.000000   0.000001   0.000002
    18  F    0.000052   0.000191   0.000000   0.000035   0.000194   0.008665
    19  F    0.000000   0.000000   0.000000   0.000000   0.004859   0.000196
    20  H    0.000003  -0.000001   0.000003   0.000000  -0.000005   0.000000
    21  H   -0.000007   0.000000   0.000000   0.000000   0.000082   0.000001
    22  H    0.000001   0.000000   0.000004   0.000000   0.000042  -0.000003
    23  H    0.000104   0.000065   0.000564   0.000000   0.000010  -0.000001
    24  H   -0.000085   0.001252   0.001009  -0.000002   0.000046  -0.000018
    25  H    0.665879  -0.004796   0.006103   0.006862   0.000178   0.003907
    26  H   -0.004796   0.643245  -0.042026  -0.007419   0.000067  -0.000317
    27  H    0.006103  -0.042026   0.624106   0.007200   0.000001  -0.000004
    28  H    0.006862  -0.007419   0.007200   0.428378   0.000001  -0.000027
    29  H    0.000178   0.000067   0.000001   0.000001   0.681782  -0.048049
    30  H    0.003907  -0.000317  -0.000004  -0.000027  -0.048049   0.612748
    31  H   -0.005249   0.000315  -0.000095  -0.000003   0.014033  -0.002733
    32  C   -0.048584   0.006397  -0.009587  -0.000796   0.000038  -0.000375
    33  H    0.005893   0.000003   0.005423   0.000091   0.000001   0.000002
    34  H   -0.005865   0.000204  -0.000167  -0.000113  -0.000001   0.000017
    35  H   -0.002591  -0.000147   0.000013  -0.000037   0.000009   0.000004
    36  H   -0.000164  -0.000331  -0.000033  -0.000001  -0.006966   0.006481
              31         32         33         34         35         36
     1  C   -0.010632   0.000039  -0.000121   0.000000  -0.000059   0.004905
     2  C   -0.047304  -0.007391   0.000657   0.000171  -0.000576  -0.009580
     3  C    0.367165  -0.034198  -0.004776   0.004668  -0.005328  -0.036094
     4  C   -0.053620   0.346953  -0.033624  -0.027184  -0.033069   0.005406
     5  C    0.004831  -0.046253  -0.006369  -0.005436   0.004846   0.000317
     6  O   -0.000064  -0.002966  -0.000214   0.011272   0.000150   0.000001
     7  N   -0.058311   0.003655  -0.000028  -0.000099   0.000071   0.329490
     8  C   -0.008736   0.000058  -0.000002  -0.000002  -0.000010  -0.037456
     9  C    0.000000   0.000000   0.000000   0.000000   0.000000  -0.000016
    10  C    0.000000   0.000000   0.000000   0.000000   0.000000  -0.000004
    11  C    0.000034   0.000000   0.000000   0.000000   0.000000  -0.000372
    12  C    0.000425   0.000000   0.000000   0.000000   0.000000  -0.008014
    13  C   -0.000102   0.000000   0.000000   0.000000   0.000000   0.005245
    14  C   -0.000001   0.000000   0.000000   0.000000   0.000000  -0.000060
    15  H    0.000000   0.000000   0.000000   0.000000   0.000000   0.000000
    16  H    0.000000   0.000000   0.000000   0.000000   0.000000   0.000000
    17  H    0.000000   0.000000   0.000000   0.000000   0.000000   0.000002
    18  F   -0.000001   0.000000   0.000000   0.000000   0.000000  -0.000011
    19  F   -0.000006   0.000000   0.000000   0.000000   0.000000   0.005134
    20  H   -0.000076  -0.000001   0.000009   0.000000   0.000000  -0.000377
    21  H    0.007109  -0.000008   0.000006   0.000000   0.000013  -0.000046
    22  H   -0.000276  -0.000003   0.000000   0.000000   0.000000   0.006497
    23  H   -0.001287   0.002255   0.003230  -0.000128   0.000551   0.000124
    24  H    0.006811   0.000296   0.000147  -0.000018   0.000045  -0.000263
    25  H   -0.005249  -0.048584   0.005893  -0.005865  -0.002591  -0.000164
    26  H    0.000315   0.006397   0.000003   0.000204  -0.000147  -0.000331
    27  H   -0.000095  -0.009587   0.005423  -0.000167   0.000013  -0.000033
    28  H   -0.000003  -0.000796   0.000091  -0.000113  -0.000037  -0.000001
    29  H    0.014033   0.000038   0.000001  -0.000001   0.000009  -0.006966
    30  H   -0.002733  -0.000375   0.000002   0.000017   0.000004   0.006481
    31  H    0.716945  -0.002139  -0.000268  -0.000151   0.006310   0.000215
    32  C   -0.002139   4.974834   0.382933   0.375320   0.377783  -0.000178
    33  H   -0.000268   0.382933   0.605588  -0.029752  -0.032296   0.000000
    34  H   -0.000151   0.375320  -0.029752   0.600527  -0.031579   0.000003
    35  H    0.006310   0.377783  -0.032296  -0.031579   0.618865  -0.000003
    36  H    0.000215  -0.000178   0.000000   0.000003  -0.000003   0.488991
 Mulliken charges:
               1
     1  C   -0.331590
     2  C   -0.205580
     3  C    0.094072
     4  C   -0.074322
     5  C    0.066150
     6  O   -0.575245
     7  N   -0.526864
     8  C   -0.092815
     9  C   -0.087228
    10  C   -0.152372
    11  C    0.330226
    12  C   -0.036199
    13  C    0.329819
    14  C   -0.151946
    15  H    0.117425
    16  H    0.111771
    17  H    0.111830
    18  F   -0.290213
    19  F   -0.291612
    20  H    0.108134
    21  H    0.109158
    22  H    0.104972
    23  H    0.107108
    24  H    0.107179
    25  H    0.080959
    26  H    0.098516
    27  H    0.101239
    28  H    0.316186
    29  H    0.096901
    30  H    0.119591
    31  H    0.066861
    32  C   -0.318079
    33  H    0.103464
    34  H    0.108313
    35  H    0.097034
    36  H    0.247158
 Sum of Mulliken charges =   0.00000
 Mulliken charges with hydrogens summed into heavy atoms:
               1
     1  C   -0.009327
     2  C    0.008708
     3  C    0.160933
     4  C    0.006637
     5  C    0.265905
     6  O   -0.259059
     7  N   -0.279705
     8  C    0.123677
     9  C    0.030197
    10  C   -0.040601
    11  C    0.330226
    12  C   -0.036199
    13  C    0.329819
    14  C   -0.040116
    18  F   -0.290213
    19  F   -0.291612
    32  C   -0.009269
 Electronic spatial extent (au):  <R**2>=           5233.1070
 Charge=              0.0000 electrons
 Dipole moment (field-independent basis, Debye):
    X=              2.6909    Y=              1.4442    Z=              0.7232  Tot=              3.1385
 Quadrupole moment (field-independent basis, Debye-Ang):
   XX=            -97.7279   YY=           -101.6741   ZZ=           -101.6500
   XY=            -10.1664   XZ=             -5.9320   YZ=             -3.7778
 Traceless Quadrupole moment (field-independent basis, Debye-Ang):
   XX=              2.6227   YY=             -1.3235   ZZ=             -1.2993
   XY=            -10.1664   XZ=             -5.9320   YZ=             -3.7778
 Octapole moment (field-independent basis, Debye-Ang**2):
  XXX=            109.7827  YYY=            -14.7856  ZZZ=              5.2597  XYY=             21.9531
  XXY=             26.3011  XXZ=            -11.5331  XZZ=              0.4269  YZZ=              0.6943
  YYZ=              5.0200  XYZ=             14.4959
 Hexadecapole moment (field-independent basis, Debye-Ang**3):
 XXXX=          -4530.2099 YYYY=          -1644.3175 ZZZZ=           -391.1679 XXXY=           -126.3312
 XXXZ=           -100.2890 YYYX=            -16.1505 YYYZ=            -24.1367 ZZZX=             26.1171
 ZZZY=              3.4287 XXYY=          -1108.2923 XXZZ=           -869.5656 YYZZ=           -347.7011
 XXYZ=            -32.3580 YYXZ=            -42.5304 ZZXY=              4.8249
 N-N= 1.261138500441D+03 E-N=-4.476191770165D+03  KE= 8.291683491668D+02
 D1PCM: PCM CHGder 1st derivatives, ID1Alg=3 FixD1E=F DoIter=F DoCFld=F I1PDM=0.
 Calling FoFJK, ICntrl=      2127 FMM=F ISym2X=0 I1Cent= 0 IOpClX= 0 NMat=1 NMatS=1 NMatT=0.
 ***** Axes restored to original set *****
 -------------------------------------------------------------------
 Center     Atomic                   Forces (Hartrees/Bohr)
 Number     Number              X              Y              Z
 -------------------------------------------------------------------
      1        6           0.000883805    0.001189919   -0.002139651
      2        6           0.000080496   -0.002263739    0.000608894
      3        6          -0.001045124    0.011636649    0.000123624
      4        6           0.006126201    0.000734458   -0.006188077
      5        6          -0.008266518   -0.005347917    0.004696514
      6        8           0.001142788    0.000081151    0.008892388
      7        7           0.000888184    0.002685708    0.006750693
      8        6           0.002498660   -0.003461558   -0.004522306
      9        6           0.005808708   -0.000913848    0.000740129
     10        6          -0.002425952    0.001142165    0.007973377
     11        6          -0.016979617    0.002887766   -0.015470040
     12        6           0.009430955   -0.003502790    0.001603360
     13        6          -0.019790302    0.005370838    0.014243450
     14        6          -0.001556199   -0.000391373   -0.008513670
     15        1           0.001881137   -0.000434732    0.000111347
     16        1           0.001329183   -0.000423550    0.000089913
     17        1           0.001414562   -0.000411652    0.000054870
     18        9           0.005543691   -0.000841841    0.004197924
     19        9           0.007379636   -0.001716870   -0.004572612
     20        1          -0.001004470   -0.000452117   -0.001317446
     21        1          -0.000457244   -0.000531490   -0.001150071
     22        1          -0.000668299   -0.000686246   -0.002338659
     23        1          -0.001161521   -0.000709549    0.003307895
     24        1          -0.000964857   -0.000953951    0.002393514
     25        1          -0.005281963    0.001128196   -0.001996155
     26        1          -0.000476120   -0.001071725   -0.008234324
     27        1           0.001547253   -0.000583070    0.001916885
     28        1           0.004952181    0.003910804   -0.002084775
     29        1          -0.000848139   -0.004860380   -0.001027147
     30        1           0.001759518    0.005168426   -0.000856189
     31        1           0.004350149   -0.004563820    0.000847537
     32        6           0.001350748   -0.002340148    0.002158223
     33        1           0.000715995   -0.000153188   -0.000627547
     34        1          -0.000835113    0.001777521   -0.001516150
     35        1           0.000795419   -0.000059247   -0.000788246
     36        1           0.001882168   -0.001038797    0.002632525
 -------------------------------------------------------------------
 Cartesian Forces:  Max     0.019790302 RMS     0.004722679

 GradGradGradGradGradGradGradGradGradGradGradGradGradGradGradGradGradGrad
 Berny optimization.
 FormGI is forming the generalized inverse of G from B-inverse, IUseBI=4.
 Internal  Forces:  Max     0.008605847 RMS     0.002680701
 Search for a local minimum.
 Step number   1 out of a maximum of   50
 All quantities printed in internal units (Hartrees-Bohrs-Radians)
 Mixed Optimization -- RFO/linear search
 Second derivative matrix not updated -- first step.
 ITU=  0
     Eigenvalues ---    0.00230   0.00230   0.00284   0.00285   0.00417
     Eigenvalues ---    0.00699   0.00752   0.00812   0.01344   0.01570
     Eigenvalues ---    0.02147   0.02152   0.02154   0.02159   0.02162
     Eigenvalues ---    0.02166   0.02166   0.02167   0.02804   0.03191
     Eigenvalues ---    0.03410   0.03867   0.04544   0.04659   0.04770
     Eigenvalues ---    0.04964   0.05096   0.05158   0.05339   0.05433
     Eigenvalues ---    0.05479   0.05525   0.05686   0.05852   0.06542
     Eigenvalues ---    0.08485   0.09798   0.10972   0.11636   0.12308
     Eigenvalues ---    0.13156   0.13821   0.16000   0.16000   0.16000
     Eigenvalues ---    0.16000   0.16000   0.16000   0.16000   0.16000
     Eigenvalues ---    0.16000   0.16000   0.16917   0.16970   0.17417
     Eigenvalues ---    0.17838   0.21915   0.21932   0.21993   0.22085
     Eigenvalues ---    0.23457   0.23490   0.24906   0.24992   0.24999
     Eigenvalues ---    0.25000   0.26941   0.27728   0.28837   0.28847
     Eigenvalues ---    0.29764   0.32268   0.33823   0.33941   0.33953
     Eigenvalues ---    0.34041   0.34185   0.34214   0.34238   0.34241
     Eigenvalues ---    0.34250   0.34289   0.34311   0.34318   0.34342
     Eigenvalues ---    0.34424   0.35140   0.35164   0.35280   0.35289
     Eigenvalues ---    0.36158   0.41529   0.42354   0.42482   0.44404
     Eigenvalues ---    0.46368   0.46473   0.46539   0.46604   0.52741
     Eigenvalues ---    0.56926   0.56926
 RFO step:  Lambda=-7.58152477D-03 EMin= 2.30000000D-03
 Linear search not attempted -- first point.
 Iteration  1 RMS(Cart)=  0.04134336 RMS(Int)=  0.00076607
 Iteration  2 RMS(Cart)=  0.00102503 RMS(Int)=  0.00027664
 Iteration  3 RMS(Cart)=  0.00000091 RMS(Int)=  0.00027664
 Variable       Old X    -DE/DX   Delta X   Delta X   Delta X     New X
                                 (Linear)    (Quad)   (Total)
    R1        2.88437   0.00700   0.00000   0.02293   0.02293   2.90730
    R2        2.06930  -0.00027   0.00000  -0.00078  -0.00078   2.06852
    R3        2.06845   0.00065   0.00000   0.00185   0.00185   2.07029
    R4        2.06621   0.00132   0.00000   0.00376   0.00376   2.06997
    R5        2.92736  -0.00430   0.00000  -0.01511  -0.01511   2.91225
    R6        2.06909  -0.00028   0.00000  -0.00080  -0.00080   2.06829
    R7        2.07262  -0.00011   0.00000  -0.00033  -0.00033   2.07229
    R8        2.94513  -0.00338   0.00000  -0.01221  -0.01221   2.93292
    R9        2.78748   0.00112   0.00000   0.00312   0.00312   2.79060
   R10        2.07631   0.00497   0.00000   0.01437   0.01437   2.09068
   R11        2.90345  -0.00037   0.00000  -0.00125  -0.00125   2.90220
   R12        2.07430   0.00123   0.00000   0.00356   0.00356   2.07786
   R13        2.90323   0.00197   0.00000   0.00665   0.00665   2.90987
   R14        2.69527   0.00730   0.00000   0.01726   0.01726   2.71252
   R15        2.06809   0.00171   0.00000   0.00488   0.00488   2.07296
   R16        2.06797  -0.00010   0.00000  -0.00028  -0.00028   2.06769
   R17        1.83896  -0.00664   0.00000  -0.01242  -0.01242   1.82655
   R18        2.77134   0.00346   0.00000   0.00936   0.00936   2.78071
   R19        1.92674  -0.00310   0.00000  -0.00686  -0.00686   1.91987
   R20        2.83656   0.00789   0.00000   0.02390   0.02390   2.86045
   R21        2.07410   0.00392   0.00000   0.01130   0.01130   2.08540
   R22        2.06971  -0.00242   0.00000  -0.00692  -0.00692   2.06279
   R23        2.63467   0.00097   0.00000   0.00221   0.00218   2.63685
   R24        2.63423   0.00110   0.00000   0.00248   0.00245   2.63668
   R25        2.05410  -0.00193   0.00000  -0.00538  -0.00538   2.04872
   R26        2.63563  -0.00324   0.00000  -0.00686  -0.00686   2.62877
   R27        2.05223  -0.00071   0.00000  -0.00197  -0.00197   2.05026
   R28        2.63759   0.00001   0.00000  -0.00013  -0.00010   2.63749
   R29        2.53460   0.00614   0.00000   0.01064   0.01064   2.54524
   R30        2.63765  -0.00048   0.00000  -0.00118  -0.00115   2.63650
   R31        2.63491  -0.00332   0.00000  -0.00702  -0.00702   2.62789
   R32        2.53459   0.00801   0.00000   0.01388   0.01388   2.54847
   R33        2.05208  -0.00065   0.00000  -0.00180  -0.00180   2.05027
   R34        2.06757   0.00056   0.00000   0.00158   0.00158   2.06915
   R35        2.07019  -0.00183   0.00000  -0.00524  -0.00524   2.06495
   R36        2.06925   0.00057   0.00000   0.00164   0.00164   2.07089
    A1        1.91730   0.00175   0.00000   0.01179   0.01172   1.92903
    A2        1.93659   0.00063   0.00000   0.00305   0.00303   1.93962
    A3        1.95681   0.00232   0.00000   0.01319   0.01314   1.96994
    A4        1.88314  -0.00107   0.00000  -0.00515  -0.00518   1.87797
    A5        1.87400  -0.00195   0.00000  -0.01036  -0.01045   1.86355
    A6        1.89345  -0.00192   0.00000  -0.01384  -0.01384   1.87960
    A7        1.98317   0.00187   0.00000   0.00989   0.00999   1.99316
    A8        1.86821   0.00169   0.00000   0.02409   0.02414   1.89235
    A9        1.89728   0.00097   0.00000   0.01380   0.01385   1.91113
   A10        1.91797  -0.00248   0.00000  -0.02091  -0.02117   1.89679
   A11        1.93079  -0.00237   0.00000  -0.02406  -0.02422   1.90657
   A12        1.86150   0.00037   0.00000  -0.00179  -0.00245   1.85905
   A13        1.96502   0.00285   0.00000   0.01336   0.01338   1.97841
   A14        1.91165  -0.00121   0.00000  -0.00062  -0.00064   1.91101
   A15        1.86681  -0.00041   0.00000  -0.00270  -0.00270   1.86411
   A16        1.92313  -0.00103   0.00000  -0.00398  -0.00400   1.91913
   A17        1.89129  -0.00225   0.00000  -0.02776  -0.02769   1.86360
   A18        1.90423   0.00209   0.00000   0.02209   0.02204   1.92627
   A19        1.97487  -0.00006   0.00000  -0.00172  -0.00213   1.97274
   A20        1.89579  -0.00177   0.00000  -0.03317  -0.03355   1.86225
   A21        1.95145   0.00059   0.00000   0.01277   0.01277   1.96422
   A22        1.87546  -0.00092   0.00000  -0.02136  -0.02190   1.85356
   A23        1.92853   0.00040   0.00000   0.01355   0.01350   1.94203
   A24        1.83003   0.00177   0.00000   0.02955   0.02986   1.85989
   A25        1.92624   0.00757   0.00000   0.03956   0.03923   1.96547
   A26        1.95430  -0.00687   0.00000  -0.03316  -0.03500   1.91930
   A27        1.94316  -0.00131   0.00000  -0.02437  -0.02465   1.91851
   A28        1.87837   0.00443   0.00000   0.06920   0.06921   1.94759
   A29        1.87302  -0.00529   0.00000  -0.04165  -0.04100   1.83202
[...]
    29  H   -0.000014   0.000426  -0.009032  -0.001051  -0.000020   0.000000
    30  H   -0.000008   0.000030  -0.000987   0.002045   0.000186  -0.000007
    31  H   -0.009261  -0.049178   0.371057  -0.058907   0.004682  -0.000066
    32  C    0.000006  -0.006144  -0.034004   0.348406  -0.044195  -0.006100
    33  H   -0.000208   0.001114  -0.005741  -0.034894  -0.005152  -0.000090
    34  H    0.000002   0.000058   0.004841  -0.029974  -0.007635   0.013996
    35  H   -0.000025  -0.000100  -0.004876  -0.029337   0.004769   0.000061
    36  H    0.002753  -0.007982  -0.038971   0.005128   0.000312   0.000001
               7          8          9         10         11         12
     1  C   -0.004361   0.000220   0.000000   0.000000   0.000000   0.000024
     2  C   -0.042114   0.003860   0.000000   0.000000   0.000001  -0.000223
     3  C    0.276849  -0.030466   0.000000   0.000003  -0.000118   0.004324
     4  C   -0.059484  -0.003913   0.000000   0.000000   0.000017   0.000006
     5  C   -0.010673   0.000329   0.000000   0.000000  -0.000008  -0.000002
     6  O    0.000010  -0.000002   0.000000   0.000000   0.000000   0.000000
     7  N    6.931937   0.282732   0.000020  -0.000073   0.003483  -0.035925
     8  C    0.282732   4.938610  -0.000667   0.007589  -0.046427   0.303193
     9  C    0.000020  -0.000667   4.862661   0.483183  -0.004182  -0.027502
    10  C   -0.000073   0.007589   0.483183   5.042632   0.473661  -0.072864
    11  C    0.003483  -0.046427  -0.004182   0.473661   4.600272   0.420690
    12  C   -0.035925   0.303193  -0.027502  -0.072864   0.420690   5.289638
    13  C   -0.007521  -0.052626  -0.006214  -0.046847   0.021517   0.385237
    14  C   -0.000169   0.008366   0.485707  -0.036654  -0.049282  -0.081269
    15  H    0.000000   0.000005   0.373761  -0.033714   0.003547   0.000447
    16  H    0.000001  -0.000118  -0.036404   0.362093  -0.032259   0.006097
    17  H    0.000001  -0.000134  -0.035918   0.004338   0.000357   0.006144
    18  F   -0.000066  -0.006546   0.003035  -0.044219   0.294191  -0.048040
    19  F   -0.004569   0.004919   0.002820  -0.000016   0.002583  -0.057701
    20  H    0.000121   0.000008   0.000000   0.000000   0.000000   0.000000
    21  H   -0.000193  -0.000008   0.000000   0.000000   0.000000  -0.000002
    22  H    0.001179  -0.000018   0.000000   0.000000  -0.000002  -0.000090
    23  H    0.004133  -0.000184   0.000000   0.000000   0.000000   0.000003
    24  H   -0.002832   0.000050   0.000000   0.000000   0.000000   0.000017
    25  H   -0.004050   0.000845   0.000000   0.000000   0.000036  -0.000317
    26  H    0.015936  -0.000096   0.000000   0.000000   0.000016  -0.000005
    27  H    0.000463  -0.000019   0.000000   0.000000   0.000000   0.000000
    28  H    0.000053  -0.000006   0.000000   0.000000   0.000001  -0.000001
    29  H   -0.048746   0.352183   0.000011  -0.000215   0.004160  -0.029495
    30  H   -0.045729   0.373079  -0.000036   0.000491  -0.007437  -0.030278
    31  H   -0.054881  -0.009564   0.000000   0.000000   0.000008   0.000582
    32  C    0.003621   0.000007   0.000000   0.000000   0.000000   0.000001
    33  H    0.000015  -0.000003   0.000000   0.000000   0.000000   0.000000
    34  H   -0.000112  -0.000001   0.000000   0.000000   0.000000   0.000000
    35  H    0.000033   0.000004   0.000000   0.000000   0.000000   0.000000
    36  H    0.334040  -0.041505  -0.000017   0.000006  -0.000063  -0.010458
              13         14         15         16         17         18
     1  C   -0.000020  -0.000001   0.000000   0.000000   0.000000   0.000000
     2  C   -0.000049   0.000000   0.000000   0.000000   0.000000   0.000000
     3  C    0.000448   0.000007   0.000000   0.000000   0.000000   0.000004
     4  C   -0.000002   0.000000   0.000000   0.000000   0.000000  -0.000003
     5  C    0.000002   0.000000   0.000000   0.000000   0.000000   0.000000
     6  O    0.000000   0.000000   0.000000   0.000000   0.000000   0.000000
     7  N   -0.007521  -0.000169   0.000000   0.000001   0.000001  -0.000066
     8  C   -0.052626   0.008366   0.000005  -0.000118  -0.000134  -0.006546
     9  C   -0.006214   0.485707   0.373761  -0.036404  -0.035918   0.003035
    10  C   -0.046847  -0.036654  -0.033714   0.362093   0.004338  -0.044219
    11  C    0.021517  -0.049282   0.003547  -0.032259   0.000357   0.294191
    12  C    0.385237  -0.081269   0.000447   0.006097   0.006144  -0.048040
    13  C    4.635662   0.483657   0.003554   0.000325  -0.032121   0.002791
    14  C    0.483657   5.042451  -0.034632   0.004460   0.361285   0.000016
    15  H    0.003554  -0.034632   0.580267  -0.005648  -0.005617  -0.000025
    16  H    0.000325   0.004460  -0.005648   0.585038  -0.000131  -0.000634
    17  H   -0.032121   0.361285  -0.005617  -0.000131   0.584222   0.000001
    18  F    0.002791   0.000016  -0.000025  -0.000634   0.000001   9.087086
    19  F    0.292416  -0.045957  -0.000024   0.000001  -0.000382  -0.000001
    20  H    0.000000   0.000000   0.000000   0.000000   0.000000   0.000000
    21  H    0.000001   0.000000   0.000000   0.000000   0.000000   0.000000
    22  H    0.000077   0.000006   0.000000   0.000000   0.000000   0.000000
    23  H    0.000000   0.000000   0.000000   0.000000   0.000000   0.000000
    24  H   -0.000007   0.000000   0.000000   0.000000   0.000000   0.000000
    25  H   -0.000015   0.000000   0.000000   0.000000   0.000000  -0.000041
    26  H   -0.000005   0.000000   0.000000   0.000000   0.000000   0.000000
    27  H    0.000000   0.000000   0.000000   0.000000   0.000000   0.000000
    28  H    0.000000   0.000000   0.000000   0.000000   0.000000   0.000000
    29  H   -0.011034  -0.000193   0.000000   0.000002   0.000001   0.000219
    30  H    0.005891  -0.000139   0.000000  -0.000008   0.000002   0.012038
    31  H   -0.000073  -0.000001   0.000000   0.000000   0.000000   0.000000
    32  C    0.000000   0.000000   0.000000   0.000000   0.000000   0.000000
    33  H    0.000000   0.000000   0.000000   0.000000   0.000000   0.000000
    34  H    0.000000   0.000000   0.000000   0.000000   0.000000   0.000000
    35  H    0.000000   0.000000   0.000000   0.000000   0.000000   0.000000
    36  H    0.004125  -0.000087   0.000000   0.000000   0.000004  -0.000010
              19         20         21         22         23         24
     1  C   -0.000259   0.379706   0.385194   0.382587  -0.035987  -0.040293
     2  C   -0.000023  -0.027054  -0.034300  -0.036917   0.381797   0.377056
     3  C    0.000012   0.003809  -0.005136  -0.004150  -0.036492  -0.033817
     4  C   -0.000001  -0.000132  -0.000068   0.000113  -0.003259  -0.008181
     5  C    0.000000   0.000000   0.000010  -0.000007  -0.001713   0.002142
     6  O    0.000000   0.000000   0.000000   0.000000  -0.000006  -0.000005
     7  N   -0.004569   0.000121  -0.000193   0.001179   0.004133  -0.002832
     8  C    0.004919   0.000008  -0.000008  -0.000018  -0.000184   0.000050
     9  C    0.002820   0.000000   0.000000   0.000000   0.000000   0.000000
    10  C   -0.000016   0.000000   0.000000   0.000000   0.000000   0.000000
    11  C    0.002583   0.000000   0.000000  -0.000002   0.000000   0.000000
    12  C   -0.057701   0.000000  -0.000002  -0.000090   0.000003   0.000017
    13  C    0.292416   0.000000   0.000001   0.000077   0.000000  -0.000007
    14  C   -0.045957   0.000000   0.000000   0.000006   0.000000   0.000000
    15  H   -0.000024   0.000000   0.000000   0.000000   0.000000   0.000000
    16  H    0.000001   0.000000   0.000000   0.000000   0.000000   0.000000
    17  H   -0.000382   0.000000   0.000000   0.000000   0.000000   0.000000
    18  F   -0.000001   0.000000   0.000000   0.000000   0.000000   0.000000
    19  F    9.092811   0.000001  -0.000001   0.001435   0.000000  -0.000001
    20  H    0.000001   0.602806  -0.030701  -0.030474  -0.002998  -0.003212
    21  H   -0.000001  -0.030701   0.601266  -0.032457  -0.004956   0.005240
    22  H    0.001435  -0.030474  -0.032457   0.607764   0.005129  -0.004679
    23  H    0.000000  -0.002998  -0.004956   0.005129   0.617150  -0.034670
    24  H   -0.000001  -0.003212   0.005240  -0.004679  -0.034670   0.625275
    25  H    0.000000   0.000003  -0.000005   0.000000   0.000109  -0.000118
    26  H    0.000000  -0.000001   0.000000  -0.000002   0.000126   0.002366
    27  H    0.000000   0.000004   0.000000   0.000002   0.001078   0.000255
    28  H    0.000000   0.000000   0.000000   0.000000  -0.000001  -0.000003
    29  H    0.002420  -0.000004   0.000025  -0.000126  -0.000004   0.000066
    30  H    0.000170   0.000000   0.000002   0.000010   0.000007  -0.000024
    31  H   -0.000004   0.000023   0.006072  -0.000800  -0.001203   0.007041
    32  C    0.000000  -0.000002   0.000019  -0.000008   0.000840   0.000481
    33  H    0.000000   0.000012   0.000008   0.000001   0.004514   0.000001
    34  H    0.000000   0.000000   0.000000   0.000000  -0.000167  -0.000005
    35  H    0.000000   0.000000   0.000001   0.000001   0.000071   0.000004
    36  H    0.012244  -0.000389  -0.000123   0.007046   0.000138   0.000195
              25         26         27         28         29         30
     1  C   -0.000153  -0.000047  -0.000066   0.000000  -0.000014  -0.000008
     2  C    0.005469  -0.002601   0.004126   0.000023   0.000426   0.000030
     3  C   -0.036347   0.000667  -0.004427  -0.000100  -0.009032  -0.000987
     4  C    0.372803  -0.055159  -0.041332  -0.004396  -0.001051   0.002045
     5  C   -0.046022   0.370720   0.381072  -0.034996  -0.000020   0.000186
     6  O   -0.002120  -0.032294  -0.038429   0.288242   0.000000  -0.000007
     7  N   -0.004050   0.015936   0.000463   0.000053  -0.048746  -0.045729
     8  C    0.000845  -0.000096  -0.000019  -0.000006   0.352183   0.373079
     9  C    0.000000   0.000000   0.000000   0.000000   0.000011  -0.000036
    10  C    0.000000   0.000000   0.000000   0.000000  -0.000215   0.000491
    11  C    0.000036   0.000016   0.000000   0.000001   0.004160  -0.007437
    12  C   -0.000317  -0.000005   0.000000  -0.000001  -0.029495  -0.030278
    13  C   -0.000015  -0.000005   0.000000   0.000000  -0.011034   0.005891
    14  C    0.000000   0.000000   0.000000   0.000000  -0.000193  -0.000139
    15  H    0.000000   0.000000   0.000000   0.000000   0.000000   0.000000
    16  H    0.000000   0.000000   0.000000   0.000000   0.000002  -0.000008
    17  H    0.000000   0.000000   0.000000   0.000000   0.000001   0.000002
    18  F   -0.000041   0.000000   0.000000   0.000000   0.000219   0.012038
    19  F    0.000000   0.000000   0.000000   0.000000   0.002420   0.000170
    20  H    0.000003  -0.000001   0.000004   0.000000  -0.000004   0.000000
    21  H   -0.000005   0.000000   0.000000   0.000000   0.000025   0.000002
    22  H    0.000000  -0.000002   0.000002   0.000000  -0.000126   0.000010
    23  H    0.000109   0.000126   0.001078  -0.000001  -0.000004   0.000007
    24  H   -0.000118   0.002366   0.000255  -0.000003   0.000066  -0.000024
    25  H    0.669875  -0.004775   0.006428   0.007009   0.000255   0.003309
    26  H   -0.004775   0.650194  -0.042449  -0.006042   0.000055  -0.000231
    27  H    0.006428  -0.042449   0.631241   0.007583   0.000002  -0.000004
    28  H    0.007009  -0.006042   0.007583   0.428380   0.000000  -0.000019
    29  H    0.000255   0.000055   0.000002   0.000000   0.677067  -0.048218
    30  H    0.003309  -0.000231  -0.000004  -0.000019  -0.048218   0.611664
    31  H   -0.003920   0.000374  -0.000068  -0.000004   0.014525  -0.002334
    32  C   -0.045764   0.006431  -0.008449  -0.000471   0.000070  -0.000396
    33  H    0.005808  -0.000028   0.004482   0.000058   0.000002   0.000002
    34  H   -0.003621   0.000400  -0.000329  -0.000251  -0.000001   0.000014
    35  H   -0.004624  -0.000174   0.000007  -0.000034   0.000004   0.000016
    36  H   -0.000084  -0.000474  -0.000015  -0.000001  -0.004784   0.006334
              31         32         33         34         35         36
     1  C   -0.009261   0.000006  -0.000208   0.000002  -0.000025   0.002753
     2  C   -0.049178  -0.006144   0.001114   0.000058  -0.000100  -0.007982
     3  C    0.371057  -0.034004  -0.005741   0.004841  -0.004876  -0.038971
     4  C   -0.058907   0.348406  -0.034894  -0.029974  -0.029337   0.005128
     5  C    0.004682  -0.044195  -0.005152  -0.007635   0.004769   0.000312
     6  O   -0.000066  -0.006100  -0.000090   0.013996   0.000061   0.000001
     7  N   -0.054881   0.003621   0.000015  -0.000112   0.000033   0.334040
     8  C   -0.009564   0.000007  -0.000003  -0.000001   0.000004  -0.041505
     9  C    0.000000   0.000000   0.000000   0.000000   0.000000  -0.000017
    10  C    0.000000   0.000000   0.000000   0.000000   0.000000   0.000006
    11  C    0.000008   0.000000   0.000000   0.000000   0.000000  -0.000063
    12  C    0.000582   0.000001   0.000000   0.000000   0.000000  -0.010458
    13  C   -0.000073   0.000000   0.000000   0.000000   0.000000   0.004125
    14  C   -0.000001   0.000000   0.000000   0.000000   0.000000  -0.000087
    15  H    0.000000   0.000000   0.000000   0.000000   0.000000   0.000000
    16  H    0.000000   0.000000   0.000000   0.000000   0.000000   0.000000
    17  H    0.000000   0.000000   0.000000   0.000000   0.000000   0.000004
    18  F    0.000000   0.000000   0.000000   0.000000   0.000000  -0.000010
    19  F   -0.000004   0.000000   0.000000   0.000000   0.000000   0.012244
    20  H    0.000023  -0.000002   0.000012   0.000000   0.000000  -0.000389
    21  H    0.006072   0.000019   0.000008   0.000000   0.000001  -0.000123
    22  H   -0.000800  -0.000008   0.000001   0.000000   0.000001   0.007046
    23  H   -0.001203   0.000840   0.004514  -0.000167   0.000071   0.000138
    24  H    0.007041   0.000481   0.000001  -0.000005   0.000004   0.000195
    25  H   -0.003920  -0.045764   0.005808  -0.003621  -0.004624  -0.000084
    26  H    0.000374   0.006431  -0.000028   0.000400  -0.000174  -0.000474
    27  H   -0.000068  -0.008449   0.004482  -0.000329   0.000007  -0.000015
    28  H   -0.000004  -0.000471   0.000058  -0.000251  -0.000034  -0.000001
    29  H    0.014525   0.000070   0.000002  -0.000001   0.000004  -0.004784
    30  H   -0.002334  -0.000396   0.000002   0.000014   0.000016   0.006334
    31  H    0.712585  -0.001245  -0.000339  -0.000124   0.005805   0.001611
    32  C   -0.001245   4.975311   0.381844   0.374373   0.378086  -0.000184
    33  H   -0.000339   0.381844   0.608885  -0.029760  -0.032667   0.000000
    34  H   -0.000124   0.374373  -0.029760   0.597730  -0.030422   0.000004
    35  H    0.005805   0.378086  -0.032667  -0.030422   0.614214  -0.000001
    36  H    0.001611  -0.000184   0.000000   0.000004  -0.000001   0.482324
 Mulliken charges:
               1
     1  C   -0.330299
     2  C   -0.209425
     3  C    0.091949
     4  C   -0.068584
     5  C    0.062777
     6  O   -0.573099
     7  N   -0.533131
     8  C   -0.083694
     9  C   -0.100258
    10  C   -0.139393
    11  C    0.315235
    12  C   -0.022234
    13  C    0.320829
    14  C   -0.137571
    15  H    0.118079
    16  H    0.117185
    17  H    0.117950
    18  F   -0.299794
    19  F   -0.302894
    20  H    0.108475
    21  H    0.110112
    22  H    0.104379
    23  H    0.106544
    24  H    0.107657
    25  H    0.080027
    26  H    0.097099
    27  H    0.098842
    28  H    0.314972
    29  H    0.101444
    30  H    0.120563
    31  H    0.067607
    32  C   -0.322537
    33  H    0.102135
    34  H    0.110984
    35  H    0.099183
    36  H    0.248886
 Sum of Mulliken charges =   0.00000
 Mulliken charges with hydrogens summed into heavy atoms:
               1
     1  C   -0.007333
     2  C    0.004777
     3  C    0.159556
     4  C    0.011443
     5  C    0.258718
     6  O   -0.258127
     7  N   -0.284245
     8  C    0.138313
     9  C    0.017820
    10  C   -0.022209
    11  C    0.315235
    12  C   -0.022234
    13  C    0.320829
    14  C   -0.019621
    18  F   -0.299794
    19  F   -0.302894
    32  C   -0.010235
 Electronic spatial extent (au):  <R**2>=           5368.7466
 Charge=              0.0000 electrons
 Dipole moment (field-independent basis, Debye):
    X=              3.1159    Y=              1.4034    Z=              0.7834  Tot=              3.5060
 Quadrupole moment (field-independent basis, Debye-Ang):
   XX=            -97.4394   YY=           -100.7197   ZZ=           -102.9510
   XY=             -8.4677   XZ=             -7.5367   YZ=             -3.3200
 Traceless Quadrupole moment (field-independent basis, Debye-Ang):
   XX=              2.9307   YY=             -0.3497   ZZ=             -2.5810
   XY=             -8.4677   XZ=             -7.5367   YZ=             -3.3200
 Octapole moment (field-independent basis, Debye-Ang**2):
  XXX=            128.4528  YYY=            -19.0431  ZZZ=              5.6107  XYY=             16.6066
  XXY=             28.8199  XXZ=             -4.9661  XZZ=              6.1216  YZZ=              4.2468
  YYZ=              0.7103  XYZ=             13.7796
 Hexadecapole moment (field-independent basis, Debye-Ang**3):
 XXXX=          -4738.2486 YYYY=          -1569.0677 ZZZZ=           -425.9565 XXXY=           -162.9123
 XXXZ=           -143.0813 YYYX=              7.3639 YYYZ=            -14.4031 ZZZX=             21.0509
 ZZZY=             -9.4908 XXYY=          -1110.0801 XXZZ=           -928.3037 YYZZ=           -351.2669
 XXYZ=            -60.5988 YYXZ=            -36.0078 ZZXY=             -7.0199
 N-N= 1.254268859641D+03 E-N=-4.462371890009D+03  KE= 8.290997192150D+02
 1\1\GINC-SWANNODE-0-11\FOpt\RB3LYP\6-31G(d,p)\C13H19F2N1O1\KE291\06-Ma
 r-2019\0\\# b3lyp/6-31g(d,p) Opt=(maxcycles=50) scrf=(solvent=chlorofo
 rm)\\AT3_2ginp007\\0,1\C,-2.3784033458,-0.3576307481,-0.8309856384\C,-
 2.2827820055,0.0093723441,0.6557264042\C,-3.0166792294,-0.9752125801,1
 .5860405951\C,-2.5897517178,-0.865697533,3.0754149021\C,-2.7026670028,
 0.5686541809,3.613202665\O,-2.5215927819,0.6421419304,5.0298284713\N,-
 4.4734123989,-0.7680305348,1.4658728745\C,-5.2620544934,-1.9930745593,
 1.6509781494\C,-9.495330045,-1.2334457425,1.0718037267\C,-9.0213720221
 ,-1.5388078623,2.3475372129\C,-7.6608663926,-1.7753298391,2.5125012748
 \C,-6.7384754173,-1.7307975251,1.4660615612\C,-7.2738677082,-1.4172067
 63,0.2152123144\C,-8.6195374882,-1.1679356171,-0.0139214776\H,-10.5528
 610729,-1.0435940124,0.9218166417\H,-9.6807150105,-1.5947928893,3.2059
 210294\H,-8.9599448436,-0.9299383812,-1.0149288163\F,-7.2084054865,-2.
 0745043014,3.752639702\F,-6.4108440168,-1.3470512557,-0.8324193025\H,-
 1.8655730821,0.3848055599,-1.4502931777\H,-1.9156955198,-1.3317681877,
 -1.0237527243\H,-3.4148020323,-0.4128139552,-1.1830285318\H,-1.2257360
 024,0.053414642,0.9384305498\H,-2.6882008631,1.0166292144,0.8160278131
 \H,-3.3161272839,-1.4655432751,3.6455634627\H,-3.67067994,0.9930122722
 ,3.3162114791\H,-1.9143353355,1.2008145946,3.1903994251\H,-3.248724829
 9,0.1502185683,5.4355037689\H,-4.9543489792,-2.7958241313,0.9573126558
 \H,-5.1000922792,-2.3718008219,2.662363634\H,-2.7487926214,-1.99708057
 36,1.2547884065\C,-1.2011260952,-1.4607098057,3.3399267472\H,-0.421277
 5912,-0.9403738047,2.7725177393\H,-0.9514807538,-1.3692452608,4.400100
 29\H,-1.16267521,-2.5206715051,3.0666625526\H,-4.6802981015,-0.4124428
 414,0.53690462\\Version=EM64L-G09RevD.01\State=1-A\HF=-836.4932853\RMS
 D=3.792e-09\RMSF=1.149e-06\Dipole=-0.9864015,-0.5042506,-0.8218466\Qua
 drupole=6.4569679,-3.5074958,-2.9494721,-3.3099132,-4.2501363,-4.58325
 26\PG=C01 [X(C13H19F2N1O1)]\\@


 WISDOM IS KNOWING WHAT TO DO,
 SKILL IS KNOWING HOW TO DO IT,
 AND VIRTUE IS NOT DOING IT.
 Job cpu time:       0 days  3 hours 15 minutes 22.1 seconds.
 File lengths (MBytes):  RWF=    189 Int=      0 D2E=      0 Chk=     12 Scr=      1
 Normal termination of Gaussian 09 at Wed Mar  6 12:45:49 2019.
