 Entering Gaussian System, Link 0=/usr/local/shared/gaussian/em64t/09-D01/g09/g09
 Initial command:
 /usr/local/shared/gaussian/em64t/09-D01/g09/l1.exe "/scratch/ke291/AT3_1ginp006/Gau-29911.inp" -scrdir="/scratch/ke291/AT3_1ginp006/"
 Entering Link 1 = /usr/local/shared/gaussian/em64t/09-D01/g09/l1.exe PID=     29914.
  
 Copyright (c) 1988,1990,1992,1993,1995,1998,2003,2009,2013,
            Gaussian, Inc.  All Rights Reserved.
  
 This is part of the Gaussian(R) 09 program.  It is based on
 the Gaussian(R) 03 system (copyright 2003, Gaussian, Inc.),
 the Gaussian(R) 98 system (copyright 1998, Gaussian, Inc.),
 the Gaussian(R) 94 system (copyright 1995, Gaussian, Inc.),
 the Gaussian 92(TM) system (copyright 1992, Gaussian, Inc.),
 the Gaussian 90(TM) system (copyright 1990, Gaussian, Inc.),
 the Gaussian 88(TM) system (copyright 1988, Gaussian, Inc.),
 the Gaussian 86(TM) system (copyright 1986, Carnegie Mellon
 University), and the Gaussian 82(TM) system (copyright 1983,
 Carnegie Mellon University). Gaussian is a federally registered
 trademark of Gaussian, Inc.
  
 This software contains proprietary and confidential information,
 including trade secrets, belonging to Gaussian, Inc.
  
 This software is provided under written license and may be
 used, copied, transmitted, or stored only in accord with that
 written license.
  
 The following legend is applicable only to US Government
 contracts under FAR:
  
                    RESTRICTED RIGHTS LEGEND
  
 Use, reproduction and disclosure by the US Government is
 subject to restrictions as set forth in subparagraphs (a)
 and (c) of the Commercial Computer Software - Restricted
 Rights clause in FAR 52.227-19.
  
 Gaussian, Inc.
 340 Quinnipiac St., Bldg. 40, Wallingford CT 06492
  
  
 ---------------------------------------------------------------
 Warning -- This program may not be used in any manner that
 competes with the business of Gaussian, Inc. or will provide
 assistance to any competitor of Gaussian, Inc.  The licensee
 of this program is prohibited from giving any competitor of
 Gaussian, Inc. access to this program.  By using this program,
 the user acknowledges that Gaussian, Inc. is engaged in the
 business of creating and licensing software in the field of
 computational chemistry and represents and warrants to the
 licensee that it is not a competitor of Gaussian, Inc. and that
 it will not use this program in any manner prohibited above.
 ---------------------------------------------------------------
  

 Cite this work as:
 Gaussian 09, Revision D.01,
 M. J. Frisch, G. W. Trucks, H. B. Schlegel, G. E. Scuseria, 
 M. A. Robb, J. R. Cheeseman, G. Scalmani, V. Barone, B. Mennucci, 
 G. A. Petersson, H. Nakatsuji, M. Caricato, X. Li, H. P. Hratchian, 
 A. F. Izmaylov, J. Bloino, G. Zheng, J. L. Sonnenberg, M. Hada, 
 M. Ehara, K. Toyota, R. Fukuda, J. Hasegawa, M. Ishida, T. Nakajima, 
 Y. Honda, O. Kitao, H. Nakai, T. Vreven, J. A. Montgomery, Jr., 
 J. E. Peralta, F. Ogliaro, M. Bearpark, J. J. Heyd, E. Brothers, 
 K. N. Kudin, V. N. Staroverov, T. Keith, R. Kobayashi, J. Normand, 
 K. Raghavachari, A. Rendell, J. C. Burant, S. S. Iyengar, J. Tomasi, 
 M. Cossi, N. Rega, J. M. Millam, M. Klene, J. E. Knox, J. B. Cross, 
 V. Bakken, C. Adamo, J. Jaramillo, R. Gomperts, R. E. Stratmann, 
 O. Yazyev, A. J. Austin, R. Cammi, C. Pomelli, J. W. Ochterski, 
 R. L. Martin, K. Morokuma, V. G. Zakrzewski, G. A. Voth, 
 P. Salvador, J. J. Dannenberg, S. Dapprich, A. D. Daniels, 
 O. Farkas, J. B. Foresman, J. V. Ortiz, J. Cioslowski, 
 and D. J. Fox, Gaussian, Inc., Wallingford CT, 2013.
 
 ******************************************
 Gaussian 09:  EM64L-G09RevD.01 24-Apr-2013
                 6-Mar-2019 
 ******************************************
 %nprocshared=2
 Will use up to    2 processors via shared memory.
 %mem=6000MB
 %chk=AT3_1ginp006.chk
 ---------------------------------------------------------------
 # b3lyp/6-31g(d,p) Opt=(maxcycles=50) scrf=(solvent=chloroform)
 ---------------------------------------------------------------
 1/6=50,14=-1,18=20,19=15,26=3,38=1/1,3;
 2/9=110,12=2,17=6,18=5,40=1/2;
 3/5=1,6=6,7=101,11=2,16=1,25=1,30=1,70=2201,71=1,72=7,74=-5/1,2,3;
 4//1;
 5/5=2,38=5,53=7/2;
 6/7=2,8=2,9=2,10=2,28=1/1;
 7//1,2,3,16;
 1/6=50,14=-1,18=20,19=15,26=3/3(2);
 2/9=110/2;
 99//99;
 2/9=110/2;
 3/5=1,6=6,7=101,11=2,16=1,25=1,30=1,70=2205,71=1,72=7,74=-5/1,2,3;
 4/5=5,16=3,69=1/1;
 5/5=2,38=5,53=7/2;
 7//1,2,3,16;
 1/6=50,14=-1,18=20,19=15,26=3/3(-5);
 2/9=110/2;
 6/7=2,8=2,9=2,10=2,19=2,28=1/1;
 99/9=1/99;
 ------------
 AT3_1ginp006
 ------------
 Symbolic Z-matrix:
 Charge =  0 Multiplicity = 1
 C                    -1.60783  -0.81264   2.2557 
 C                    -0.18418  -0.4319    2.6422 
 C                     0.18923   1.05726   2.4365 
 C                    -0.68776   2.04728   3.2743 
 C                    -0.1906    3.50279   3.14136 
 O                    -0.41724   4.01528   1.83501 
 N                     0.12486   1.45994   1.01496 
 C                     1.18726   0.91009   0.16485 
 C                     5.04038   2.72322   0.88752 
 C                     4.77152   1.43783   1.3547 
 C                     3.52641   0.85833   1.11262 
 C                     2.52965   1.53526   0.40838 
 C                     2.82089   2.81987  -0.05414 
 C                     4.05977   3.41577   0.17928 
 H                     6.00752   3.18301   1.0737 
 H                     5.52202   0.88192   1.90871 
 H                     4.24799   4.41799  -0.19442 
 F                     3.2928   -0.37714   1.5791 
 F                     1.90228   3.50404  -0.75094 
 H                    -1.7943   -0.6532    1.18997 
 H                    -1.775    -1.87518   2.46174 
 H                    -2.34819  -0.24674   2.82761 
 H                    -0.02085  -0.70626   3.69091 
 H                     0.50727  -1.0699    2.07975 
 H                    -1.71788   2.01134   2.89555 
 H                     0.87945   3.5789    3.36344 
 H                    -0.72356   4.15969   3.83643 
 H                    -0.08091   3.32577   1.22085 
 H                     1.23909  -0.18176   0.2317 
 H                     0.91527   1.1097   -0.87997 
 H                     1.21755   1.1825    2.79774 
 C                    -0.70876   1.68155   4.76361 
 H                     0.30626   1.61834   5.16998 
 H                    -1.25772   2.43265   5.34224 
 H                    -1.20997   0.72489   4.93651 
 H                    -0.77767   1.18009   0.62796 
 

 GradGradGradGradGradGradGradGradGradGradGradGradGradGradGradGradGradGrad
 Berny optimization.
 Initialization pass.
                           ----------------------------
                           !    Initial Parameters    !
                           ! (Angstroms and Degrees)  !
 --------------------------                            --------------------------
 ! Name  Definition              Value          Derivative Info.                !
 --------------------------------------------------------------------------------
 ! R1    R(1,2)                  1.5235         estimate D2E/DX2                !
 ! R2    R(1,20)                 1.0936         estimate D2E/DX2                !
 ! R3    R(1,21)                 1.0952         estimate D2E/DX2                !
 ! R4    R(1,22)                 1.0934         estimate D2E/DX2                !
 ! R5    R(2,3)                  1.549          estimate D2E/DX2                !
 ! R6    R(2,23)                 1.0962         estimate D2E/DX2                !
 ! R7    R(2,24)                 1.0961         estimate D2E/DX2                !
 ! R8    R(3,4)                  1.5656         estimate D2E/DX2                !
 ! R9    R(3,7)                  1.4789         estimate D2E/DX2                !
 ! R10   R(3,31)                 1.0971         estimate D2E/DX2                !
 ! R11   R(4,5)                  1.5438         estimate D2E/DX2                !
 ! R12   R(4,25)                 1.0981         estimate D2E/DX2                !
 ! R13   R(4,32)                 1.5337         estimate D2E/DX2                !
 ! R14   R(5,6)                  1.4215         estimate D2E/DX2                !
 ! R15   R(5,26)                 1.0955         estimate D2E/DX2                !
 ! R16   R(5,27)                 1.0949         estimate D2E/DX2                !
 ! R17   R(6,28)                 0.9827         estimate D2E/DX2                !
 ! R18   R(7,8)                  1.4676         estimate D2E/DX2                !
 ! R19   R(7,36)                 1.0211         estimate D2E/DX2                !
 ! R20   R(8,12)                 1.5007         estimate D2E/DX2                !
 ! R21   R(8,29)                 1.0951         estimate D2E/DX2                !
 ! R22   R(8,30)                 1.0979         estimate D2E/DX2                !
 ! R23   R(9,10)                 1.3938         estimate D2E/DX2                !
 ! R24   R(9,14)                 1.3938         estimate D2E/DX2                !
 ! R25   R(9,15)                 1.0869         estimate D2E/DX2                !
 ! R26   R(10,11)                1.3945         estimate D2E/DX2                !
 ! R27   R(10,16)                1.0859         estimate D2E/DX2                !
 ! R28   R(11,12)                1.3956         estimate D2E/DX2                !
 ! R29   R(11,18)                1.3411         estimate D2E/DX2                !
 ! R30   R(12,13)                1.3961         estimate D2E/DX2                !
 ! R31   R(13,14)                1.3944         estimate D2E/DX2                !
 ! R32   R(13,19)                1.3407         estimate D2E/DX2                !
 ! R33   R(14,17)                1.0861         estimate D2E/DX2                !
 ! R34   R(32,33)                1.0952         estimate D2E/DX2                !
 ! R35   R(32,34)                1.0956         estimate D2E/DX2                !
 ! R36   R(32,35)                1.0938         estimate D2E/DX2                !
 ! A1    A(2,1,20)             111.7235         estimate D2E/DX2                !
 ! A2    A(2,1,21)             109.7169         estimate D2E/DX2                !
 ! A3    A(2,1,22)             111.7589         estimate D2E/DX2                !
 ! A4    A(20,1,21)            107.3833         estimate D2E/DX2                !
 ! A5    A(20,1,22)            108.5915         estimate D2E/DX2                !
 ! A6    A(21,1,22)            107.4806         estimate D2E/DX2                !
 ! A7    A(1,2,3)              115.5836         estimate D2E/DX2                !
 ! A8    A(1,2,23)             108.6244         estimate D2E/DX2                !
 ! A9    A(1,2,24)             108.2894         estimate D2E/DX2                !
 ! A10   A(3,2,23)             109.3746         estimate D2E/DX2                !
 ! A11   A(3,2,24)             109.8381         estimate D2E/DX2                !
 ! A12   A(23,2,24)            104.5499         estimate D2E/DX2                !
 ! A13   A(2,3,4)              113.6927         estimate D2E/DX2                !
 ! A14   A(2,3,7)              112.2679         estimate D2E/DX2                !
 ! A15   A(2,3,31)             106.9764         estimate D2E/DX2                !
 ! A16   A(4,3,7)              108.5306         estimate D2E/DX2                !
 ! A17   A(4,3,31)             106.06           estimate D2E/DX2                !
 ! A18   A(7,3,31)             109.0393         estimate D2E/DX2                !
 ! A19   A(3,4,5)              111.698          estimate D2E/DX2                !
 ! A20   A(3,4,25)             108.6751         estimate D2E/DX2                !
 ! A21   A(3,4,32)             112.1181         estimate D2E/DX2                !
 ! A22   A(5,4,25)             107.6524         estimate D2E/DX2                !
 ! A23   A(5,4,32)             108.231          estimate D2E/DX2                !
 ! A24   A(25,4,32)            108.317          estimate D2E/DX2                !
 ! A25   A(4,5,6)              111.5743         estimate D2E/DX2                !
 ! A26   A(4,5,26)             111.2601         estimate D2E/DX2                !
 ! A27   A(4,5,27)             110.7472         estimate D2E/DX2                !
 ! A28   A(6,5,26)             108.4811         estimate D2E/DX2                !
 ! A29   A(6,5,27)             106.8284         estimate D2E/DX2                !
 ! A30   A(26,5,27)            107.764          estimate D2E/DX2                !
 ! A31   A(5,6,28)             105.475          estimate D2E/DX2                !
 ! A32   A(3,7,8)              115.0416         estimate D2E/DX2                !
 ! A33   A(3,7,36)             109.1566         estimate D2E/DX2                !
 ! A34   A(8,7,36)             108.5199         estimate D2E/DX2                !
 ! A35   A(7,8,12)             113.4199         estimate D2E/DX2                !
 ! A36   A(7,8,29)             111.8673         estimate D2E/DX2                !
 ! A37   A(7,8,30)             107.6856         estimate D2E/DX2                !
 ! A38   A(12,8,29)            111.2903         estimate D2E/DX2                !
 ! A39   A(12,8,30)            107.4741         estimate D2E/DX2                !
 ! A40   A(29,8,30)            104.5414         estimate D2E/DX2                !
 ! A41   A(10,9,14)            119.5254         estimate D2E/DX2                !
 ! A42   A(10,9,15)            120.2858         estimate D2E/DX2                !
 ! A43   A(14,9,15)            120.1887         estimate D2E/DX2                !
 ! A44   A(9,10,11)            119.8186         estimate D2E/DX2                !
 ! A45   A(9,10,16)            120.6498         estimate D2E/DX2                !
 ! A46   A(11,10,16)           119.5314         estimate D2E/DX2                !
 ! A47   A(10,11,12)           121.5824         estimate D2E/DX2                !
 ! A48   A(10,11,18)           118.5526         estimate D2E/DX2                !
 ! A49   A(12,11,18)           119.8642         estimate D2E/DX2                !
 ! A50   A(8,12,11)            121.2445         estimate D2E/DX2                !
 ! A51   A(8,12,13)            121.0758         estimate D2E/DX2                !
 ! A52   A(11,12,13)           117.6781         estimate D2E/DX2                !
 ! A53   A(12,13,14)           121.5419         estimate D2E/DX2                !
 ! A54   A(12,13,19)           119.9224         estimate D2E/DX2                !
 ! A55   A(14,13,19)           118.5329         estimate D2E/DX2                !
 ! A56   A(9,14,13)            119.853          estimate D2E/DX2                !
 ! A57   A(9,14,17)            120.7583         estimate D2E/DX2                !
 ! A58   A(13,14,17)           119.3887         estimate D2E/DX2                !
 ! A59   A(4,32,33)            111.1859         estimate D2E/DX2                !
 ! A60   A(4,32,34)            110.8695         estimate D2E/DX2                !
 ! A61   A(4,32,35)            111.6137         estimate D2E/DX2                !
 ! A62   A(33,32,34)           107.9379         estimate D2E/DX2                !
 ! A63   A(33,32,35)           108.3952         estimate D2E/DX2                !
 ! A64   A(34,32,35)           106.6505         estimate D2E/DX2                !
 ! D1    D(20,1,2,3)            62.3914         estimate D2E/DX2                !
 ! D2    D(20,1,2,23)         -174.2773         estimate D2E/DX2                !
 ! D3    D(20,1,2,24)          -61.2856         estimate D2E/DX2                !
 ! D4    D(21,1,2,3)          -178.6341         estimate D2E/DX2                !
 ! D5    D(21,1,2,23)          -55.3028         estimate D2E/DX2                !
 ! D6    D(21,1,2,24)           57.6888         estimate D2E/DX2                !
 ! D7    D(22,1,2,3)           -59.5158         estimate D2E/DX2                !
 ! D8    D(22,1,2,23)           63.8155         estimate D2E/DX2                !
 ! D9    D(22,1,2,24)          176.8072         estimate D2E/DX2                !
 ! D10   D(1,2,3,4)             60.782          estimate D2E/DX2                !
 ! D11   D(1,2,3,7)            -62.9094         estimate D2E/DX2                !
 ! D12   D(1,2,3,31)           177.515          estimate D2E/DX2                !
 ! D13   D(23,2,3,4)           -62.1536         estimate D2E/DX2                !
 ! D14   D(23,2,3,7)           174.1551         estimate D2E/DX2                !
 ! D15   D(23,2,3,31)           54.5795         estimate D2E/DX2                !
 ! D16   D(24,2,3,4)          -176.3568         estimate D2E/DX2                !
 ! D17   D(24,2,3,7)            59.9519         estimate D2E/DX2                !
 ! D18   D(24,2,3,31)          -59.6237         estimate D2E/DX2                !
 ! D19   D(2,3,4,5)            174.4876         estimate D2E/DX2                !
 ! D20   D(2,3,4,25)           -66.8925         estimate D2E/DX2                !
 ! D21   D(2,3,4,32)            52.8078         estimate D2E/DX2                !
 ! D22   D(7,3,4,5)            -59.813          estimate D2E/DX2                !
 ! D23   D(7,3,4,25)            58.8069         estimate D2E/DX2                !
 ! D24   D(7,3,4,32)           178.5071         estimate D2E/DX2                !
 ! D25   D(31,3,4,5)            57.2212         estimate D2E/DX2                !
 ! D26   D(31,3,4,25)          175.841          estimate D2E/DX2                !
 ! D27   D(31,3,4,32)          -64.4587         estimate D2E/DX2                !
 ! D28   D(2,3,7,8)            -71.2749         estimate D2E/DX2                !
 ! D29   D(2,3,7,36)            50.9632         estimate D2E/DX2                !
 ! D30   D(4,3,7,8)            162.1975         estimate D2E/DX2                !
 ! D31   D(4,3,7,36)           -75.5644         estimate D2E/DX2                !
 ! D32   D(31,3,7,8)            47.0894         estimate D2E/DX2                !
 ! D33   D(31,3,7,36)          169.3274         estimate D2E/DX2                !
 ! D34   D(3,4,5,6)             68.944          estimate D2E/DX2                !
 ! D35   D(3,4,5,26)           -52.3622         estimate D2E/DX2                !
 ! D36   D(3,4,5,27)          -172.1948         estimate D2E/DX2                !
 ! D37   D(25,4,5,6)           -50.2831         estimate D2E/DX2                !
 ! D38   D(25,4,5,26)         -171.5893         estimate D2E/DX2                !
 ! D39   D(25,4,5,27)           68.5781         estimate D2E/DX2                !
 ! D40   D(32,4,5,6)          -167.1584         estimate D2E/DX2                !
 ! D41   D(32,4,5,26)           71.5353         estimate D2E/DX2                !
 ! D42   D(32,4,5,27)          -48.2973         estimate D2E/DX2                !
 ! D43   D(3,4,32,33)           55.1854         estimate D2E/DX2                !
 ! D44   D(3,4,32,34)          175.2696         estimate D2E/DX2                !
 ! D45   D(3,4,32,35)          -65.9864         estimate D2E/DX2                !
 ! D46   D(5,4,32,33)          -68.4595         estimate D2E/DX2                !
 ! D47   D(5,4,32,34)           51.6247         estimate D2E/DX2                !
 ! D48   D(5,4,32,35)          170.3687         estimate D2E/DX2                !
 ! D49   D(25,4,32,33)         175.0948         estimate D2E/DX2                !
 ! D50   D(25,4,32,34)         -64.8209         estimate D2E/DX2                !
 ! D51   D(25,4,32,35)          53.923          estimate D2E/DX2                !
 ! D52   D(4,5,6,28)           -48.3527         estimate D2E/DX2                !
 ! D53   D(26,5,6,28)           74.5544         estimate D2E/DX2                !
 ! D54   D(27,5,6,28)         -169.5222         estimate D2E/DX2                !
 ! D55   D(3,7,8,12)           -72.5195         estimate D2E/DX2                !
 ! D56   D(3,7,8,29)            54.3652         estimate D2E/DX2                !
 ! D57   D(3,7,8,30)           168.6918         estimate D2E/DX2                !
 ! D58   D(36,7,8,12)          164.9003         estimate D2E/DX2                !
 ! D59   D(36,7,8,29)          -68.215          estimate D2E/DX2                !
 ! D60   D(36,7,8,30)           46.1115         estimate D2E/DX2                !
 ! D61   D(7,8,12,11)          104.7925         estimate D2E/DX2                !
 ! D62   D(7,8,12,13)          -74.7298         estimate D2E/DX2                !
 ! D63   D(29,8,12,11)         -22.3947         estimate D2E/DX2                !
 ! D64   D(29,8,12,13)         158.0831         estimate D2E/DX2                !
 ! D65   D(30,8,12,11)        -136.2971         estimate D2E/DX2                !
 ! D66   D(30,8,12,13)          44.1806         estimate D2E/DX2                !
 ! D67   D(14,9,10,11)          -0.1294         estimate D2E/DX2                !
 ! D68   D(14,9,10,16)        -179.9811         estimate D2E/DX2                !
 ! D69   D(15,9,10,11)         179.871          estimate D2E/DX2                !
 ! D70   D(15,9,10,16)           0.0193         estimate D2E/DX2                !
 ! D71   D(10,9,14,13)           0.0805         estimate D2E/DX2                !
 ! D72   D(10,9,14,17)        -179.9604         estimate D2E/DX2                !
 ! D73   D(15,9,14,13)        -179.9199         estimate D2E/DX2                !
 ! D74   D(15,9,14,17)           0.0392         estimate D2E/DX2                !
 ! D75   D(9,10,11,12)          -0.0133         estimate D2E/DX2                !
 ! D76   D(9,10,11,18)        -179.6895         estimate D2E/DX2                !
 ! D77   D(16,10,11,12)        179.8401         estimate D2E/DX2                !
 ! D78   D(16,10,11,18)          0.1639         estimate D2E/DX2                !
 ! D79   D(10,11,12,8)        -179.3384         estimate D2E/DX2                !
 ! D80   D(10,11,12,13)          0.1996         estimate D2E/DX2                !
 ! D81   D(18,11,12,8)           0.3336         estimate D2E/DX2                !
 ! D82   D(18,11,12,13)        179.8716         estimate D2E/DX2                !
 ! D83   D(8,12,13,14)         179.289          estimate D2E/DX2                !
 ! D84   D(8,12,13,19)          -1.3307         estimate D2E/DX2                !
 ! D85   D(11,12,13,14)         -0.2497         estimate D2E/DX2                !
 ! D86   D(11,12,13,19)        179.1305         estimate D2E/DX2                !
 ! D87   D(12,13,14,9)           0.1135         estimate D2E/DX2                !
 ! D88   D(12,13,14,17)       -179.8462         estimate D2E/DX2                !
 ! D89   D(19,13,14,9)        -179.2752         estimate D2E/DX2                !
 ! D90   D(19,13,14,17)          0.7652         estimate D2E/DX2                !
 --------------------------------------------------------------------------------
 Trust Radius=3.00D-01 FncErr=1.00D-07 GrdErr=1.00D-06
 Number of steps in this run=     50 maximum allowed number of steps=    216.
 GradGradGradGradGradGradGradGradGradGradGradGradGradGradGradGradGradGrad

                          Input orientation:                          
 ---------------------------------------------------------------------
 Center     Atomic      Atomic             Coordinates (Angstroms)
 Number     Number       Type             X           Y           Z
 ---------------------------------------------------------------------
      1          6           0       -1.607827   -0.812640    2.255697
      2          6           0       -0.184175   -0.431896    2.642203
      3          6           0        0.189227    1.057255    2.436496
      4          6           0       -0.687759    2.047277    3.274299
      5          6           0       -0.190598    3.502786    3.141359
      6          8           0       -0.417242    4.015277    1.835012
      7          7           0        0.124855    1.459943    1.014958
      8          6           0        1.187256    0.910085    0.164850
      9          6           0        5.040375    2.723224    0.887517
     10          6           0        4.771520    1.437829    1.354701
     11          6           0        3.526409    0.858328    1.112617
     12          6           0        2.529647    1.535255    0.408380
     13          6           0        2.820888    2.819865   -0.054137
     14          6           0        4.059772    3.415765    0.179278
     15          1           0        6.007524    3.183010    1.073702
     16          1           0        5.522019    0.881920    1.908708
     17          1           0        4.247990    4.417987   -0.194423
     18          9           0        3.292799   -0.377141    1.579098
     19          9           0        1.902279    3.504042   -0.750942
     20          1           0       -1.794304   -0.653199    1.189972
     21          1           0       -1.774997   -1.875180    2.461736
     22          1           0       -2.348191   -0.246742    2.827612
     23          1           0       -0.020852   -0.706262    3.690912
     24          1           0        0.507269   -1.069900    2.079750
     25          1           0       -1.717881    2.011343    2.895549
     26          1           0        0.879450    3.578899    3.363437
     27          1           0       -0.723561    4.159692    3.836432
     28          1           0       -0.080914    3.325771    1.220850
     29          1           0        1.239087   -0.181757    0.231702
     30          1           0        0.915274    1.109696   -0.879970
     31          1           0        1.217554    1.182504    2.797740
     32          6           0       -0.708759    1.681552    4.763606
     33          1           0        0.306261    1.618341    5.169983
     34          1           0       -1.257721    2.432653    5.342240
     35          1           0       -1.209973    0.724889    4.936506
     36          1           0       -0.777672    1.180092    0.627963
 ---------------------------------------------------------------------
                    Distance matrix (angstroms):
                    1          2          3          4          5
     1  C    0.000000
     2  C    1.523528   0.000000
     3  C    2.599730   1.548972   0.000000
     4  C    3.172255   2.607574   1.565619   0.000000
     5  C    4.627725   3.966222   2.573270   1.543810   0.000000
     6  O    4.990316   4.525840   3.078877   2.453110   1.421463
     7  N    3.115486   2.514454   1.478875   2.471826   2.965518
     8  C    3.892546   3.133531   2.485578   3.804939   4.180931
     9  C    7.653290   6.350561   5.358024   6.242207   5.748965
    10  C    6.824403   5.450912   4.723614   5.818936   5.663816
    11  C    5.518980   4.215773   3.595693   4.883204   4.992504
    12  C    5.103321   4.027962   3.133577   4.339051   4.328982
    13  C    6.176078   5.184072   4.029353   4.897549   4.443717
    14  C    7.369708   6.235510   5.063469   5.830177   5.181423
    15  H    8.680778   7.339270   6.342604   7.138580   6.541726
    16  H    7.336664   5.901252   5.361714   6.464073   6.404870
    17  H    8.225153   7.156249   5.889806   6.481814   5.627264
    18  F    4.966244   3.636281   3.524880   4.959471   5.443211
    19  F    6.324118   5.599851   4.368189   5.003302   4.419292
    20  H    1.093602   2.179556   2.900667   3.586284   4.863332
    21  H    1.095166   2.155540   3.529588   4.150664   5.647542
    22  H    1.093374   2.179822   2.879561   2.866895   4.337350
    23  H    2.142346   1.096240   2.174324   2.863618   4.248165
    24  H    2.137936   1.096128   2.180185   3.545678   4.745892
    25  H    2.897655   2.895834   2.181301   1.098132   2.148818
    26  H    5.167132   4.211645   2.773863   2.193161   1.095497
    27  H    5.291950   4.774914   3.523935   2.186223   1.094852
    28  H    4.530874   4.018827   2.587844   2.493885   1.931766
    29  H    3.549576   2.810473   2.738334   4.235413   4.907745
    30  H    4.460249   3.998874   3.395415   4.550464   4.808422
    31  H    3.501027   2.143671   1.097106   2.145963   2.735813
    32  C    3.649510   3.040099   2.571297   1.533699   2.493405
    33  H    4.250466   3.291454   2.792931   2.183044   2.813062
    34  H    4.492354   4.080238   3.525440   2.179392   2.669796
    35  H    3.115930   2.766630   2.884142   2.187316   3.460981
    36  H    2.703638   2.647245   2.054452   2.786250   3.472279
                    6          7          8          9         10
     6  O    0.000000
     7  N    2.737899   0.000000
     8  C    3.873767   1.467557   0.000000
     9  C    5.687946   5.076855   4.319288   0.000000
    10  C    5.813535   4.659121   3.813294   1.393838   0.000000
    11  C    5.102996   3.455727   2.524397   2.412592   1.394535
    12  C    4.107304   2.481256   1.500719   2.818616   2.435366
    13  C    3.934893   3.203271   2.522691   2.412918   2.774854
    14  C    4.810876   4.472938   3.811822   1.393843   2.408409
    15  H    6.523027   6.130106   5.406217   1.086943   2.156924
    16  H    6.715518   5.501116   4.672473   2.159910   1.085913
    17  H    5.103447   5.216596   4.669320   2.161178   3.399296
    18  F    5.755279   3.705267   2.844356   3.625544   2.351826
    19  F    3.511224   3.233571   2.842278   3.625172   4.115278
    20  H    4.909893   2.859925   3.519152   7.629191   6.892719
    21  H    6.077316   4.101908   4.669939   8.370949   7.420137
    22  H    4.783161   3.509194   4.574706   8.196071   7.463078
    23  H    5.088656   3.445926   4.062661   6.725802   5.746463
    24  H    5.174325   2.771304   2.837176   6.029781   4.999824
    25  H    2.613839   2.690045   4.136340   7.086113   6.694435
    26  H    2.051321   3.251883   4.177113   4.916875   4.875183
    27  H    2.029869   3.996144   5.262289   6.631930   6.615394
    28  H    0.982716   1.888398   2.925565   5.167376   5.208489
    29  H    4.788436   2.133116   1.095114   4.828954   4.045030
    30  H    4.193939   2.082832   1.097938   4.769061   4.469011
    31  H    3.409400   2.109331   2.647119   4.542767   3.844246
    32  C    3.756051   3.846607   5.033745   7.011540   6.458598
    33  H    4.170227   4.161998   5.131192   6.478589   5.876010
    34  H    3.938496   4.645756   5.924651   7.719780   7.296704
    35  H    4.590680   4.207209   5.343192   7.710675   7.008271
    36  H    3.102443   1.021096   2.036742   6.024807   5.602509
                   11         12         13         14         15
    11  C    0.000000
    12  C    1.395605   0.000000
    13  C    2.388870   1.396054   0.000000
    14  C    2.774181   2.435177   1.394422   0.000000
    15  H    3.400234   3.905557   3.399786   2.155901   0.000000
    16  H    2.148669   3.410590   3.860635   3.398450   2.495589
    17  H    3.860078   3.409724   2.147160   1.086060   2.495850
    18  F    1.341105   2.368595   3.620912   4.115080   4.505533
    19  F    3.620836   2.369333   1.340701   2.351144   4.503934
    20  H    5.531789   4.908846   5.908467   7.200568   8.694742
    21  H    6.115316   5.863216   7.035284   8.200503   9.385071
    22  H    6.218787   5.729005   6.665428   7.841532   9.200944
    23  H    4.656029   4.722760   5.876602   6.780426   7.636592
    24  H    3.710609   3.697340   5.003656   6.029367   7.025111
    25  H    5.657815   4.945115   5.473096   6.536957   8.023329
    26  H    4.412946   3.953732   4.003140   4.503324   5.629987
    27  H    6.031618   5.405791   5.430910   6.066999   7.341259
    28  H    4.371815   3.268193   3.209671   4.270627   6.091889
    29  H    2.662636   2.155201   3.404928   4.571780   5.896492
    30  H    3.294179   2.108826   2.690361   4.040771   5.834936
    31  H    2.876724   2.748647   3.658529   4.463407   5.469748
    32  C    5.651908   5.429242   6.079869   6.838307   7.808856
    33  H    5.235379   5.255779   5.921017   6.498209   7.192504
    34  H    6.576938   6.284302   6.775387   7.476524   8.459742
    35  H    6.088780   5.928354   6.748576   7.592249   8.547273
    36  H    4.343217   3.333574   4.012948   5.347936   7.088670
                   16         17         18         19         20
    16  H    0.000000
    17  H    4.306980   0.000000
    18  F    2.581337   5.201059   0.000000
    19  F    5.201133   2.578249   4.735632   0.000000
    20  H    7.510110   8.008920   5.109427   5.891903   0.000000
    21  H    7.820095   9.106893   5.357773   7.264963   1.763801
    22  H    8.003653   8.625659   5.778976   6.703799   1.775912
    23  H    6.035064   7.718599   3.943141   6.415229   3.066374
    24  H    5.383918   7.020097   2.913717   5.556961   2.502515
    25  H    7.393619   7.136629   5.704806   5.350757   3.164588
    26  H    5.562677   4.970865   4.965720   4.240271   5.457432
    27  H    7.312125   6.405531   6.466031   5.326248   5.595906
    28  H    6.151294   4.683518   5.022135   2.802285   4.332304
    29  H    4.720939   5.512960   2.464018   3.871760   3.215898
    30  H    5.389871   4.745710   3.729655   2.593014   3.838525
    31  H    4.405581   5.348358   2.867791   4.295525   3.876340
    32  C    6.900177   7.525921   5.512874   6.367828   4.404581
    33  H    6.195350   7.221641   5.078958   6.415645   5.041107
    34  H    7.756210   8.056615   6.539374   6.946966   5.201128
    35  H    7.383220   8.351932   5.723776   7.053855   4.034487
    36  H    6.435474   6.034696   4.460759   3.805819   2.170334
                   21         22         23         24         25
    21  H    0.000000
    22  H    1.764717   0.000000
    23  H    2.440137   2.524471   0.000000
    24  H    2.450128   3.064399   1.734067   0.000000
    25  H    3.911076   2.345390   3.301195   3.887271   0.000000
    26  H    6.132384   5.033915   4.390944   4.837117   3.069573
    27  H    6.278136   4.803520   4.918586   5.652389   2.547418
    28  H    5.608886   4.526044   4.728859   4.517255   2.685516
    29  H    4.114053   4.428491   3.718694   2.177071   4.544164
    30  H    5.226284   5.122137   5.006695   3.698249   4.690524
    31  H    4.291584   3.841637   2.428753   2.468469   3.051773
    32  C    4.368731   3.186554   2.706574   4.031414   2.148657
    33  H    4.885788   4.001419   2.774605   4.100803   3.069960
    34  H    5.207908   3.832967   3.756264   5.101657   2.524984
    35  H    3.633744   2.585931   2.239131   3.785663   2.465449
    36  H    3.700279   3.056279   3.675971   2.970054   2.591702
                   26         27         28         29         30
    26  H    0.000000
    27  H    1.769375   0.000000
    28  H    2.361578   2.819519   0.000000
    29  H    4.907101   5.974466   3.876025   0.000000
    30  H    4.909659   5.850872   3.211981   1.734509   0.000000
    31  H    2.485364   3.702763   2.960776   2.906239   3.690830
    32  C    2.843028   2.645949   3.955852   5.272967   5.900377
    33  H    2.726892   3.049157   4.319823   5.338271   6.101766
    34  H    3.130023   2.352753   4.378172   6.259935   6.722203
    35  H    3.871125   3.639317   4.673913   5.380993   6.204526
    36  H    3.997893   4.378952   2.332579   2.465557   2.268234
                   31         32         33         34         35
    31  H    0.000000
    32  C    2.797206   0.000000
    33  H    2.578361   1.095173   0.000000
    34  H    3.763554   1.095595   1.771670   0.000000
    35  H    3.267510   1.093761   1.775312   1.755949   0.000000
    36  H    2.947688   4.166504   4.690087   4.901404   4.354037
                   36
    36  H    0.000000
 Stoichiometry    C13H19F2NO
 Framework group  C1[X(C13H19F2NO)]
 Deg. of freedom   102
 Full point group                 C1      NOp   1
 Largest Abelian subgroup         C1      NOp   1
 Largest concise Abelian subgroup C1      NOp   1
                         Standard orientation:                         
 ---------------------------------------------------------------------
 Center     Atomic      Atomic             Coordinates (Angstroms)
 Number     Number       Type             X           Y           Z
 ---------------------------------------------------------------------
      1          6           0       -3.388144   -1.643278   -1.171355
      2          6           0       -2.272077   -1.676327   -0.134803
      3          6           0       -1.535358   -0.333789    0.097906
      4          6           0       -2.467742    0.814946    0.609992
      5          6           0       -1.666868    2.088564    0.956179
      6          8           0       -1.133095    2.703220   -0.209086
      7          7           0       -0.832094    0.137079   -1.114849
      8          6           0        0.359274   -0.637191   -1.482098
      9          6           0        3.701104    0.041559    1.168886
     10          6           0        2.974036   -1.145076    1.246690
     11          6           0        1.899566   -1.357850    0.383574
     12          6           0        1.526029   -0.406603   -0.566855
     13          6           0        2.269857    0.773060   -0.630728
     14          6           0        3.346629    1.003687    0.224717
     15          1           0        4.538660    0.216209    1.839290
     16          1           0        3.234113   -1.906893    1.975526
     17          1           0        3.899686    1.935081    0.146228
     18          9           0        1.213694   -2.505851    0.484736
     19          9           0        1.961165    1.709997   -1.538658
     20          1           0       -3.009688   -1.390319   -2.165713
     21          1           0       -3.856973   -2.630559   -1.241102
     22          1           0       -4.169383   -0.926925   -0.903082
     23          1           0       -2.687009   -2.032884    0.815166
     24          1           0       -1.552633   -2.449400   -0.428496
     25          1           0       -3.176946    1.074001   -0.187387
     26          1           0       -0.840871    1.864761    1.640106
     27          1           0       -2.309454    2.831194    1.440208
     28          1           0       -0.703811    1.978144   -0.714764
     29          1           0        0.137079   -1.704879   -1.581838
     30          1           0        0.663416   -0.323637   -2.489396
     31          1           0       -0.800201   -0.505600    0.893937
     32          6           0       -3.268039    0.399372    1.850578
     33          1           0       -2.606126    0.047670    2.649065
     34          1           0       -3.849019    1.242349    2.240683
     35          1           0       -3.983931   -0.394975    1.620740
     36          1           0       -1.480828    0.127605   -1.903323
 ---------------------------------------------------------------------
 Rotational constants (GHZ):      0.6345199      0.3265827      0.2772882
 Standard basis: 6-31G(d,p) (6D, 7F)
 There are   350 symmetry adapted cartesian basis functions of A   symmetry.
 There are   350 symmetry adapted basis functions of A   symmetry.
   350 basis functions,   609 primitive gaussians,   350 cartesian basis functions
    65 alpha electrons       65 beta electrons
       nuclear repulsion energy      1311.3229127458 Hartrees.
 NAtoms=   36 NActive=   36 NUniq=   36 SFac= 1.00D+00 NAtFMM=   60 NAOKFM=F Big=F
 Integral buffers will be    131072 words long.
 Raffenetti 2 integral format.
 Two-electron integral symmetry is turned on.
 ------------------------------------------------------------------------------
 Polarizable Continuum Model (PCM)
 =================================
 Model                : PCM (using non-symmetric T matrix).
 Atomic radii         : UFF (Universal Force Field).
 Polarization charges : Total charges.
 Charge compensation  : None.
 Solution method      : On-the-fly selection.
 Cavity type          : Scaled VdW (van der Waals Surface) (Alpha=1.100).
 Cavity algorithm     : GePol (No added spheres)
                        Default sphere list used, NSphG=   36.
                        Lebedev-Laikov grids with approx.  5.0 points / Ang**2.
                        Smoothing algorithm: Karplus/York (Gamma=1.0000).
                        Polarization charges: spherical gaussians, with
                                              point-specific exponents (IZeta= 3).
                        Self-potential: point-specific (ISelfS= 7).
                        Self-field    : sphere-specific E.n sum rule (ISelfD= 2).
 1st derivatives      : Analytical E(r).r(x)/FMM algorithm (CHGder, D1EAlg=3).
                        Cavity 1st derivative terms included.
 Solvent              : Chloroform, Eps=   4.711300 Eps(inf)=   2.090627
 ------------------------------------------------------------------------------
 One-electron integrals computed using PRISM.
 NBasis=   350 RedAO= T EigKep=  4.07D-04  NBF=   350
 NBsUse=   350 1.00D-06 EigRej= -1.00D+00 NBFU=   350
 ExpMin= 1.61D-01 ExpMax= 7.00D+03 ExpMxC= 1.05D+03 IAcc=1 IRadAn=         1 AccDes= 0.00D+00
 Harris functional with IExCor=  402 and IRadAn=       1 diagonalized for initial guess.
 HarFok:  IExCor=  402 AccDes= 0.00D+00 IRadAn=         1 IDoV= 1 UseB2=F ITyADJ=14
 ICtDFT=  3500011 ScaDFX=  1.000000  1.000000  1.000000  1.000000
 FoFCou: FMM=F IPFlag=           0 FMFlag=      100000 FMFlg1=           0
         NFxFlg=           0 DoJE=T BraDBF=F KetDBF=T FulRan=T
         wScrn=  0.000000 ICntrl=     500 IOpCl=  0 I1Cent=   200000004 NGrid=           0
         NMat0=    1 NMatS0=      1 NMatT0=    0 NMatD0=    1 NMtDS0=    0 NMtDT0=    0
 Petite list used in FoFCou.
 Requested convergence on RMS density matrix=1.00D-08 within 128 cycles.
 Requested convergence on MAX density matrix=1.00D-06.
 Requested convergence on             energy=1.00D-06.
 No special actions if energy rises.
 Inv3:  Mode=1 IEnd=    17875443.
 Iteration    1 A*A^-1 deviation from unit magnitude is 7.99D-15 for    979.
 Iteration    1 A*A^-1 deviation from orthogonality  is 7.11D-15 for   1960    544.
 Iteration    1 A^-1*A deviation from unit magnitude is 6.88D-15 for   1251.
 Iteration    1 A^-1*A deviation from orthogonality  is 1.94D-12 for   2428   2387.
 Error on total polarization charges =  0.00760
 SCF Done:  E(RB3LYP) =  -836.496742614     A.U. after   12 cycles
            NFock= 12  Conv=0.69D-08     -V/T= 2.0088

 **********************************************************************

            Population analysis using the SCF density.

 **********************************************************************

 Orbital symmetries:
       Occupied  (A) (A) (A) (A) (A) (A) (A) (A) (A) (A) (A) (A)
                 (A) (A) (A) (A) (A) (A) (A) (A) (A) (A) (A) (A)
                 (A) (A) (A) (A) (A) (A) (A) (A) (A) (A) (A) (A)
                 (A) (A) (A) (A) (A) (A) (A) (A) (A) (A) (A) (A)
                 (A) (A) (A) (A) (A) (A) (A) (A) (A) (A) (A) (A)
                 (A) (A) (A) (A) (A)
       Virtual   (A) (A) (A) (A) (A) (A) (A) (A) (A) (A) (A) (A)
                 (A) (A) (A) (A) (A) (A) (A) (A) (A) (A) (A) (A)
                 (A) (A) (A) (A) (A) (A) (A) (A) (A) (A) (A) (A)
                 (A) (A) (A) (A) (A) (A) (A) (A) (A) (A) (A) (A)
                 (A) (A) (A) (A) (A) (A) (A) (A) (A) (A) (A) (A)
                 (A) (A) (A) (A) (A) (A) (A) (A) (A) (A) (A) (A)
                 (A) (A) (A) (A) (A) (A) (A) (A) (A) (A) (A) (A)
                 (A) (A) (A) (A) (A) (A) (A) (A) (A) (A) (A) (A)
                 (A) (A) (A) (A) (A) (A) (A) (A) (A) (A) (A) (A)
                 (A) (A) (A) (A) (A) (A) (A) (A) (A) (A) (A) (A)
                 (A) (A) (A) (A) (A) (A) (A) (A) (A) (A) (A) (A)
                 (A) (A) (A) (A) (A) (A) (A) (A) (A) (A) (A) (A)
                 (A) (A) (A) (A) (A) (A) (A) (A) (A) (A) (A) (A)
                 (A) (A) (A) (A) (A) (A) (A) (A) (A) (A) (A) (A)
                 (A) (A) (A) (A) (A) (A) (A) (A) (A) (A) (A) (A)
                 (A) (A) (A) (A) (A) (A) (A) (A) (A) (A) (A) (A)
                 (A) (A) (A) (A) (A) (A) (A) (A) (A) (A) (A) (A)
                 (A) (A) (A) (A) (A) (A) (A) (A) (A) (A) (A) (A)
                 (A) (A) (A) (A) (A) (A) (A) (A) (A) (A) (A) (A)
                 (A) (A) (A) (A) (A) (A) (A) (A) (A) (A) (A) (A)
                 (A) (A) (A) (A) (A) (A) (A) (A) (A) (A) (A) (A)
                 (A) (A) (A) (A) (A) (A) (A) (A) (A) (A) (A) (A)
                 (A) (A) (A) (A) (A) (A) (A) (A) (A) (A) (A) (A)
                 (A) (A) (A) (A) (A) (A) (A) (A) (A)
 The electronic state is 1-A.
 Alpha  occ. eigenvalues --  -24.72133 -24.71943 -19.10543 -14.33453 -10.28357
 Alpha  occ. eigenvalues --  -10.28311 -10.22254 -10.21572 -10.21249 -10.21012
 Alpha  occ. eigenvalues --  -10.20827 -10.19986 -10.19943 -10.18373 -10.17917
 Alpha  occ. eigenvalues --  -10.17565 -10.17265  -1.23480  -1.23253  -0.98368
 Alpha  occ. eigenvalues --   -0.91780  -0.87083  -0.80166  -0.77367  -0.75467
 Alpha  occ. eigenvalues --   -0.75437  -0.69570  -0.66067  -0.65554  -0.63092
 Alpha  occ. eigenvalues --   -0.61529  -0.59448  -0.56282  -0.55691  -0.53155
 Alpha  occ. eigenvalues --   -0.50086  -0.49400  -0.49350  -0.48560  -0.47483
 Alpha  occ. eigenvalues --   -0.46627  -0.46495  -0.44669  -0.44206  -0.43183
 Alpha  occ. eigenvalues --   -0.42292  -0.41829  -0.40704  -0.40015  -0.39408
 Alpha  occ. eigenvalues --   -0.38819  -0.37486  -0.37411  -0.35810  -0.35775
 Alpha  occ. eigenvalues --   -0.35129  -0.34709  -0.34164  -0.33303  -0.31398
 Alpha  occ. eigenvalues --   -0.30708  -0.25793  -0.24843  -0.24173  -0.22841
 Alpha virt. eigenvalues --   -0.01691  -0.00366   0.07073   0.08103   0.09149
 Alpha virt. eigenvalues --    0.11130   0.11905   0.13465   0.13670   0.14462
 Alpha virt. eigenvalues --    0.14599   0.14936   0.15247   0.15860   0.17028
 Alpha virt. eigenvalues --    0.17695   0.17968   0.18413   0.18920   0.19255
 Alpha virt. eigenvalues --    0.20403   0.20876   0.22109   0.22647   0.22948
 Alpha virt. eigenvalues --    0.23359   0.24271   0.26156   0.26522   0.27030
 Alpha virt. eigenvalues --    0.27677   0.28828   0.29591   0.30957   0.31685
 Alpha virt. eigenvalues --    0.37559   0.38420   0.45899   0.48931   0.49719
 Alpha virt. eigenvalues --    0.50546   0.50973   0.51271   0.51740   0.53194
 Alpha virt. eigenvalues --    0.54187   0.55412   0.55693   0.57579   0.57823
 Alpha virt. eigenvalues --    0.58426   0.59338   0.59551   0.60388   0.60755
 Alpha virt. eigenvalues --    0.61857   0.62935   0.63450   0.65384   0.65775
 Alpha virt. eigenvalues --    0.66712   0.67739   0.68023   0.69934   0.71472
 Alpha virt. eigenvalues --    0.73004   0.73812   0.75668   0.77741   0.77977
 Alpha virt. eigenvalues --    0.79651   0.80932   0.81871   0.82235   0.83461
 Alpha virt. eigenvalues --    0.84563   0.84655   0.85608   0.86480   0.86683
 Alpha virt. eigenvalues --    0.87350   0.87893   0.89008   0.89360   0.89908
 Alpha virt. eigenvalues --    0.91463   0.92426   0.92828   0.93802   0.94114
 Alpha virt. eigenvalues --    0.96334   0.96709   0.97411   0.98551   0.99967
 Alpha virt. eigenvalues --    1.01296   1.02807   1.04174   1.06871   1.07900
 Alpha virt. eigenvalues --    1.08713   1.09831   1.11356   1.12525   1.18353
 Alpha virt. eigenvalues --    1.19516   1.20823   1.21416   1.22167   1.22810
 Alpha virt. eigenvalues --    1.24206   1.25757   1.27634   1.28360   1.32521
 Alpha virt. eigenvalues --    1.34880   1.35675   1.37914   1.38691   1.39631
 Alpha virt. eigenvalues --    1.40004   1.42829   1.43158   1.43795   1.45738
 Alpha virt. eigenvalues --    1.46270   1.48975   1.50245   1.51632   1.55155
 Alpha virt. eigenvalues --    1.55534   1.56986   1.59531   1.61726   1.67142
 Alpha virt. eigenvalues --    1.67770   1.69320   1.71936   1.73829   1.74713
 Alpha virt. eigenvalues --    1.76405   1.77627   1.78380   1.80167   1.80514
 Alpha virt. eigenvalues --    1.81577   1.83423   1.84015   1.84826   1.85897
 Alpha virt. eigenvalues --    1.87123   1.87952   1.88513   1.89070   1.90249
 Alpha virt. eigenvalues --    1.90777   1.91316   1.91723   1.94021   1.95096
 Alpha virt. eigenvalues --    1.95685   1.96810   1.97539   1.98604   2.00291
 Alpha virt. eigenvalues --    2.01957   2.04086   2.04684   2.05455   2.05920
 Alpha virt. eigenvalues --    2.06382   2.08060   2.08863   2.10201   2.12118
 Alpha virt. eigenvalues --    2.13527   2.14375   2.14930   2.17632   2.17788
 Alpha virt. eigenvalues --    2.19571   2.20905   2.21499   2.23530   2.25691
 Alpha virt. eigenvalues --    2.26867   2.27663   2.28180   2.28893   2.29782
 Alpha virt. eigenvalues --    2.30941   2.31300   2.31915   2.33570   2.35376
 Alpha virt. eigenvalues --    2.37135   2.37958   2.38694   2.39200   2.41235
 Alpha virt. eigenvalues --    2.41589   2.42426   2.43379   2.45643   2.48934
 Alpha virt. eigenvalues --    2.51093   2.52400   2.52664   2.53796   2.55308
 Alpha virt. eigenvalues --    2.57557   2.57899   2.57944   2.61180   2.62076
 Alpha virt. eigenvalues --    2.62488   2.64692   2.66013   2.67113   2.69372
 Alpha virt. eigenvalues --    2.70417   2.70993   2.73482   2.74199   2.74347
 Alpha virt. eigenvalues --    2.76571   2.77755   2.78036   2.80563   2.82518
 Alpha virt. eigenvalues --    2.83641   2.86223   2.88272   2.88923   2.89766
 Alpha virt. eigenvalues --    2.91626   2.92274   2.92430   2.94141   2.94864
 Alpha virt. eigenvalues --    2.97055   3.01430   3.05572   3.06226   3.06771
 Alpha virt. eigenvalues --    3.10803   3.15019   3.19906   3.20349   3.22278
 Alpha virt. eigenvalues --    3.25662   3.28154   3.31588   3.33481   3.35474
 Alpha virt. eigenvalues --    3.36357   3.38363   3.39945   3.41041   3.45951
 Alpha virt. eigenvalues --    3.46445   3.48367   3.49551   3.51012   3.55357
 Alpha virt. eigenvalues --    3.57103   3.65061   3.80277   4.00224   4.08551
 Alpha virt. eigenvalues --    4.11386   4.13469   4.18220   4.34384   4.38660
 Alpha virt. eigenvalues --    4.42842   4.47002   4.53248   4.59555   4.63083
 Alpha virt. eigenvalues --    4.65311   4.75769   4.79387   5.55530   5.61590
          Condensed to atoms (all electrons):
               1          2          3          4          5          6
     1  C    4.943522   0.360634  -0.041154  -0.006037   0.000081  -0.000009
     2  C    0.360634   4.996660   0.365320  -0.053636   0.003944  -0.000126
     3  C   -0.041154   0.365320   4.866207   0.373471  -0.029629  -0.004506
     4  C   -0.006037  -0.053636   0.373471   5.020724   0.360804  -0.043013
     5  C    0.000081   0.003944  -0.029629   0.360804   4.714925   0.262709
     6  O   -0.000009  -0.000126  -0.004506  -0.043013   0.262709   8.224668
     7  N   -0.007642  -0.059563   0.270918  -0.049806   0.001617  -0.031517
     8  C   -0.000614  -0.004217  -0.044513   0.005895  -0.000196   0.000319
     9  C    0.000000   0.000000   0.000003   0.000001  -0.000002  -0.000001
    10  C    0.000000   0.000005  -0.000073   0.000000  -0.000001   0.000001
    11  C   -0.000009   0.000092   0.000064   0.000018   0.000001   0.000004
    12  C    0.000030  -0.001164  -0.003929  -0.000175   0.000183   0.000327
    13  C    0.000001  -0.000001  -0.000071  -0.000079   0.000176   0.000567
    14  C    0.000000   0.000001  -0.000001  -0.000003   0.000001   0.000018
    15  H    0.000000   0.000000   0.000000   0.000000   0.000000   0.000000
    16  H    0.000000   0.000000   0.000000   0.000000   0.000000   0.000000
    17  H    0.000000   0.000000   0.000000   0.000000   0.000001   0.000002
    18  F    0.000015  -0.000781  -0.000043   0.000015   0.000000   0.000000
    19  F    0.000000   0.000000  -0.000006   0.000001  -0.000066  -0.000537
    20  H    0.381584  -0.038038  -0.004590  -0.000401  -0.000013   0.000004
    21  H    0.382756  -0.027980   0.004263   0.000118  -0.000002   0.000000
    22  H    0.388036  -0.036467  -0.005727   0.003261  -0.000039  -0.000001
    23  H   -0.039661   0.371523  -0.027043  -0.005850   0.000072   0.000004
    24  H   -0.042212   0.376321  -0.030775   0.005051  -0.000109   0.000001
    25  H    0.003067  -0.006633  -0.047182   0.372598  -0.043109   0.005030
    26  H   -0.000004   0.000040  -0.014159  -0.046774   0.360244  -0.043067
    27  H    0.000003  -0.000177   0.004799  -0.033491   0.380665  -0.038601
    28  H   -0.000002   0.000709  -0.001942  -0.008078  -0.037973   0.275251
    29  H    0.000620   0.004546  -0.006740  -0.000154   0.000000  -0.000044
    30  H   -0.000030  -0.000062   0.005323  -0.000200  -0.000001   0.000051
    31  H    0.005195  -0.046901   0.381553  -0.040445  -0.006993  -0.000027
    32  C   -0.002630  -0.001166  -0.044682   0.327437  -0.041660   0.003397
    33  H    0.000156  -0.001472  -0.006729  -0.034679  -0.004813  -0.000007
    34  H    0.000000   0.000089   0.004393  -0.030481  -0.006025   0.000061
    35  H    0.000782   0.000897  -0.004976  -0.022656   0.003916  -0.000082
    36  H    0.005189  -0.008846  -0.036583  -0.003325  -0.000299   0.001140
               7          8          9         10         11         12
     1  C   -0.007642  -0.000614   0.000000   0.000000  -0.000009   0.000030
     2  C   -0.059563  -0.004217   0.000000   0.000005   0.000092  -0.001164
     3  C    0.270918  -0.044513   0.000003  -0.000073   0.000064  -0.003929
     4  C   -0.049806   0.005895   0.000001   0.000000   0.000018  -0.000175
     5  C    0.001617  -0.000196  -0.000002  -0.000001   0.000001   0.000183
     6  O   -0.031517   0.000319  -0.000001   0.000001   0.000004   0.000327
     7  N    6.923185   0.287934   0.000018  -0.000098  -0.002671  -0.064664
     8  C    0.287934   4.927022  -0.000686   0.008793  -0.053212   0.315682
     9  C    0.000018  -0.000686   4.853534   0.484551  -0.006168  -0.028672
    10  C   -0.000098   0.008793   0.484551   5.055418   0.469436  -0.070130
    11  C   -0.002671  -0.053212  -0.006168   0.469436   4.612970   0.407785
    12  C   -0.064664   0.315682  -0.028672  -0.070130   0.407785   5.315243
    13  C    0.003058  -0.052830  -0.008037  -0.048588   0.019139   0.390905
    14  C   -0.000053   0.008323   0.485190  -0.030453  -0.051317  -0.072498
    15  H    0.000000   0.000004   0.375871  -0.034533   0.003630   0.000198
    16  H    0.000001  -0.000149  -0.037365   0.359544  -0.032843   0.006523
    17  H    0.000003  -0.000150  -0.037182   0.004716   0.000453   0.006436
    18  F   -0.000202  -0.002326   0.003027  -0.046957   0.303778  -0.054128
    19  F   -0.001564   0.003854   0.002975  -0.000072   0.002476  -0.057533
    20  H    0.003129   0.000722   0.000000   0.000000   0.000000   0.000030
    21  H    0.000168  -0.000004   0.000000   0.000000   0.000000   0.000000
    22  H   -0.000041   0.000018   0.000000   0.000000   0.000000  -0.000002
    23  H    0.004766   0.000155   0.000000   0.000000   0.000003   0.000033
    24  H   -0.004493   0.001184  -0.000001   0.000021   0.000309  -0.000534
    25  H   -0.003589  -0.000044   0.000000   0.000000  -0.000002  -0.000005
    26  H    0.000884  -0.000056   0.000015  -0.000019   0.000030   0.000276
    27  H   -0.000249   0.000008   0.000000   0.000000   0.000000   0.000004
    28  H    0.059986  -0.000930  -0.000014   0.000010  -0.000129  -0.003806
    29  H   -0.044945   0.372259  -0.000039   0.000345  -0.008054  -0.048497
    30  H   -0.035963   0.372525   0.000003  -0.000243   0.004189  -0.027761
    31  H   -0.043189  -0.007756  -0.000037  -0.000133   0.001476   0.005787
    32  C    0.004040  -0.000135   0.000000   0.000000   0.000003   0.000005
    33  H    0.000041   0.000001   0.000000   0.000000  -0.000004  -0.000004
    34  H   -0.000089   0.000002   0.000000   0.000000   0.000000   0.000000
    35  H   -0.000051  -0.000002   0.000000   0.000000   0.000000   0.000000
    36  H    0.335208  -0.031736   0.000000   0.000005  -0.000070   0.005532
              13         14         15         16         17         18
     1  C    0.000001   0.000000   0.000000   0.000000   0.000000   0.000015
     2  C   -0.000001   0.000001   0.000000   0.000000   0.000000  -0.000781
     3  C   -0.000071  -0.000001   0.000000   0.000000   0.000000  -0.000043
     4  C   -0.000079  -0.000003   0.000000   0.000000   0.000000   0.000015
     5  C    0.000176   0.000001   0.000000   0.000000   0.000001   0.000000
     6  O    0.000567   0.000018   0.000000   0.000000   0.000002   0.000000
     7  N    0.003058  -0.000053   0.000000   0.000001   0.000003  -0.000202
     8  C   -0.052830   0.008323   0.000004  -0.000149  -0.000150  -0.002326
     9  C   -0.008037   0.485190   0.375871  -0.037365  -0.037182   0.003027
    10  C   -0.048588  -0.030453  -0.034533   0.359544   0.004716  -0.046957
    11  C    0.019139  -0.051317   0.003630  -0.032843   0.000453   0.303778
    12  C    0.390905  -0.072498   0.000198   0.006523   0.006436  -0.054128
    13  C    4.598024   0.479223   0.003640   0.000448  -0.032307   0.002486
    14  C    0.479223   5.048871  -0.034691   0.004743   0.359379  -0.000054
    15  H    0.003640  -0.034691   0.578486  -0.005919  -0.005934  -0.000022
    16  H    0.000448   0.004743  -0.005919   0.592783  -0.000149  -0.000531
    17  H   -0.032307   0.359379  -0.005934  -0.000149   0.589985   0.000001
    18  F    0.002486  -0.000054  -0.000022  -0.000531   0.000001   9.075483
    19  F    0.305544  -0.047413  -0.000022   0.000001  -0.000359   0.000000
    20  H    0.000000   0.000000   0.000000   0.000000   0.000000   0.000000
    21  H    0.000000   0.000000   0.000000   0.000000   0.000000   0.000000
    22  H    0.000000   0.000000   0.000000   0.000000   0.000000   0.000000
    23  H    0.000000   0.000000   0.000000   0.000000   0.000000  -0.000026
    24  H   -0.000017   0.000000   0.000000   0.000000   0.000000   0.003300
    25  H   -0.000003   0.000000   0.000000   0.000000   0.000000   0.000000
    26  H    0.000077   0.000005   0.000000   0.000000  -0.000002  -0.000001
    27  H    0.000002   0.000000   0.000000   0.000000   0.000000   0.000000
    28  H    0.001715  -0.000019   0.000000   0.000000   0.000005  -0.000001
    29  H    0.005126  -0.000129   0.000000   0.000000   0.000002   0.005229
    30  H   -0.008502   0.000168   0.000000   0.000002  -0.000004   0.000211
    31  H    0.000365  -0.000013   0.000000  -0.000004  -0.000001   0.002289
    32  C    0.000000   0.000000   0.000000   0.000000   0.000000   0.000000
    33  H    0.000000   0.000000   0.000000   0.000000   0.000000   0.000000
    34  H    0.000000   0.000000   0.000000   0.000000   0.000000   0.000000
    35  H    0.000000   0.000000   0.000000   0.000000   0.000000   0.000000
    36  H    0.000132   0.000008   0.000000   0.000000   0.000000  -0.000009
              19         20         21         22         23         24
     1  C    0.000000   0.381584   0.382756   0.388036  -0.039661  -0.042212
     2  C    0.000000  -0.038038  -0.027980  -0.036467   0.371523   0.376321
     3  C   -0.000006  -0.004590   0.004263  -0.005727  -0.027043  -0.030775
     4  C    0.000001  -0.000401   0.000118   0.003261  -0.005850   0.005051
     5  C   -0.000066  -0.000013  -0.000002  -0.000039   0.000072  -0.000109
     6  O   -0.000537   0.000004   0.000000  -0.000001   0.000004   0.000001
     7  N   -0.001564   0.003129   0.000168  -0.000041   0.004766  -0.004493
     8  C    0.003854   0.000722  -0.000004   0.000018   0.000155   0.001184
     9  C    0.002975   0.000000   0.000000   0.000000   0.000000  -0.000001
    10  C   -0.000072   0.000000   0.000000   0.000000   0.000000   0.000021
    11  C    0.002476   0.000000   0.000000   0.000000   0.000003   0.000309
    12  C   -0.057533   0.000030   0.000000  -0.000002   0.000033  -0.000534
    13  C    0.305544   0.000000   0.000000   0.000000   0.000000  -0.000017
    14  C   -0.047413   0.000000   0.000000   0.000000   0.000000   0.000000
    15  H   -0.000022   0.000000   0.000000   0.000000   0.000000   0.000000
    16  H    0.000001   0.000000   0.000000   0.000000   0.000000   0.000000
    17  H   -0.000359   0.000000   0.000000   0.000000   0.000000   0.000000
    18  F    0.000000   0.000000   0.000000   0.000000  -0.000026   0.003300
    19  F    9.068211   0.000000   0.000000   0.000000   0.000000   0.000000
    20  H    0.000000   0.613643  -0.030166  -0.032778   0.005979  -0.005105
    21  H    0.000000  -0.030166   0.598863  -0.030038  -0.003968  -0.003388
    22  H    0.000000  -0.032778  -0.030038   0.595187  -0.004875   0.005553
    23  H    0.000000   0.005979  -0.003968  -0.004875   0.629912  -0.035314
    24  H    0.000000  -0.005105  -0.003388   0.005553  -0.035314   0.632139
    25  H    0.000000  -0.000083  -0.000077   0.001683   0.000064  -0.000052
    26  H    0.000004  -0.000001   0.000000  -0.000002  -0.000016  -0.000004
    27  H    0.000000   0.000001   0.000000   0.000009   0.000003   0.000002
    28  H    0.006566  -0.000032   0.000000  -0.000007  -0.000027  -0.000005
    29  H    0.000178  -0.000504  -0.000023  -0.000014  -0.000496   0.002745
    30  H    0.004622   0.000032   0.000000   0.000002   0.000005  -0.000097
    31  H    0.000003   0.000016  -0.000151   0.000014  -0.002153  -0.004021
    32  C    0.000000   0.000092   0.000004   0.000075   0.002391   0.000107
    33  H    0.000000  -0.000004   0.000001  -0.000026   0.000898  -0.000042
    34  H    0.000000   0.000002   0.000001  -0.000044  -0.000010  -0.000002
    35  H    0.000000  -0.000038  -0.000056   0.001673   0.000919  -0.000001
    36  H   -0.000044   0.005954  -0.000250   0.000037   0.000135  -0.000175
              25         26         27         28         29         30
     1  C    0.003067  -0.000004   0.000003  -0.000002   0.000620  -0.000030
     2  C   -0.006633   0.000040  -0.000177   0.000709   0.004546  -0.000062
     3  C   -0.047182  -0.014159   0.004799  -0.001942  -0.006740   0.005323
     4  C    0.372598  -0.046774  -0.033491  -0.008078  -0.000154  -0.000200
     5  C   -0.043109   0.360244   0.380665  -0.037973   0.000000  -0.000001
     6  O    0.005030  -0.043067  -0.038601   0.275251  -0.000044   0.000051
     7  N   -0.003589   0.000884  -0.000249   0.059986  -0.044945  -0.035963
     8  C   -0.000044  -0.000056   0.000008  -0.000930   0.372259   0.372525
     9  C    0.000000   0.000015   0.000000  -0.000014  -0.000039   0.000003
    10  C    0.000000  -0.000019   0.000000   0.000010   0.000345  -0.000243
    11  C   -0.000002   0.000030   0.000000  -0.000129  -0.008054   0.004189
    12  C   -0.000005   0.000276   0.000004  -0.003806  -0.048497  -0.027761
    13  C   -0.000003   0.000077   0.000002   0.001715   0.005126  -0.008502
    14  C    0.000000   0.000005   0.000000  -0.000019  -0.000129   0.000168
    15  H    0.000000   0.000000   0.000000   0.000000   0.000000   0.000000
    16  H    0.000000   0.000000   0.000000   0.000000   0.000000   0.000002
    17  H    0.000000  -0.000002   0.000000   0.000005   0.000002  -0.000004
    18  F    0.000000  -0.000001   0.000000  -0.000001   0.005229   0.000211
    19  F    0.000000   0.000004   0.000000   0.006566   0.000178   0.004622
    20  H   -0.000083  -0.000001   0.000001  -0.000032  -0.000504   0.000032
    21  H   -0.000077   0.000000   0.000000   0.000000  -0.000023   0.000000
    22  H    0.001683  -0.000002   0.000009  -0.000007  -0.000014   0.000002
    23  H    0.000064  -0.000016   0.000003  -0.000027  -0.000496   0.000005
    24  H   -0.000052  -0.000004   0.000002  -0.000005   0.002745  -0.000097
    25  H    0.654440   0.007361  -0.005688  -0.000654  -0.000005   0.000004
    26  H    0.007361   0.708129  -0.052872  -0.002884   0.000003   0.000003
    27  H   -0.005688  -0.052872   0.651610   0.005492   0.000000   0.000000
    28  H   -0.000654  -0.002884   0.005492   0.385955   0.000522  -0.000484
    29  H   -0.000005   0.000003   0.000000   0.000522   0.651898  -0.040539
    30  H    0.000004   0.000003   0.000000  -0.000484  -0.040539   0.609564
    31  H    0.006163   0.005767  -0.000024  -0.000353  -0.000799   0.000209
    32  C   -0.035926   0.001856  -0.005903   0.000069   0.000006   0.000002
    33  H    0.005879   0.003781  -0.000394   0.000005   0.000000   0.000000
    34  H   -0.002949  -0.000332   0.006047  -0.000011   0.000000   0.000000
    35  H   -0.005886  -0.000265  -0.000032   0.000006   0.000000   0.000000
    36  H    0.003821   0.000066   0.000007  -0.002598  -0.001862  -0.005482
              31         32         33         34         35         36
     1  C    0.005195  -0.002630   0.000156   0.000000   0.000782   0.005189
     2  C   -0.046901  -0.001166  -0.001472   0.000089   0.000897  -0.008846
     3  C    0.381553  -0.044682  -0.006729   0.004393  -0.004976  -0.036583
     4  C   -0.040445   0.327437  -0.034679  -0.030481  -0.022656  -0.003325
     5  C   -0.006993  -0.041660  -0.004813  -0.006025   0.003916  -0.000299
     6  O   -0.000027   0.003397  -0.000007   0.000061  -0.000082   0.001140
     7  N   -0.043189   0.004040   0.000041  -0.000089  -0.000051   0.335208
     8  C   -0.007756  -0.000135   0.000001   0.000002  -0.000002  -0.031736
     9  C   -0.000037   0.000000   0.000000   0.000000   0.000000   0.000000
    10  C   -0.000133   0.000000   0.000000   0.000000   0.000000   0.000005
    11  C    0.001476   0.000003  -0.000004   0.000000   0.000000  -0.000070
    12  C    0.005787   0.000005  -0.000004   0.000000   0.000000   0.005532
    13  C    0.000365   0.000000   0.000000   0.000000   0.000000   0.000132
    14  C   -0.000013   0.000000   0.000000   0.000000   0.000000   0.000008
    15  H    0.000000   0.000000   0.000000   0.000000   0.000000   0.000000
    16  H   -0.000004   0.000000   0.000000   0.000000   0.000000   0.000000
    17  H   -0.000001   0.000000   0.000000   0.000000   0.000000   0.000000
    18  F    0.002289   0.000000   0.000000   0.000000   0.000000  -0.000009
    19  F    0.000003   0.000000   0.000000   0.000000   0.000000  -0.000044
    20  H    0.000016   0.000092  -0.000004   0.000002  -0.000038   0.005954
    21  H   -0.000151   0.000004   0.000001   0.000001  -0.000056  -0.000250
    22  H    0.000014   0.000075  -0.000026  -0.000044   0.001673   0.000037
    23  H   -0.002153   0.002391   0.000898  -0.000010   0.000919   0.000135
    24  H   -0.004021   0.000107  -0.000042  -0.000002  -0.000001  -0.000175
    25  H    0.006163  -0.035926   0.005879  -0.002949  -0.005886   0.003821
    26  H    0.005767   0.001856   0.003781  -0.000332  -0.000265   0.000066
    27  H   -0.000024  -0.005903  -0.000394   0.006047  -0.000032   0.000007
    28  H   -0.000353   0.000069   0.000005  -0.000011   0.000006  -0.002598
    29  H   -0.000799   0.000006   0.000000   0.000000   0.000000  -0.001862
    30  H    0.000209   0.000002   0.000000   0.000000   0.000000  -0.005482
    31  H    0.637221  -0.004822   0.005277  -0.000107  -0.000163   0.006262
    32  C   -0.004822   4.990236   0.383246   0.380231   0.374278  -0.000102
    33  H    0.005277   0.383246   0.606880  -0.031879  -0.032183   0.000010
    34  H   -0.000107   0.380231  -0.031879   0.607344  -0.030798   0.000003
    35  H   -0.000163   0.374278  -0.032183  -0.030798   0.606610  -0.000002
    36  H    0.006262  -0.000102   0.000010   0.000003  -0.000002   0.463940
 Mulliken charges:
               1
     1  C   -0.331665
     2  C   -0.193553
     3  C    0.078739
     4  C   -0.090108
     5  C    0.081591
     6  O   -0.612016
     7  N   -0.544569
     8  C   -0.105144
     9  C   -0.086983
    10  C   -0.151545
    11  C    0.328623
    12  C   -0.021477
    13  C    0.339807
    14  C   -0.149287
    15  H    0.119291
    16  H    0.112914
    17  H    0.115105
    18  F   -0.290751
    19  F   -0.286818
    20  H    0.100567
    21  H    0.109926
    22  H    0.114512
    23  H    0.102578
    24  H    0.099613
    25  H    0.091778
    26  H    0.071917
    27  H    0.088781
    28  H    0.323657
    29  H    0.109366
    30  H    0.122450
    31  H    0.100494
    32  C   -0.330450
    33  H    0.106063
    34  H    0.104555
    35  H    0.108107
    36  H    0.263933
 Sum of Mulliken charges =   0.00000
 Mulliken charges with hydrogens summed into heavy atoms:
               1
     1  C   -0.006660
     2  C    0.008639
     3  C    0.179233
     4  C    0.001670
     5  C    0.242289
     6  O   -0.288359
     7  N   -0.280636
     8  C    0.126671
     9  C    0.032308
    10  C   -0.038631
    11  C    0.328623
    12  C   -0.021477
    13  C    0.339807
    14  C   -0.034182
    18  F   -0.290751
    19  F   -0.286818
    32  C   -0.011725
 Electronic spatial extent (au):  <R**2>=           4362.2365
 Charge=              0.0000 electrons
 Dipole moment (field-independent basis, Debye):
    X=              0.7642    Y=             -3.6087    Z=              0.5181  Tot=              3.7250
 Quadrupole moment (field-independent basis, Debye-Ang):
   XX=            -89.4512   YY=           -113.7863   ZZ=            -95.3894
   XY=              4.8873   XZ=              4.7941   YZ=              3.4191
 Traceless Quadrupole moment (field-independent basis, Debye-Ang):
   XX=             10.0911   YY=            -14.2440   ZZ=              4.1529
   XY=              4.8873   XZ=              4.7941   YZ=              3.4191
 Octapole moment (field-independent basis, Debye-Ang**2):
  XXX=             38.8440  YYY=            -30.0600  ZZZ=            -17.8590  XYY=             15.4585
  XXY=              6.1074  XXZ=             19.6369  XZZ=              6.6379  YZZ=             -2.8088
  YYZ=              5.3989  XYZ=             -5.8274
 Hexadecapole moment (field-independent basis, Debye-Ang**3):
 XXXX=          -3378.6480 YYYY=          -1438.1271 ZZZZ=           -771.9443 XXXY=             35.7898
 XXXZ=             79.5112 YYYX=             46.6790 YYYZ=             -7.7474 ZZZX=             12.3366
 ZZZY=            -37.6372 XXYY=           -785.4852 XXZZ=           -690.1780 YYZZ=           -344.5707
 XXYZ=             -7.1087 YYXZ=             -7.1240 ZZXY=            -22.5129
 N-N= 1.311322912746D+03 E-N=-4.576508214484D+03  KE= 8.291707477287D+02
 D1PCM: PCM CHGder 1st derivatives, ID1Alg=3 FixD1E=F DoIter=F DoCFld=F I1PDM=0.
 Calling FoFJK, ICntrl=      2127 FMM=F ISym2X=0 I1Cent= 0 IOpClX= 0 NMat=1 NMatS=1 NMatT=0.
 ***** Axes restored to original set *****
 -------------------------------------------------------------------
 Center     Atomic                   Forces (Hartrees/Bohr)
 Number     Number              X              Y              Z
 -------------------------------------------------------------------
      1        6          -0.002292352   -0.002284998    0.001122926
      2        6           0.003614241   -0.002262268    0.004352446
      3        6          -0.011818524   -0.000120870    0.007118553
      4        6           0.006582331   -0.000310478    0.007190680
      5        6          -0.003779056   -0.002487785   -0.019229441
      6        8          -0.002482531    0.007555136   -0.003652724
      7        7           0.004134255    0.004169363   -0.000379058
      8        6          -0.008046726   -0.005304969   -0.014487780
      9        6          -0.005182547   -0.002823349   -0.000761739
     10        6           0.005006289   -0.005790093    0.004248905
     11        6           0.012098001    0.019861626   -0.004031310
     12        6          -0.009125232   -0.007122911    0.002014107
     13        6           0.019753355   -0.002248077    0.008974499
     14        6          -0.001394352    0.007500160   -0.003912202
     15        1          -0.001681705   -0.000900534   -0.000267809
     16        1          -0.001325726   -0.000701997   -0.000287450
     17        1          -0.001267849   -0.000834865   -0.000335328
     18        9          -0.004132522   -0.006650376    0.001909699
     19        9          -0.006702291    0.000071068   -0.001914125
     20        1          -0.002119079    0.000032726   -0.000929456
     21        1          -0.000940896    0.000399080   -0.001155268
     22        1          -0.001642818    0.000192578   -0.000782770
     23        1           0.000944009    0.001814110    0.000159095
     24        1           0.002240083    0.002370542   -0.000613880
     25        1           0.000604700    0.002208720   -0.001116504
     26        1           0.004312350   -0.003759852    0.007352559
     27        1          -0.000819037   -0.001164577    0.001324101
     28        1          -0.001211213   -0.000801944    0.004078806
     29        1           0.005462667   -0.001066545    0.002409657
     30        1          -0.002256536    0.002041122    0.002264387
     31        1           0.001289931    0.001454279   -0.004523208
     32        6          -0.003280182   -0.004318350    0.000916074
     33        1           0.000338833   -0.000419485    0.001031095
     34        1           0.000895727    0.000565975   -0.000740524
     35        1           0.001641647   -0.000531899    0.001182103
     36        1           0.002582756    0.001669739    0.001470884
 -------------------------------------------------------------------
 Cartesian Forces:  Max     0.019861626 RMS     0.005167465

 GradGradGradGradGradGradGradGradGradGradGradGradGradGradGradGradGradGrad
 Berny optimization.
 FormGI is forming the generalized inverse of G from B-inverse, IUseBI=4.
 Internal  Forces:  Max     0.008595297 RMS     0.002643491
 Search for a local minimum.
 Step number   1 out of a maximum of   50
 All quantities printed in internal units (Hartrees-Bohrs-Radians)
 Mixed Optimization -- RFO/linear search
 Second derivative matrix not updated -- first step.
 ITU=  0
     Eigenvalues ---    0.00230   0.00230   0.00230   0.00320   0.00455
     Eigenvalues ---    0.00648   0.00756   0.00798   0.01408   0.01570
     Eigenvalues ---    0.02146   0.02152   0.02154   0.02160   0.02165
     Eigenvalues ---    0.02166   0.02168   0.02170   0.02551   0.03185
     Eigenvalues ---    0.03534   0.03615   0.04478   0.04685   0.04704
     Eigenvalues ---    0.04711   0.04814   0.04979   0.05391   0.05421
     Eigenvalues ---    0.05511   0.05542   0.05713   0.05926   0.06519
     Eigenvalues ---    0.08888   0.10244   0.11382   0.11713   0.12595
     Eigenvalues ---    0.13471   0.13914   0.16000   0.16000   0.16000
     Eigenvalues ---    0.16000   0.16000   0.16000   0.16000   0.16000
     Eigenvalues ---    0.16000   0.16000   0.16258   0.16981   0.17214
     Eigenvalues ---    0.18222   0.21895   0.21916   0.22014   0.22085
     Eigenvalues ---    0.23397   0.23490   0.24907   0.24998   0.24999
     Eigenvalues ---    0.25000   0.26365   0.27739   0.28184   0.29084
     Eigenvalues ---    0.30029   0.32302   0.33890   0.33911   0.34004
     Eigenvalues ---    0.34101   0.34114   0.34174   0.34185   0.34222
     Eigenvalues ---    0.34222   0.34228   0.34258   0.34382   0.34400
     Eigenvalues ---    0.34426   0.34699   0.35168   0.35272   0.35289
     Eigenvalues ---    0.36034   0.42241   0.42357   0.42498   0.44164
     Eigenvalues ---    0.46359   0.46496   0.46548   0.46637   0.50861
     Eigenvalues ---    0.56958   0.57048
 RFO step:  Lambda=-7.73737919D-03 EMin= 2.30000000D-03
 Linear search not attempted -- first point.
 Iteration  1 RMS(Cart)=  0.07560279 RMS(Int)=  0.00133347
 Iteration  2 RMS(Cart)=  0.00240103 RMS(Int)=  0.00030260
 Iteration  3 RMS(Cart)=  0.00000178 RMS(Int)=  0.00030259
 Iteration  4 RMS(Cart)=  0.00000000 RMS(Int)=  0.00030259
 Variable       Old X    -DE/DX   Delta X   Delta X   Delta X     New X
                                 (Linear)    (Quad)   (Total)
    R1        2.87905   0.00742   0.00000   0.02408   0.02408   2.90313
    R2        2.06661   0.00128   0.00000   0.00363   0.00363   2.07024
    R3        2.06956  -0.00047   0.00000  -0.00134  -0.00134   2.06823
    R4        2.06618   0.00081   0.00000   0.00230   0.00230   2.06848
    R5        2.92713   0.00005   0.00000   0.00018   0.00018   2.92732
    R6        2.07159  -0.00017   0.00000  -0.00048  -0.00048   2.07112
    R7        2.07138   0.00034   0.00000   0.00099   0.00099   2.07237
    R8        2.95859  -0.00465   0.00000  -0.01714  -0.01714   2.94146
    R9        2.79467   0.00312   0.00000   0.00880   0.00880   2.80347
   R10        2.07323  -0.00012   0.00000  -0.00033  -0.00033   2.07290
   R11        2.91738  -0.00101   0.00000  -0.00349  -0.00349   2.91389
   R12        2.07517  -0.00026   0.00000  -0.00074  -0.00074   2.07443
   R13        2.89827   0.00345   0.00000   0.01156   0.01156   2.90983
   R14        2.68618   0.00262   0.00000   0.00610   0.00610   2.69228
   R15        2.07019   0.00545   0.00000   0.01559   0.01559   2.08578
   R16        2.06897   0.00054   0.00000   0.00154   0.00154   2.07051
   R17        1.85706  -0.00241   0.00000  -0.00466  -0.00466   1.85241
   R18        2.77328   0.00482   0.00000   0.01308   0.01308   2.78636
   R19        1.92959  -0.00330   0.00000  -0.00734  -0.00734   1.92225
   R20        2.83595   0.00645   0.00000   0.01951   0.01951   2.85546
   R21        2.06947   0.00147   0.00000   0.00419   0.00419   2.07365
   R22        2.07480  -0.00122   0.00000  -0.00352  -0.00352   2.07128
   R23        2.63397   0.00092   0.00000   0.00209   0.00206   2.63603
   R24        2.63398   0.00172   0.00000   0.00373   0.00370   2.63768
   R25        2.05402  -0.00192   0.00000  -0.00536  -0.00536   2.04867
   R26        2.63529  -0.00302   0.00000  -0.00633  -0.00633   2.62896
   R27        2.05208  -0.00070   0.00000  -0.00194  -0.00194   2.05014
   R28        2.63731   0.00076   0.00000   0.00151   0.00153   2.63885
   R29        2.53432   0.00752   0.00000   0.01302   0.01302   2.54734
   R30        2.63816  -0.00001   0.00000  -0.00019  -0.00016   2.63800
   R31        2.63508  -0.00385   0.00000  -0.00820  -0.00820   2.62688
   R32        2.53356   0.00562   0.00000   0.00972   0.00972   2.54327
   R33        2.05236  -0.00088   0.00000  -0.00244  -0.00244   2.04991
   R34        2.06958   0.00072   0.00000   0.00207   0.00207   2.07164
   R35        2.07038  -0.00045   0.00000  -0.00129  -0.00129   2.06908
   R36        2.06691  -0.00010   0.00000  -0.00029  -0.00029   2.06662
    A1        1.94994   0.00186   0.00000   0.00963   0.00960   1.95955
    A2        1.91492   0.00131   0.00000   0.00914   0.00909   1.92401
    A3        1.95056   0.00139   0.00000   0.00839   0.00835   1.95891
    A4        1.87419  -0.00167   0.00000  -0.01017  -0.01020   1.86399
    A5        1.89528  -0.00211   0.00000  -0.01498  -0.01499   1.88029
    A6        1.87589  -0.00103   0.00000  -0.00339  -0.00346   1.87243
    A7        2.01732   0.00183   0.00000   0.00784   0.00791   2.02523
    A8        1.89585   0.00041   0.00000   0.01097   0.01097   1.90682
    A9        1.89001   0.00155   0.00000   0.01658   0.01661   1.90662
   A10        1.90895  -0.00152   0.00000  -0.01302  -0.01313   1.89582
   A11        1.91704  -0.00300   0.00000  -0.02683  -0.02691   1.89013
   A12        1.82474   0.00067   0.00000   0.00475   0.00435   1.82909
   A13        1.98431  -0.00180   0.00000   0.00877   0.00800   1.99231
   A14        1.95944   0.00321   0.00000   0.02919   0.02874   1.98818
   A15        1.86709   0.00023   0.00000  -0.00368  -0.00339   1.86370
   A16        1.89422   0.00084   0.00000   0.01671   0.01599   1.91021
   A17        1.85110   0.00112   0.00000   0.00203   0.00213   1.85323
   A18        1.90310  -0.00393   0.00000  -0.05898  -0.05872   1.84438
   A19        1.94950  -0.00190   0.00000  -0.01035  -0.01047   1.93903
   A20        1.89674   0.00154   0.00000   0.00116   0.00093   1.89767
   A21        1.95683  -0.00220   0.00000  -0.00589  -0.00585   1.95098
   A22        1.87889  -0.00203   0.00000  -0.02453  -0.02472   1.85417
   A23        1.88899   0.00464   0.00000   0.03123   0.03129   1.92028
   A24        1.89049  -0.00004   0.00000   0.00793   0.00812   1.89860
   A25        1.94734   0.00842   0.00000   0.04530   0.04534   1.99268
   A26        1.94185  -0.00754   0.00000  -0.04448  -0.04617   1.89568
   A27        1.93290  -0.00291   0.00000  -0.03044  -0.03109   1.90182
   A28        1.89335   0.00347   0.00000   0.05674   0.05710   1.95045
[...]
    29  H    0.000569   0.004383  -0.006482  -0.000144   0.000001  -0.000039
    30  H   -0.000030  -0.000046   0.005038  -0.000191  -0.000001   0.000059
    31  H    0.005245  -0.048384   0.381469  -0.040449  -0.007716   0.000053
    32  C   -0.002581  -0.001498  -0.045117   0.332301  -0.038260   0.002962
    33  H    0.000162  -0.001573  -0.006369  -0.034985  -0.005203  -0.000003
    34  H    0.000000   0.000111   0.004476  -0.030397  -0.005406   0.000040
    35  H    0.000646   0.001093  -0.005244  -0.021940   0.003616  -0.000067
    36  H    0.004370  -0.007790  -0.036593  -0.003603  -0.000446   0.001369
               7          8          9         10         11         12
     1  C   -0.006804  -0.000565   0.000000   0.000000  -0.000011   0.000046
     2  C   -0.058554  -0.003775   0.000000   0.000002   0.000075  -0.001212
     3  C    0.269821  -0.040987   0.000005  -0.000061  -0.000067  -0.004728
     4  C   -0.047700   0.005606   0.000001   0.000000   0.000033  -0.000146
     5  C    0.001964  -0.000147  -0.000002  -0.000001   0.000001   0.000165
     6  O   -0.031995   0.000349  -0.000001   0.000000   0.000003   0.000264
     7  N    6.934629   0.286803   0.000018  -0.000088  -0.002443  -0.065776
     8  C    0.286803   4.912045  -0.000729   0.007834  -0.053327   0.324502
     9  C    0.000018  -0.000729   4.862975   0.483326  -0.003252  -0.027722
    10  C   -0.000088   0.007834   0.483326   5.043284   0.474590  -0.074938
    11  C   -0.002443  -0.053327  -0.003252   0.474590   4.621927   0.406317
    12  C   -0.065776   0.324502  -0.027722  -0.074938   0.406317   5.307536
    13  C    0.002881  -0.052801  -0.004283  -0.046534   0.023301   0.389858
    14  C   -0.000063   0.007884   0.482548  -0.035800  -0.049653  -0.078451
    15  H    0.000000   0.000005   0.374092  -0.034162   0.003572   0.000414
    16  H    0.000001  -0.000121  -0.036332   0.362153  -0.032453   0.006256
    17  H    0.000003  -0.000130  -0.036312   0.004408   0.000309   0.006212
    18  F   -0.000179  -0.003814   0.002957  -0.044792   0.290696  -0.051767
    19  F   -0.001775   0.003237   0.002870  -0.000011   0.002660  -0.056193
    20  H    0.003654   0.000705   0.000000   0.000000   0.000000   0.000037
    21  H    0.000134  -0.000005   0.000000   0.000000   0.000000   0.000000
    22  H   -0.000033   0.000018   0.000000   0.000000   0.000000  -0.000002
    23  H    0.004736   0.000115   0.000000   0.000000   0.000004   0.000037
    24  H   -0.004658   0.001720  -0.000001   0.000033   0.000424  -0.000884
    25  H   -0.004280  -0.000050   0.000000   0.000000  -0.000001  -0.000006
    26  H    0.000738  -0.000048   0.000011  -0.000013   0.000013   0.000193
    27  H   -0.000234   0.000008   0.000000   0.000000   0.000000   0.000003
    28  H    0.060974  -0.000884  -0.000011   0.000007  -0.000104  -0.003714
    29  H   -0.041026   0.370134  -0.000035   0.000249  -0.008382  -0.049618
    30  H   -0.036838   0.374940   0.000008  -0.000201   0.004020  -0.025942
    31  H   -0.048285  -0.008255  -0.000039  -0.000128   0.001427   0.007513
    32  C    0.004016  -0.000131   0.000000   0.000000   0.000003   0.000006
    33  H    0.000034   0.000002   0.000000   0.000000  -0.000003  -0.000005
    34  H   -0.000089   0.000002   0.000000   0.000000   0.000000   0.000000
    35  H   -0.000045  -0.000001   0.000000   0.000000   0.000000   0.000000
    36  H    0.332340  -0.031628   0.000000   0.000004  -0.000077   0.005709
              13         14         15         16         17         18
     1  C    0.000001   0.000000   0.000000   0.000000   0.000000   0.000019
     2  C    0.000002   0.000001   0.000000   0.000000   0.000000  -0.001398
     3  C   -0.000143   0.000002   0.000000   0.000000   0.000000   0.000216
     4  C   -0.000088  -0.000003   0.000000   0.000000   0.000000   0.000011
     5  C    0.000226   0.000004   0.000000   0.000000   0.000001   0.000000
     6  O    0.000611   0.000020   0.000000   0.000000   0.000002   0.000000
     7  N    0.002881  -0.000063   0.000000   0.000001   0.000003  -0.000179
     8  C   -0.052801   0.007884   0.000005  -0.000121  -0.000130  -0.003814
     9  C   -0.004283   0.482548   0.374092  -0.036332  -0.036312   0.002957
    10  C   -0.046534  -0.035800  -0.034162   0.362153   0.004408  -0.044792
    11  C    0.023301  -0.049653   0.003572  -0.032453   0.000309   0.290696
    12  C    0.389858  -0.078451   0.000414   0.006256   0.006212  -0.051767
    13  C    4.603784   0.481710   0.003549   0.000295  -0.031718   0.002641
    14  C    0.481710   5.043645  -0.034402   0.004455   0.361576   0.000006
    15  H    0.003549  -0.034402   0.579448  -0.005655  -0.005651  -0.000025
    16  H    0.000295   0.004455  -0.005655   0.584606  -0.000129  -0.000554
    17  H   -0.031718   0.361576  -0.005651  -0.000129   0.582522   0.000001
    18  F    0.002641   0.000006  -0.000025  -0.000554   0.000001   9.094301
    19  F    0.294908  -0.046006  -0.000024   0.000001  -0.000389  -0.000001
    20  H    0.000000   0.000000   0.000000   0.000000   0.000000   0.000000
    21  H    0.000000   0.000000   0.000000   0.000000   0.000000   0.000000
    22  H    0.000000   0.000000   0.000000   0.000000   0.000000   0.000000
    23  H    0.000000   0.000000   0.000000   0.000000   0.000000  -0.000025
    24  H   -0.000020   0.000000   0.000000   0.000000   0.000000   0.005333
    25  H   -0.000004   0.000000   0.000000   0.000000   0.000000   0.000000
    26  H    0.000044  -0.000004   0.000000   0.000000  -0.000002   0.000000
    27  H    0.000002   0.000000   0.000000   0.000000   0.000000   0.000000
    28  H    0.001387  -0.000009   0.000000   0.000000   0.000005  -0.000001
    29  H    0.005469  -0.000126   0.000000   0.000000   0.000002   0.006278
    30  H   -0.008113   0.000096   0.000000   0.000002  -0.000004   0.000194
    31  H    0.000469  -0.000021   0.000000  -0.000005  -0.000001   0.001538
    32  C    0.000000   0.000000   0.000000   0.000000   0.000000   0.000000
    33  H    0.000000   0.000000   0.000000   0.000000   0.000000   0.000000
    34  H    0.000000   0.000000   0.000000   0.000000   0.000000   0.000000
    35  H    0.000000   0.000000   0.000000   0.000000   0.000000   0.000000
    36  H    0.000149   0.000008   0.000000   0.000000   0.000000  -0.000008
              19         20         21         22         23         24
     1  C    0.000000   0.381447   0.382839   0.387517  -0.038021  -0.039461
     2  C    0.000000  -0.037360  -0.027032  -0.034709   0.370733   0.373487
     3  C   -0.000010  -0.004712   0.004085  -0.005289  -0.027633  -0.031250
     4  C    0.000001  -0.000506   0.000099   0.003225  -0.006186   0.005291
     5  C   -0.000097  -0.000014  -0.000001  -0.000033   0.000067  -0.000121
     6  O   -0.000700   0.000004   0.000000   0.000000   0.000004   0.000001
     7  N   -0.001775   0.003654   0.000134  -0.000033   0.004736  -0.004658
     8  C    0.003237   0.000705  -0.000005   0.000018   0.000115   0.001720
     9  C    0.002870   0.000000   0.000000   0.000000   0.000000  -0.000001
    10  C   -0.000011   0.000000   0.000000   0.000000   0.000000   0.000033
    11  C    0.002660   0.000000   0.000000   0.000000   0.000004   0.000424
    12  C   -0.056193   0.000037   0.000000  -0.000002   0.000037  -0.000884
    13  C    0.294908   0.000000   0.000000   0.000000   0.000000  -0.000020
    14  C   -0.046006   0.000000   0.000000   0.000000   0.000000   0.000000
    15  H   -0.000024   0.000000   0.000000   0.000000   0.000000   0.000000
    16  H    0.000001   0.000000   0.000000   0.000000   0.000000   0.000000
    17  H   -0.000389   0.000000   0.000000   0.000000   0.000000   0.000000
    18  F   -0.000001   0.000000   0.000000   0.000000  -0.000025   0.005333
    19  F    9.084103   0.000000   0.000000   0.000000   0.000000   0.000000
    20  H    0.000000   0.615300  -0.031117  -0.033570   0.005669  -0.004280
    21  H    0.000000  -0.031117   0.598873  -0.030482  -0.003070  -0.003559
    22  H    0.000000  -0.033570  -0.030482   0.596373  -0.005118   0.005185
    23  H    0.000000   0.005669  -0.003070  -0.005118   0.628651  -0.034615
    24  H    0.000000  -0.004280  -0.003559   0.005185  -0.034615   0.630450
    25  H    0.000000  -0.000026  -0.000069   0.001363   0.000078  -0.000054
    26  H    0.000009  -0.000001   0.000000  -0.000001  -0.000017  -0.000004
    27  H   -0.000001   0.000001   0.000000   0.000007   0.000003   0.000002
    28  H    0.008049  -0.000031   0.000000  -0.000005  -0.000027  -0.000005
    29  H    0.000191  -0.000481  -0.000020  -0.000014  -0.000425   0.002095
    30  H    0.004620   0.000024   0.000000   0.000002   0.000004  -0.000064
    31  H    0.000007   0.000055  -0.000147  -0.000002  -0.002007  -0.004479
    32  C    0.000000   0.000091   0.000010   0.000110   0.002429   0.000106
    33  H    0.000000  -0.000004   0.000000  -0.000024   0.000942  -0.000042
    34  H    0.000000   0.000002   0.000000  -0.000044  -0.000011  -0.000003
    35  H    0.000000  -0.000042  -0.000053   0.001718   0.000751   0.000003
    36  H   -0.000049   0.005117  -0.000201   0.000017   0.000079  -0.000188
              25         26         27         28         29         30
     1  C    0.003254  -0.000002   0.000004  -0.000004   0.000569  -0.000030
     2  C   -0.006697   0.000005  -0.000191   0.000666   0.004383  -0.000046
     3  C   -0.048666  -0.015498   0.005262  -0.001667  -0.006482   0.005038
     4  C    0.370452  -0.052046  -0.034873  -0.008726  -0.000144  -0.000191
     5  C   -0.044762   0.356587   0.379519  -0.040436   0.000001  -0.000001
     6  O    0.004733  -0.041094  -0.039467   0.275015  -0.000039   0.000059
     7  N   -0.004280   0.000738  -0.000234   0.060974  -0.041026  -0.036838
     8  C   -0.000050  -0.000048   0.000008  -0.000884   0.370134   0.374940
     9  C    0.000000   0.000011   0.000000  -0.000011  -0.000035   0.000008
    10  C    0.000000  -0.000013   0.000000   0.000007   0.000249  -0.000201
    11  C   -0.000001   0.000013   0.000000  -0.000104  -0.008382   0.004020
    12  C   -0.000006   0.000193   0.000003  -0.003714  -0.049618  -0.025942
    13  C   -0.000004   0.000044   0.000002   0.001387   0.005469  -0.008113
    14  C    0.000000  -0.000004   0.000000  -0.000009  -0.000126   0.000096
    15  H    0.000000   0.000000   0.000000   0.000000   0.000000   0.000000
    16  H    0.000000   0.000000   0.000000   0.000000   0.000000   0.000002
    17  H    0.000000  -0.000002   0.000000   0.000005   0.000002  -0.000004
    18  F    0.000000   0.000000   0.000000  -0.000001   0.006278   0.000194
    19  F    0.000000   0.000009  -0.000001   0.008049   0.000191   0.004620
    20  H   -0.000026  -0.000001   0.000001  -0.000031  -0.000481   0.000024
    21  H   -0.000069   0.000000   0.000000   0.000000  -0.000020   0.000000
    22  H    0.001363  -0.000001   0.000007  -0.000005  -0.000014   0.000002
    23  H    0.000078  -0.000017   0.000003  -0.000027  -0.000425   0.000004
    24  H   -0.000054  -0.000004   0.000002  -0.000005   0.002095  -0.000064
    25  H    0.659623   0.007987  -0.006330  -0.000586  -0.000006   0.000003
    26  H    0.007987   0.721505  -0.053843  -0.002373   0.000002   0.000002
    27  H   -0.006330  -0.053843   0.658558   0.005829   0.000000   0.000000
    28  H   -0.000586  -0.002373   0.005829   0.385220   0.000491  -0.000512
    29  H   -0.000006   0.000002   0.000000   0.000491   0.645387  -0.037295
    30  H    0.000003   0.000002   0.000000  -0.000512  -0.037295   0.598651
    31  H    0.006472   0.006524  -0.000010  -0.000553  -0.000878   0.000186
    32  C   -0.034804   0.001536  -0.005874   0.000087   0.000005   0.000002
    33  H    0.005841   0.004715  -0.000403   0.000005   0.000000   0.000000
    34  H   -0.003204  -0.000417   0.006167  -0.000007   0.000000   0.000000
    35  H   -0.005296  -0.000283  -0.000046   0.000004   0.000000   0.000000
    36  H    0.004526   0.000098   0.000002  -0.003134  -0.001869  -0.005377
              31         32         33         34         35         36
     1  C    0.005245  -0.002581   0.000162   0.000000   0.000646   0.004370
     2  C   -0.048384  -0.001498  -0.001573   0.000111   0.001093  -0.007790
     3  C    0.381469  -0.045117  -0.006369   0.004476  -0.005244  -0.036593
     4  C   -0.040449   0.332301  -0.034985  -0.030397  -0.021940  -0.003603
     5  C   -0.007716  -0.038260  -0.005203  -0.005406   0.003616  -0.000446
     6  O    0.000053   0.002962  -0.000003   0.000040  -0.000067   0.001369
     7  N   -0.048285   0.004016   0.000034  -0.000089  -0.000045   0.332340
     8  C   -0.008255  -0.000131   0.000002   0.000002  -0.000001  -0.031628
     9  C   -0.000039   0.000000   0.000000   0.000000   0.000000   0.000000
    10  C   -0.000128   0.000000   0.000000   0.000000   0.000000   0.000004
    11  C    0.001427   0.000003  -0.000003   0.000000   0.000000  -0.000077
    12  C    0.007513   0.000006  -0.000005   0.000000   0.000000   0.005709
    13  C    0.000469   0.000000   0.000000   0.000000   0.000000   0.000149
    14  C   -0.000021   0.000000   0.000000   0.000000   0.000000   0.000008
    15  H    0.000000   0.000000   0.000000   0.000000   0.000000   0.000000
    16  H   -0.000005   0.000000   0.000000   0.000000   0.000000   0.000000
    17  H   -0.000001   0.000000   0.000000   0.000000   0.000000   0.000000
    18  F    0.001538   0.000000   0.000000   0.000000   0.000000  -0.000008
    19  F    0.000007   0.000000   0.000000   0.000000   0.000000  -0.000049
    20  H    0.000055   0.000091  -0.000004   0.000002  -0.000042   0.005117
    21  H   -0.000147   0.000010   0.000000   0.000000  -0.000053  -0.000201
    22  H   -0.000002   0.000110  -0.000024  -0.000044   0.001718   0.000017
    23  H   -0.002007   0.002429   0.000942  -0.000011   0.000751   0.000079
    24  H   -0.004479   0.000106  -0.000042  -0.000003   0.000003  -0.000188
    25  H    0.006472  -0.034804   0.005841  -0.003204  -0.005296   0.004526
    26  H    0.006524   0.001536   0.004715  -0.000417  -0.000283   0.000098
    27  H   -0.000010  -0.005874  -0.000403   0.006167  -0.000046   0.000002
    28  H   -0.000553   0.000087   0.000005  -0.000007   0.000004  -0.003134
    29  H   -0.000878   0.000005   0.000000   0.000000   0.000000  -0.001869
    30  H    0.000186   0.000002   0.000000   0.000000   0.000000  -0.005377
    31  H    0.645879  -0.004988   0.005050  -0.000097  -0.000153   0.006877
    32  C   -0.004988   4.981702   0.382795   0.379553   0.376263  -0.000105
    33  H    0.005050   0.382795   0.607495  -0.031889  -0.033143   0.000012
    34  H   -0.000097   0.379553  -0.031889   0.605047  -0.029593   0.000003
    35  H   -0.000153   0.376263  -0.033143  -0.029593   0.600706  -0.000002
    36  H    0.006877  -0.000105   0.000012   0.000003  -0.000002   0.467465
 Mulliken charges:
               1
     1  C   -0.331633
     2  C   -0.192038
     3  C    0.084158
     4  C   -0.093909
     5  C    0.082020
     6  O   -0.604019
     7  N   -0.551879
     8  C   -0.098509
     9  C   -0.100090
    10  C   -0.139162
    11  C    0.320400
    12  C   -0.013964
    13  C    0.332419
    14  C   -0.137417
    15  H    0.118838
    16  H    0.117480
    17  H    0.119296
    18  F   -0.301627
    19  F   -0.295399
    20  H    0.100038
    21  H    0.109715
    22  H    0.113792
    23  H    0.102853
    24  H    0.099554
    25  H    0.090507
    26  H    0.065676
    27  H    0.085907
    28  H    0.325048
    29  H    0.111581
    30  H    0.126765
    31  H    0.097833
    32  C   -0.330620
    33  H    0.106594
    34  H    0.105756
    35  H    0.111107
    36  H    0.262927
 Sum of Mulliken charges =   0.00000
 Mulliken charges with hydrogens summed into heavy atoms:
               1
     1  C   -0.008087
     2  C    0.010369
     3  C    0.181991
     4  C   -0.003402
     5  C    0.233603
     6  O   -0.278971
     7  N   -0.288952
     8  C    0.139837
     9  C    0.018748
    10  C   -0.021682
    11  C    0.320400
    12  C   -0.013964
    13  C    0.332419
    14  C   -0.018122
    18  F   -0.301627
    19  F   -0.295399
    32  C   -0.007163
 Electronic spatial extent (au):  <R**2>=           4365.1081
 Charge=              0.0000 electrons
 Dipole moment (field-independent basis, Debye):
    X=              0.9056    Y=             -3.5579    Z=              0.5435  Tot=              3.7113
 Quadrupole moment (field-independent basis, Debye-Ang):
   XX=            -89.0578   YY=           -114.1909   ZZ=            -95.3046
   XY=              4.9838   XZ=              4.7808   YZ=              3.2080
 Traceless Quadrupole moment (field-independent basis, Debye-Ang):
   XX=             10.4600   YY=            -14.6731   ZZ=              4.2132
   XY=              4.9838   XZ=              4.7808   YZ=              3.2080
 Octapole moment (field-independent basis, Debye-Ang**2):
  XXX=             39.7526  YYY=            -29.9248  ZZZ=            -19.0885  XYY=             17.2335
  XXY=              5.7423  XXZ=             20.7485  XZZ=              6.4298  YZZ=             -2.9206
  YYZ=              6.2151  XYZ=             -5.5688
 Hexadecapole moment (field-independent basis, Debye-Ang**3):
 XXXX=          -3360.8448 YYYY=          -1485.4473 ZZZZ=           -749.1077 XXXY=             30.2538
 XXXZ=             81.9510 YYYX=             48.4585 YYYZ=             -6.4700 ZZZX=             12.4448
 ZZZY=            -38.1094 XXYY=           -788.8211 XXZZ=           -681.9229 YYZZ=           -349.6308
 XXYZ=             -7.8535 YYXZ=             -4.6216 ZZXY=            -22.2706
 N-N= 1.310447351938D+03 E-N=-4.574741268817D+03  KE= 8.290919496753D+02
 1\1\GINC-SWANNODE-0-1\FOpt\RB3LYP\6-31G(d,p)\C13H19F2N1O1\KE291\06-Mar
 -2019\0\\# b3lyp/6-31g(d,p) Opt=(maxcycles=50) scrf=(solvent=chlorofor
 m)\\AT3_1ginp006\\0,1\C,-1.5474788152,-0.8662107454,2.2879515757\C,-0.
 1333547583,-0.4127424566,2.6690283301\C,0.1690850276,1.0875958359,2.43
 93136702\C,-0.7133872541,2.0624757777,3.2644438592\C,-0.2495713187,3.5
 252826068,3.091651558\O,-0.4494501898,4.0523954292,1.7918626303\N,0.11
 70601884,1.4894625375,1.0107505148\C,1.1541007541,0.9270908982,0.12676
 99425\C,5.0560605725,2.6586446464,0.8981073159\C,4.7865387712,1.357381
 5293,1.322244304\C,3.5269962723,0.8273153068,1.0668932578\C,2.51524860
 54,1.5225096002,0.4030739386\C,2.8430420556,2.8218950002,0.0066762317\
 C,4.0815912643,3.4066036157,0.2341873468\H,6.0314608092,3.0943903452,1
 .0871291037\H,5.5242477926,0.7579536177,1.8428150475\H,4.2662700381,4.
 4192563374,-0.1047921546\F,3.261692583,-0.4328914245,1.4910525125\F,1.
 8969124655,3.5377862281,-0.6422592085\H,-1.7683771693,-0.6778195417,1.
 2310534462\H,-1.6629311586,-1.9420977859,2.4515348139\H,-2.3149680881,
 -0.358677762,2.8812161753\H,0.0545104277,-0.6491987772,3.7219511423\H,
 0.6023530254,-1.000279347,2.1081269238\H,-1.7440270885,2.0100501667,2.
 8846991752\H,0.8117594399,3.5930223931,3.3961796109\H,-0.8156020408,4.
 1604102151,3.7841265945\H,-0.1110446703,3.3475187223,1.1977879977\H,1.
 2291578575,-0.1653542846,0.1843968412\H,0.8636004872,1.1788973668,-0.8
 972132791\H,1.2060068585,1.2565754163,2.7606772234\C,-0.7245598337,1.7
 078416949,4.7594508847\H,0.2918583138,1.6935863364,5.1712152892\H,-1.2
 991942882,2.4495063674,5.3237436393\H,-1.1749375859,0.7308462124,4.950
 7510244\H,-0.7956403503,1.2495409213,0.6287957207\\Version=EM64L-G09Re
 vD.01\State=1-A\HF=-836.5008486\RMSD=4.179e-09\RMSF=6.726e-06\Dipole=0
 .7504731,-1.2490952,0.092716\Quadrupole=6.2994447,-7.4398989,1.1404542
 ,8.8059602,-0.4098274,0.9055238\PG=C01 [X(C13H19F2N1O1)]\\@


 If your ship doesn't come in, swim out to it!
                          -- Jonathan Winters
 Job cpu time:       0 days  2 hours 27 minutes 53.8 seconds.
 File lengths (MBytes):  RWF=    271 Int=      0 D2E=      0 Chk=     13 Scr=      1
 Normal termination of Gaussian 09 at Wed Mar  6 11:19:21 2019.
