 Entering Gaussian System, Link 0=/usr/local/Cluster-Apps/gaussian/g09/g09
 Initial command:
 /usr/local/Cluster-Apps/gaussian/g09/l1.exe "/home/ke291/rds/hpc-work/06Feb0927IP1/Gau-378840.inp" -scrdir="/home/ke291/rds/hpc-work/06Feb0927IP1/"
 Entering Link 1 = /usr/local/Cluster-Apps/gaussian/g09/l1.exe PID=    378845.
  
 Copyright (c) 1988,1990,1992,1993,1995,1998,2003,2009,2013,
            Gaussian, Inc.  All Rights Reserved.
  
 This is part of the Gaussian(R) 09 program.  It is based on
 the Gaussian(R) 03 system (copyright 2003, Gaussian, Inc.),
 the Gaussian(R) 98 system (copyright 1998, Gaussian, Inc.),
 the Gaussian(R) 94 system (copyright 1995, Gaussian, Inc.),
 the Gaussian 92(TM) system (copyright 1992, Gaussian, Inc.),
 the Gaussian 90(TM) system (copyright 1990, Gaussian, Inc.),
 the Gaussian 88(TM) system (copyright 1988, Gaussian, Inc.),
 the Gaussian 86(TM) system (copyright 1986, Carnegie Mellon
 University), and the Gaussian 82(TM) system (copyright 1983,
 Carnegie Mellon University). Gaussian is a federally registered
 trademark of Gaussian, Inc.
  
 This software contains proprietary and confidential information,
 including trade secrets, belonging to Gaussian, Inc.
  
 This software is provided under written license and may be
 used, copied, transmitted, or stored only in accord with that
 written license.
  
 The following legend is applicable only to US Government
 contracts under FAR:
  
                    RESTRICTED RIGHTS LEGEND
  
 Use, reproduction and disclosure by the US Government is
 subject to restrictions as set forth in subparagraphs (a)
 and (c) of the Commercial Computer Software - Restricted
 Rights clause in FAR 52.227-19.
  
 Gaussian, Inc.
 340 Quinnipiac St., Bldg. 40, Wallingford CT 06492
  
  
 ---------------------------------------------------------------
 Warning -- This program may not be used in any manner that
 competes with the business of Gaussian, Inc. or will provide
 assistance to any competitor of Gaussian, Inc.  The licensee
 of this program is prohibited from giving any competitor of
 Gaussian, Inc. access to this program.  By using this program,
 the user acknowledges that Gaussian, Inc. is engaged in the
 business of creating and licensing software in the field of
 computational chemistry and represents and warrants to the
 licensee that it is not a competitor of Gaussian, Inc. and that
 it will not use this program in any manner prohibited above.
 ---------------------------------------------------------------
  

 Cite this work as:
 Gaussian 09, Revision D.01,
 M. J. Frisch, G. W. Trucks, H. B. Schlegel, G. E. Scuseria, 
 M. A. Robb, J. R. Cheeseman, G. Scalmani, V. Barone, B. Mennucci, 
 G. A. Petersson, H. Nakatsuji, M. Caricato, X. Li, H. P. Hratchian, 
 A. F. Izmaylov, J. Bloino, G. Zheng, J. L. Sonnenberg, M. Hada, 
 M. Ehara, K. Toyota, R. Fukuda, J. Hasegawa, M. Ishida, T. Nakajima, 
 Y. Honda, O. Kitao, H. Nakai, T. Vreven, J. A. Montgomery, Jr., 
 J. E. Peralta, F. Ogliaro, M. Bearpark, J. J. Heyd, E. Brothers, 
 K. N. Kudin, V. N. Staroverov, T. Keith, R. Kobayashi, J. Normand, 
 K. Raghavachari, A. Rendell, J. C. Burant, S. S. Iyengar, J. Tomasi, 
 M. Cossi, N. Rega, J. M. Millam, M. Klene, J. E. Knox, J. B. Cross, 
 V. Bakken, C. Adamo, J. Jaramillo, R. Gomperts, R. E. Stratmann, 
 O. Yazyev, A. J. Austin, R. Cammi, C. Pomelli, J. W. Ochterski, 
 R. L. Martin, K. Morokuma, V. G. Zakrzewski, G. A. Voth, 
 P. Salvador, J. J. Dannenberg, S. Dapprich, A. D. Daniels, 
 O. Farkas, J. B. Foresman, J. V. Ortiz, J. Cioslowski, 
 and D. J. Fox, Gaussian, Inc., Wallingford CT, 2013.
 
 ******************************************
 Gaussian 09:  ES64L-G09RevD.01 24-Apr-2013
                 6-Feb-2019 
 ******************************************
 %nprocshared=2
 Will use up to    2 processors via shared memory.
 %mem=6000MB
 %chk=/home/ke291/rds/hpc-work/06Feb0927IP1/P_ng_correct1ginp008.chk
 ----------------------------------------------------------------------
 # mPW1PW91/6-311g(d) geom=checkpoint nmr=giao scrf=(solvent=chloroform
 )
 ----------------------------------------------------------------------
 1/29=2,38=1/1;
 2/12=2,40=1/2;
 3/5=4,6=6,7=1,11=2,14=-4,16=1,25=1,30=1,70=2201,72=7,74=-7/1,2,8,3;
 4//1;
 5/5=2,38=5,53=7/2;
 8/6=1,10=90,11=11/1;
 10/13=100,45=16/2;
 6/7=2,8=2,9=2,10=2,28=1/1;
 99/9=1/99;
 --------------------
 P_ng_correct1ginp008
 --------------------
 Structure from the checkpoint file:  "/home/ke291/rds/hpc-work/06Feb0927IP1/P_ng_correct1ginp008.chk"
 Charge =  0 Multiplicity = 1
 Redundant internal coordinates found in file.
 C,0,0.7530686779,-0.3534726033,0.4230851859
 C,0,-0.7351457218,-0.4369947715,0.8068974744
 C,0,-1.0760554473,0.6648592982,1.8609350081
 C,0,-0.1635241241,1.9088906668,1.6300014303
 C,0,0.4598023401,2.0446793068,0.2606344827
 H,0,1.3855977851,-0.3536615576,1.3226718122
 H,0,-1.2704939043,-0.1575962849,-0.109729349
 H,0,-0.7089772905,2.8242567586,1.8572491464
 H,0,0.6771638773,1.8653777391,2.3343536492
 O,0,0.9685458682,0.9110817792,-0.2743284851
 O,0,0.5746285546,3.0902071512,-0.3440964142
 C,0,1.2483652766,-1.4399632424,-0.5283073583
 C,0,2.715389048,-1.2694903485,-0.9353346014
 C,0,-1.1996999789,-1.8441866498,1.204218354
 O,0,-2.4494359329,1.0376445486,1.7831692111
 Si,0,-3.5665733293,1.4222696763,0.5823741637
 C,0,-4.4120555377,-0.144615299,-0.0436023097
 C,0,-4.8259107192,2.5048587213,1.4665758636
 C,0,-2.8033825398,2.3560090315,-0.8677562368
 H,0,-5.2539779441,1.9860294451,2.3307425554
 H,0,-4.3701890742,3.4337475703,1.825088398
 H,0,-5.6499376472,2.7726679648,0.7957361497
 H,0,-2.2027329164,3.2102524885,-0.5423224311
 H,0,-2.1652172875,1.7218883201,-1.491736564
 H,0,-3.6074596931,2.7370091982,-1.5087020993
 H,0,-4.8645662199,-0.705331294,0.7813845369
 H,0,-5.2122415988,0.1120796045,-0.7477943075
 H,0,-3.7189578758,-0.8137419818,-0.5637548847
 H,0,-1.1663090064,-2.5203270997,0.3466272868
 H,0,-0.5819264733,-2.2785741442,1.9962724684
 H,0,-2.2329992836,-1.8147993973,1.5592796164
 H,0,0.6067192415,-1.4463001086,-1.4183295584
 H,0,1.1174723952,-2.4080198678,-0.0342987878
 H,0,3.0241901284,-2.0781257726,-1.60432304
 H,0,2.8740317208,-0.3198180284,-1.4516316345
 H,0,3.3731714102,-1.2913336761,-0.0591373733
 C,0,-0.8720385661,0.1601702841,3.3149726358
 C,0,-1.087646644,1.2154676546,4.3646102573
 C,0,-0.1942733505,1.5571081876,5.2945664994
 H,0,0.1351257327,-0.2612132349,3.4175290614
 H,0,-1.5865446788,-0.6537802225,3.4795428856
 H,0,-2.0570102208,1.7101853879,4.34293058
 H,0,-0.409148715,2.3171103304,6.0401710773
 H,0,0.7835846647,1.0833434712,5.3505466456
 Recover connectivity data from disk.
                          Input orientation:                          
 ---------------------------------------------------------------------
 Center     Atomic      Atomic             Coordinates (Angstroms)
 Number     Number       Type             X           Y           Z
 ---------------------------------------------------------------------
      1          6           0        0.753069   -0.353473    0.423085
      2          6           0       -0.735146   -0.436995    0.806897
      3          6           0       -1.076055    0.664859    1.860935
      4          6           0       -0.163524    1.908891    1.630001
      5          6           0        0.459802    2.044679    0.260634
      6          1           0        1.385598   -0.353662    1.322672
      7          1           0       -1.270494   -0.157596   -0.109729
      8          1           0       -0.708977    2.824257    1.857249
      9          1           0        0.677164    1.865378    2.334354
     10          8           0        0.968546    0.911082   -0.274328
     11          8           0        0.574629    3.090207   -0.344096
     12          6           0        1.248365   -1.439963   -0.528307
     13          6           0        2.715389   -1.269490   -0.935335
     14          6           0       -1.199700   -1.844187    1.204218
     15          8           0       -2.449436    1.037645    1.783169
     16         14           0       -3.566573    1.422270    0.582374
     17          6           0       -4.412056   -0.144615   -0.043602
     18          6           0       -4.825911    2.504859    1.466576
     19          6           0       -2.803383    2.356009   -0.867756
     20          1           0       -5.253978    1.986029    2.330743
     21          1           0       -4.370189    3.433748    1.825088
     22          1           0       -5.649938    2.772668    0.795736
     23          1           0       -2.202733    3.210252   -0.542322
     24          1           0       -2.165217    1.721888   -1.491737
     25          1           0       -3.607460    2.737009   -1.508702
     26          1           0       -4.864566   -0.705331    0.781385
     27          1           0       -5.212242    0.112080   -0.747794
     28          1           0       -3.718958   -0.813742   -0.563755
     29          1           0       -1.166309   -2.520327    0.346627
     30          1           0       -0.581926   -2.278574    1.996272
     31          1           0       -2.232999   -1.814799    1.559280
     32          1           0        0.606719   -1.446300   -1.418330
     33          1           0        1.117472   -2.408020   -0.034299
     34          1           0        3.024190   -2.078126   -1.604323
     35          1           0        2.874032   -0.319818   -1.451632
     36          1           0        3.373171   -1.291334   -0.059137
     37          6           0       -0.872039    0.160170    3.314973
     38          6           0       -1.087647    1.215468    4.364610
     39          6           0       -0.194273    1.557108    5.294566
     40          1           0        0.135126   -0.261213    3.417529
     41          1           0       -1.586545   -0.653780    3.479543
     42          1           0       -2.057010    1.710185    4.342931
     43          1           0       -0.409149    2.317110    6.040171
     44          1           0        0.783585    1.083343    5.350547
 ---------------------------------------------------------------------
                    Distance matrix (angstroms):
                    1          2          3          4          5
     1  C    0.000000
     2  C    1.539178   0.000000
     3  C    2.539706   1.562465   0.000000
     4  C    2.723064   2.550966   1.560019   0.000000
     5  C    2.421472   2.808026   2.612226   1.510675   0.000000
     6  H    1.099704   2.184152   2.717876   2.759234   2.781557
     7  H    2.101681   1.097664   2.144238   2.919317   2.825086
     8  H    3.780525   3.426322   2.190378   1.089521   2.126726
     9  H    2.929506   3.103008   2.176958   1.097616   2.092775
    10  O    1.460108   2.426711   2.966542   2.429748   1.352793
    11  O    3.532611   3.934647   3.670045   2.416080   1.213265
    12  C    1.526738   2.592881   3.942295   4.226884   3.658824
    13  C    2.556383   3.954063   5.092729   4.997119   4.183507
    14  C    2.577926   1.534231   2.596512   3.916700   4.332156
    15  O    3.747142   2.463018   1.425198   2.451106   3.434516
    16  Si   4.673108   3.394740   2.900184   3.593754   4.086883
    17  C    5.190369   3.785301   3.925737   5.006781   5.349820
    18  C    6.354836   5.081736   4.195537   4.703162   5.441031
    19  C    4.653591   3.857841   3.645463   3.661634   3.466781
    20  H    6.722874   5.349112   4.406954   5.139038   6.077505
    21  H    6.523528   5.406746   4.303411   4.478758   5.263634
    22  H    7.135132   5.870029   5.147612   5.616302   6.176182
    23  H    4.729578   4.156515   3.677509   3.251293   3.015360
    24  H    4.060795   3.462600   3.680216   3.713084   3.172653
    25  H    5.683053   4.866877   4.696410   4.732645   4.489153
    26  H    5.640036   4.138208   4.170811   5.445558   6.015201
    27  H    6.096936   4.771052   4.921287   5.862763   6.076508
    28  H    4.602686   3.305111   3.879474   4.986623   5.129545
    29  H    2.895706   2.176700   3.527986   4.719173   4.846743
    30  H    2.821905   2.197613   2.987688   4.224225   4.773694
    31  H    3.513263   2.169790   2.752857   4.260704   4.881929
    32  H    2.146275   2.787640   4.247623   4.598141   3.876524
    33  H    2.136154   2.832798   4.224460   4.800684   4.510659
    34  H    3.498972   4.758141   6.028598   6.043069   5.201122
    35  H    2.830933   4.259207   5.248417   4.867273   3.788299
    36  H    2.824369   4.284645   5.225800   5.059925   4.440603
    37  C    3.356757   2.581819   1.552598   2.529653   3.828075
    38  C    4.624438   3.938554   2.563531   2.968657   4.463721
    39  C    5.317810   4.940462   3.655608   3.681540   5.099609
    40  H    3.058931   2.757475   2.178889   2.827330   3.922823
    41  H    3.860817   2.813345   2.149256   3.465988   4.672322
    42  H    5.245990   4.342953   2.866231   3.314326   4.807429
    43  H    6.327276   5.922712   4.543205   4.435828   5.850841
    44  H    5.132762   5.026203   3.976277   3.926958   5.190010
                    6          7          8          9         10
     6  H    0.000000
     7  H    3.024076   0.000000
     8  H    3.843460   3.616041   0.000000
     9  H    2.539589   3.722813   1.751703   0.000000
    10  O    2.079403   2.486456   3.319329   2.792992   0.000000
    11  O    3.911013   3.742677   2.562088   2.947001   2.215542
    12  C    2.150583   2.857328   5.263615   4.409805   2.381222
    13  C    2.775911   4.219620   6.023585   4.967154   2.871112
    14  C    2.986547   2.139172   4.739369   4.308212   3.805114
    15  O    4.105518   2.530132   2.495329   3.280941   3.991480
    16  Si   5.312812   2.871753   3.428809   4.612492   4.643550
    17  C    5.960133   3.142284   5.112751   5.966146   5.488042
    18  C    6.839202   4.713215   4.147744   5.607656   6.256724
    19  C    5.448655   3.040159   3.468637   4.754832   4.082575
    20  H    7.111563   5.139959   4.645842   5.932370   6.830938
    21  H    6.908399   5.123415   3.711736   5.309888   6.266856
    22  H    7.716888   5.346573   5.053965   6.574400   6.958079
    23  H    5.390344   3.521166   2.852760   4.286929   3.926196
    24  H    4.983682   2.498587   3.814650   4.768510   3.458318
    25  H    6.519168   3.974579   4.442796   5.821239   5.079126
    26  H    6.283408   3.743188   5.557373   6.303256   6.144308
    27  H    6.930745   4.002153   5.866988   6.874503   6.250177
    28  H    5.461389   2.575198   5.306249   5.907842   5.003147
    29  H    3.487023   2.408654   5.572765   5.155953   4.088736
    30  H    2.833757   3.067233   5.106305   4.344185   4.211116
    31  H    3.909623   2.541324   4.892062   4.755365   4.587204
    32  H    3.051819   2.626237   5.540589   5.005477   2.645167
    33  H    2.476620   3.282146   5.855817   4.905743   3.331100
    34  H    3.771745   4.936249   7.067699   6.047555   3.863926
    35  H    3.148546   4.359370   5.802745   4.892340   2.555784
    36  H    2.595973   4.780329   6.105290   4.791877   3.267899
    37  C    3.054539   3.462416   3.041201   2.503872   4.103011
    38  C    4.222854   4.683850   3.003074   2.767468   5.083339
    39  C    4.682198   5.771038   3.699424   3.101176   5.725565
    40  H    2.441445   3.798428   3.559088   2.447338   3.962156
    41  H    3.684535   3.637164   3.936839   3.575191   4.803002
    42  H    5.023244   4.892177   3.039237   3.396200   5.577781
    43  H    5.710424   6.684861   4.224208   3.888087   6.614217
    44  H    4.318701   5.964376   4.178714   3.117743   5.630551
                   11         12         13         14         15
    11  O    0.000000
    12  C    4.583699   0.000000
    13  C    4.892789   1.531957   0.000000
    14  C    5.467519   3.026230   4.498431   0.000000
    15  O    4.228858   5.015496   6.276030   3.194053   0.000000
    16  Si   4.559596   5.710484   7.000862   4.081485   1.684589
    17  C    5.951587   5.826940   7.270557   3.842503   2.930309
    18  C    5.725993   7.512523   8.768471   5.668548   2.810797
    19  C    3.496316   5.562490   6.603458   4.950406   2.981739
    20  H    6.507428   7.886194   9.207414   5.690060   3.010768
    21  H    5.410601   7.801262   8.941241   6.188220   3.071215
    22  H    6.336030   8.190600   9.450626   6.425482   3.772074
    23  H    2.787013   5.790922   6.664119   5.440941   3.192021
    24  H    3.270494   4.751636   5.751369   4.573542   3.357674
    25  H    4.355562   6.479761   7.507277   5.843338   3.881401
    26  H    6.727381   6.294673   7.792376   3.860962   3.142354
    27  H    6.520742   6.648041   8.049300   4.872148   3.859474
    28  H    5.807233   5.006766   6.461161   3.245644   3.247672
    29  H    5.914901   2.786279   4.274997   1.092586   4.045890
    30  H    5.969821   3.229046   4.526020   1.094389   3.811865
    31  H    5.963615   4.076570   5.568394   1.092996   2.869392
    32  H    4.662071   1.097219   2.170492   3.209240   5.075398
    33  H    5.533638   1.094674   2.159040   2.687214   5.281915
    34  H    5.856636   2.172237   1.093981   5.077783   7.151483
    35  H    4.259362   2.179460   1.092524   5.096325   6.375418
    36  H    5.206817   2.181058   1.095845   4.776282   6.536130
    37  C    4.905787   4.671974   5.742707   2.929179   2.367396
    38  C    5.333828   6.037293   6.980509   4.400241   2.924026
    39  C    5.893736   6.705930   7.434209   5.413930   4.205415
    40  H    5.057174   4.265956   5.159632   3.030892   3.322367
    41  H    5.771337   4.971686   6.194907   2.596886   2.546209
    42  H    5.549613   6.676669   7.714554   4.818719   2.675572
    43  H    6.505718   7.746474   8.442992   6.428670   4.890999
    44  H    6.041533   6.414361   6.984268   5.449393   4.814633
                   16         17         18         19         20
    16  Si   0.000000
    17  C    1.887277   0.000000
    18  C    1.881420   3.077601   0.000000
    19  C    1.886056   3.085479   3.092229   0.000000
    20  H    2.494384   3.299393   1.095084   4.046319   0.000000
    21  H    2.497235   4.037132   1.095010   3.296637   1.769931
    22  H    2.491888   3.278320   1.095796   3.323204   1.769697
    23  H    2.514336   4.047835   3.378508   1.093809   4.366156
    24  H    2.521013   3.260247   4.055113   1.094859   4.921540
    25  H    2.470387   3.331314   3.223476   1.096591   4.244565
    26  H    2.500215   1.095341   3.282728   4.042270   3.129788
    27  H    2.488809   1.096392   3.282998   3.294270   3.604278
    28  H    2.517257   1.094840   4.044836   3.313309   4.309655
    29  H    4.621787   4.041183   6.316602   5.285205   6.399453
    30  H    4.960189   4.835779   6.416635   5.883612   6.334570
    31  H    3.634746   3.179156   5.038971   4.859165   4.916072
    32  H    5.444987   5.363987   7.310800   5.137069   7.757848
    33  H    6.082079   5.974844   7.855750   6.226052   8.092989
    34  H    7.776412   7.840412   9.594699   7.359666  10.026473
    35  H    6.975202   7.422958   8.705392   6.303491   9.256772
    36  H    7.478986   7.869242   9.163178   7.218503   9.533118
    37  C    4.039865   4.889237   4.954517   5.103628   4.848078
    38  C    4.526937   5.686287   4.902627   5.623366   4.699862
    39  C    5.796149   7.012959   6.083076   6.739430   5.879527
    40  H    4.957297   5.715757   6.005768   5.817934   5.939162
    41  H    4.077264   4.544812   4.952023   5.425729   4.662446
    42  H    4.062445   5.313021   4.070839   5.303340   3.787558
    43  H    6.368486   7.687370   6.360881   7.311178   6.110797
    44  H    6.463297   7.589427   6.969388   7.290631   6.810743
                   21         22         23         24         25
    21  H    0.000000
    22  H    1.770409   0.000000
    23  H    3.217522   3.723587   0.000000
    24  H    4.335169   4.298831   1.765792   0.000000
    25  H    3.490180   3.079517   1.769493   1.763752   0.000000
    26  H    4.297174   3.565599   4.916234   4.283102   4.321403
    27  H    4.285120   3.106895   4.324123   3.525520   3.169316
    28  H    4.916487   4.294093   4.300224   3.115234   3.676029
    29  H    6.921105   6.951289   5.891006   4.730094   6.086136
    30  H    6.856446   7.255417   6.260886   5.538657   6.826036
    31  H    5.673225   5.770903   5.446907   4.671344   5.658676
    32  H    7.687928   7.864320   5.508529   4.210278   5.938649
    33  H    8.227879   8.563079   6.545749   5.473237   7.139340
    34  H    9.839637  10.224039   7.511026   6.432941   8.195941
    35  H    8.792320   9.341958   6.249942   5.437297   7.166392
    36  H    9.264790   9.932946   7.182510   6.465725   8.188895
    37  C    5.017282   6.000001   5.094357   5.216870   6.114774
    38  C    4.705850   5.998019   5.413000   5.976154   6.569653
    39  C    5.744330   7.175049   6.390311   7.068641   7.702368
    40  H    6.040403   7.038835   5.761691   5.772795   6.874884
    41  H    5.214766   5.954371   5.611224   5.540062   6.361143
    42  H    3.828968   5.159514   5.112449   5.835682   6.140022
    43  H    5.890980   7.428156   6.880688   7.756784   8.209202
    44  H    6.671929   8.061658   6.940298   7.477968   8.310546
                   26         27         28         29         30
    26  H    0.000000
    27  H    1.768453   0.000000
    28  H    1.770190   1.766610   0.000000
    29  H    4.142503   4.949434   3.202693   0.000000
    30  H    4.721446   5.889393   4.305861   1.766714   0.000000
    31  H    2.959930   4.232179   2.778032   1.762420   1.769772
    32  H    5.943294   6.061227   4.454426   2.722542   3.710130
    33  H    6.272900   6.850201   5.119873   2.318054   2.651025
    34  H    8.355157   8.565597   6.939128   4.643494   5.099857
    35  H    8.063553   8.128329   6.670817   4.939669   5.260077
    36  H    8.301217   8.726576   7.126081   4.720376   4.565321
    37  C    4.807124   5.945229   4.908970   4.010329   2.787581
    38  C    5.549243   6.660813   5.943927   5.486942   4.251247
    39  C    6.877433   7.986128   7.236315   6.484785   5.073606
    40  H    5.669517   6.788491   5.568651   4.028370   2.569801
    41  H    4.245956   5.621619   4.573951   3.670934   2.418533
    42  H    5.138259   6.198783   5.762625   5.887361   4.857250
    43  H    7.526004   8.602810   8.023024   7.509363   6.123992
    44  H    7.481859   8.607151   7.671427   6.467437   4.941484
                   31         32         33         34         35
    31  H    0.000000
    32  H    4.131095   0.000000
    33  H    3.757268   1.761055   0.000000
    34  H    6.141316   2.505586   2.491863   0.000000
    35  H    6.114108   2.531951   3.074885   1.771301   0.000000
    36  H    5.858536   3.086207   2.517098   1.768736   1.769752
    37  C    2.972403   5.212641   4.665980   6.662585   6.081443
    38  C    4.285351   6.587737   6.110860   7.961352   7.202824
    39  C    5.429414   7.397636   6.770504   8.436119   7.645164
    40  H    3.387438   5.001236   4.181973   6.071809   5.586928
    41  H    2.335226   5.424726   4.768244   7.009517   6.657684
    42  H    4.495020   7.088792   6.796844   8.691359   7.874836
    43  H    6.362193   8.415728   7.845802   9.462780   8.594171
    44  H    5.645593   7.228282   6.426325   7.961496   7.253169
                   36         37         38         39         40
    36  H    0.000000
    37  C    5.613670   0.000000
    38  C    6.764059   1.503954   0.000000
    39  C    7.035796   2.515868   1.334036   0.000000
    40  H    4.861409   1.096568   2.138392   2.634021   0.000000
    41  H    6.125971   1.095499   2.127518   3.181314   1.766948
    42  H    7.607509   2.205312   1.088523   2.097339   3.090023
    43  H    8.032956   3.506189   2.116951   1.086140   3.717827
    44  H    6.450561   2.781528   2.119206   1.088023   2.442312
                   41         42         43         44
    41  H    0.000000
    42  H    2.560295   0.000000
    43  H    4.095030   2.442218   0.000000
    44  H    3.483643   3.078506   1.849426   0.000000
 Stoichiometry    C14H26O3Si
 Framework group  C1[X(C14H26O3Si)]
 Deg. of freedom   126
 Full point group                 C1      NOp   1
 Largest Abelian subgroup         C1      NOp   1
 Largest concise Abelian subgroup C1      NOp   1
                         Standard orientation:                         
 ---------------------------------------------------------------------
 Center     Atomic      Atomic             Coordinates (Angstroms)
 Number     Number       Type             X           Y           Z
 ---------------------------------------------------------------------
      1          6           0       -2.219480   -0.171568   -0.307807
      2          6           0       -0.815598   -0.230796   -0.936042
      3          6           0        0.134572    0.776862   -0.212786
      4          6           0       -0.295957    0.921660    1.279640
      5          6           0       -1.129364   -0.199689    1.854226
      6          1           0       -2.581330    0.866035   -0.265465
      7          1           0       -0.445035   -1.232936   -0.684515
      8          1           0        0.579197    1.065375    1.912497
      9          1           0       -0.906955    1.827472    1.384270
     10          8           0       -2.121607   -0.666866    1.062235
     11          8           0       -0.997782   -0.653882    2.971548
     12          6           0       -3.279675   -1.036358   -0.985342
     13          6           0       -4.638532   -0.997676   -0.279011
     14          6           0       -0.809721   -0.104818   -2.465080
     15          8           0        1.491347    0.348737   -0.296820
     16         14           0        2.359151   -1.079444   -0.084562
     17          6           0        2.413207   -2.052477   -1.700761
     18          6           0        4.092535   -0.494165    0.354268
     19          6           0        1.667726   -2.168871    1.291043
     20          1           0        4.493952    0.165859   -0.421903
     21          1           0        4.098664    0.057848    1.299938
     22          1           0        4.777010   -1.343658    0.457337
     23          1           0        1.508352   -1.614218    2.220225
     24          1           0        0.717564   -2.641041    1.020929
     25          1           0        2.381880   -2.974290    1.500322
     26          1           0        2.812501   -1.440433   -2.516689
     27          1           0        3.064371   -2.928106   -1.594292
     28          1           0        1.425018   -2.413033   -2.004332
     29          1           0       -1.283084   -0.974055   -2.927787
     30          1           0       -1.339559    0.787920   -2.811458
     31          1           0        0.217112   -0.053662   -2.836074
     32          1           0       -2.909708   -2.067957   -1.038419
     33          1           0       -3.394668   -0.685722   -2.015945
     34          1           0       -5.364432   -1.620777   -0.809678
     35          1           0       -4.560420   -1.363411    0.747510
     36          1           0       -5.036440    0.022788   -0.244397
     37          6           0        0.107514    2.179647   -0.877632
     38          6           0        0.926704    3.214284   -0.156290
     39          6           0        0.459295    4.384177    0.282494
     40          1           0       -0.930124    2.524180   -0.961689
     41          1           0        0.498451    2.064739   -1.894530
     42          1           0        1.975433    2.964084   -0.006459
     43          1           0        1.100695    5.102669    0.784566
     44          1           0       -0.581573    4.671377    0.148692
 ---------------------------------------------------------------------
 Rotational constants (GHZ):      0.4255466      0.2923354      0.2508561
 Standard basis: 6-311G(d) (5D, 7F)
 There are   428 symmetry adapted cartesian basis functions of A   symmetry.
 There are   410 symmetry adapted basis functions of A   symmetry.
   410 basis functions,   720 primitive gaussians,   428 cartesian basis functions
    74 alpha electrons       74 beta electrons
       nuclear repulsion energy      1633.1665241579 Hartrees.
 NAtoms=   44 NActive=   44 NUniq=   44 SFac= 1.00D+00 NAtFMM=   60 NAOKFM=F Big=F
 Integral buffers will be    131072 words long.
 Raffenetti 2 integral format.
 Two-electron integral symmetry is turned on.
 ------------------------------------------------------------------------------
 Polarizable Continuum Model (PCM)
 =================================
 Model                : PCM (using non-symmetric T matrix).
 Atomic radii         : UFF (Universal Force Field).
 Polarization charges : Total charges.
 Charge compensation  : None.
 Solution method      : On-the-fly selection.
 Cavity type          : Scaled VdW (van der Waals Surface) (Alpha=1.100).
 Cavity algorithm     : GePol (No added spheres)
                        Default sphere list used, NSphG=   44.
                        Lebedev-Laikov grids with approx.  5.0 points / Ang**2.
                        Smoothing algorithm: Karplus/York (Gamma=1.0000).
                        Polarization charges: spherical gaussians, with
                                              point-specific exponents (IZeta= 3).
                        Self-potential: point-specific (ISelfS= 7).
                        Self-field    : sphere-specific E.n sum rule (ISelfD= 2).
 Solvent              : Chloroform, Eps=   4.711300 Eps(inf)=   2.090627
 ------------------------------------------------------------------------------
 One-electron integrals computed using PRISM.
 NBasis=   410 RedAO= T EigKep=  6.01D-04  NBF=   410
 NBsUse=   410 1.00D-06 EigRej= -1.00D+00 NBFU=   410
 ExpMin= 6.54D-02 ExpMax= 6.94D+04 ExpMxC= 2.33D+03 IAcc=2 IRadAn=         4 AccDes= 0.00D+00
 Harris functional with IExCor=  908 and IRadAn=       4 diagonalized for initial guess.
 HarFok:  IExCor=  908 AccDes= 0.00D+00 IRadAn=         4 IDoV= 1 UseB2=F ITyADJ=14
 ICtDFT=  3500011 ScaDFX=  1.000000  1.000000  1.000000  1.000000
 FoFCou: FMM=F IPFlag=           0 FMFlag=      100000 FMFlg1=           0
         NFxFlg=           0 DoJE=T BraDBF=F KetDBF=T FulRan=T
         wScrn=  0.000000 ICntrl=     500 IOpCl=  0 I1Cent=   200000004 NGrid=           0
         NMat0=    1 NMatS0=      1 NMatT0=    0 NMatD0=    1 NMtDS0=    0 NMtDT0=    0
 Petite list used in FoFCou.
 Requested convergence on RMS density matrix=1.00D-08 within 128 cycles.
 Requested convergence on MAX density matrix=1.00D-06.
 Requested convergence on             energy=1.00D-06.
 No special actions if energy rises.
 Inv3:  Mode=1 IEnd=    24969675.
 Iteration    1 A*A^-1 deviation from unit magnitude is 4.44D-15 for   2848.
 Iteration    1 A*A^-1 deviation from orthogonality  is 2.64D-15 for   1850   1387.
 Iteration    1 A^-1*A deviation from unit magnitude is 4.88D-15 for   2848.
 Iteration    1 A^-1*A deviation from orthogonality  is 1.89D-12 for   2258   2242.
 Error on total polarization charges =  0.01140
 SCF Done:  E(RmPW1PW91) =  -1064.38344377     A.U. after   12 cycles
            NFock= 12  Conv=0.93D-08     -V/T= 2.0036
 DoSCS=F DFT=T ScalE2(SS,OS)=  1.000000  1.000000
 Range of M.O.s used for correlation:     1   410
 NBasis=   410 NAE=    74 NBE=    74 NFC=     0 NFV=     0
 NROrb=    410 NOA=    74 NOB=    74 NVA=   336 NVB=   336
 NEqPCM:  Using equilibrium solvation (IEInf=0, Eps=   4.7113, EpsInf=   2.0906)
          Differentiating once with respect to magnetic field using GIAOs.
          Electric field/nuclear overlap derivatives assumed to be zero.
 FoFJK:  IHMeth= 1 ICntrl=    6127 DoSepK=F KAlg= 0 I1Cent=   0 FoldK=F
 IRaf=         1 NMat=   1 IRICut=       1 DoRegI=T DoRafI=F ISym2E= 0.
          There are     3 degrees of freedom in the 1st order CPHF.  IDoFFX=0 NUNeed=     3.
      3 vectors produced by pass  0 Test12= 8.29D-13 3.33D-08 XBig12= 3.39D+01 1.04D+00.
 AX will form     3 AO Fock derivatives at one time.
      3 vectors produced by pass  1 Test12= 8.29D-13 3.33D-08 XBig12= 7.75D-02 1.11D-01.
      3 vectors produced by pass  2 Test12= 8.29D-13 3.33D-08 XBig12= 6.43D-04 9.94D-03.
      3 vectors produced by pass  3 Test12= 8.29D-13 3.33D-08 XBig12= 3.46D-06 4.33D-04.
      3 vectors produced by pass  4 Test12= 8.29D-13 3.33D-08 XBig12= 7.90D-09 1.60D-05.
      3 vectors produced by pass  5 Test12= 8.29D-13 3.33D-08 XBig12= 2.79D-11 8.71D-07.
      3 vectors produced by pass  6 Test12= 8.29D-13 3.33D-08 XBig12= 9.01D-14 6.12D-08.
 InvSVY:  IOpt=1 It=  1 EMax= 8.88D-16
 Solved reduced A of dimension    21 with     3 vectors.
 Calculating GIAO nuclear magnetic shielding tensors.
 SCF GIAO Magnetic shielding tensor (ppm):
      1  C    Isotropic =   104.8684   Anisotropy =    45.8222
   XX=   100.6266   YX=    10.7055   ZX=    -1.4566
   XY=     2.9708   YY=    82.4072   ZY=   -14.2735
   XZ=    10.7670   YZ=   -13.3614   ZZ=   131.5715
   Eigenvalues:    76.2812   102.9075   135.4165
      2  C    Isotropic =   136.3703   Anisotropy =    23.2851
   XX=   151.2321   YX=    -1.1407   ZX=     2.2046
   XY=    -0.7028   YY=   136.4236   ZY=    -7.7257
   XZ=     6.0699   YZ=     3.1588   ZZ=   121.4552
   Eigenvalues:   120.6013   136.6160   151.8937
      3  C    Isotropic =   106.0509   Anisotropy =    55.7881
   XX=   137.2261   YX=   -19.2785   ZX=     0.0214
   XY=   -15.1050   YY=    94.1126   ZY=     2.2614
   XZ=     2.0746   YZ=     2.2844   ZZ=    86.8140
   Eigenvalues:    84.8820    90.0276   143.2430
      4  C    Isotropic =   140.3748   Anisotropy =    24.7559
   XX=   145.3251   YX=     7.9948   ZX=    -6.3440
   XY=     9.0680   YY=   126.4252   ZY=    -6.8790
   XZ=    -7.5707   YZ=    -0.7430   ZZ=   149.3740
   Eigenvalues:   123.0968   141.1488   156.8787
      5  C    Isotropic =     9.6019   Anisotropy =    98.4446
   XX=   -23.4995   YX=   -69.3540   ZX=   -33.8157
   XY=   -65.2375   YY=    19.9919   ZY=    -4.0016
   XZ=   -43.1469   YZ=   -16.1069   ZZ=    32.3132
   Eigenvalues:   -84.3677    37.9416    75.2316
      6  H    Isotropic =    28.3224   Anisotropy =     3.2317
   XX=    30.3797   YX=     0.3720   ZX=     0.8979
   XY=    -0.1098   YY=    28.9354   ZY=     0.1236
   XZ=     0.4459   YZ=    -0.9376   ZZ=    25.6522
   Eigenvalues:    25.5068    28.9835    30.4769
      7  H    Isotropic =    30.3624   Anisotropy =     5.7938
   XX=    32.2875   YX=    -2.0488   ZX=     1.3471
   XY=    -2.3419   YY=    30.7371   ZY=    -0.7594
   XZ=     1.3454   YZ=    -0.7627   ZZ=    28.0624
   Eigenvalues:    27.6632    29.1990    34.2249
      8  H    Isotropic =    29.7890   Anisotropy =     4.4486
   XX=    29.1309   YX=     0.5917   ZX=     1.7916
   XY=     0.9700   YY=    28.0682   ZY=     0.9393
   XZ=     1.0446   YZ=    -0.7904   ZZ=    32.1678
   Eigenvalues:    27.5604    29.0518    32.7547
      9  H    Isotropic =    29.4817   Anisotropy =     4.9818
   XX=    27.8176   YX=    -1.4143   ZX=    -2.7174
   XY=    -0.5862   YY=    31.7057   ZY=     0.7903
   XZ=    -2.3572   YZ=     1.2389   ZZ=    28.9217
   Eigenvalues:    25.7693    29.8728    32.8028
     10  O    Isotropic =    82.4493   Anisotropy =   180.1602
   XX=   179.8497   YX=   -10.7863   ZX=   -13.2097
   XY=   -35.9900   YY=   133.6671   ZY=   101.3553
   XZ=    12.8370   YZ=   117.7006   ZZ=   -66.1689
   Eigenvalues:  -114.8007   159.5925   202.5561
     11  O    Isotropic =  -103.7487   Anisotropy =   570.5275
   XX=   -68.3066   YX=  -197.7452   ZX=  -207.1595
   XY=  -216.8944   YY=    25.6444   ZY=   112.8949
   XZ=  -183.2355   YZ=   121.1577   ZZ=  -268.5840
   Eigenvalues:  -388.0673  -199.7818   276.6029
     12  C    Isotropic =   159.0041   Anisotropy =    17.4487
   XX=   164.4492   YX=     7.2490   ZX=     5.9245
   XY=     7.7708   YY=   157.1485   ZY=     6.3939
   XZ=    -0.7540   YZ=     3.0580   ZZ=   155.4147
   Eigenvalues:   150.5572   155.8186   170.6366
     13  C    Isotropic =   176.1520   Anisotropy =    21.3701
   XX=   187.8214   YX=     0.3257   ZX=    -6.0092
   XY=    -0.4115   YY=   173.7575   ZY=     4.1353
   XZ=    -9.3402   YZ=     2.2790   ZZ=   166.8771
   Eigenvalues:   163.4673   174.5899   190.3987
     14  C    Isotropic =   176.8628   Anisotropy =     7.7791
   XX=   175.0545   YX=     1.1109   ZX=     1.1140
   XY=     3.1417   YY=   173.7241   ZY=    -1.3276
   XZ=    -0.6965   YZ=    -1.4734   ZZ=   181.8098
   Eigenvalues:   172.0000   176.5396   182.0489
     15  O    Isotropic =   240.5771   Anisotropy =    12.5408
   XX=   246.4679   YX=     5.8470   ZX=    -1.6007
   XY=    -5.1155   YY=   236.1023   ZY=     6.6137
   XZ=    -7.3411   YZ=     3.9859   ZZ=   239.1611
   Eigenvalues:   231.4823   241.3113   248.9376
     16  Si   Isotropic =   333.6808   Anisotropy =    39.4659
   XX=   335.1229   YX=   -24.7219   ZX=    12.9382
   XY=    -6.0987   YY=   346.8286   ZY=    -5.6149
   XZ=     7.5601   YZ=    -4.7069   ZZ=   319.0907
   Eigenvalues:   313.9013   327.1496   359.9914
     17  C    Isotropic =   185.6383   Anisotropy =    10.5303
   XX=   181.0528   YX=    -2.7724   ZX=    -0.0927
   XY=    -4.4096   YY=   185.5325   ZY=     4.6123
   XZ=     2.3626   YZ=     3.3951   ZZ=   190.3295
   Eigenvalues:   178.2846   185.9717   192.6585
     18  C    Isotropic =   186.3416   Anisotropy =    13.4184
   XX=   193.5790   YX=     1.6882   ZX=     4.9883
   XY=     1.4864   YY=   187.4130   ZY=     1.5461
   XZ=     4.0649   YZ=     1.6442   ZZ=   178.0328
   Eigenvalues:   176.6902   187.0474   195.2872
     19  C    Isotropic =   186.0710   Anisotropy =     8.1825
   XX=   186.6726   YX=    -2.9965   ZX=    -4.2067
   XY=    -1.4071   YY=   184.9328   ZY=    -4.6823
   XZ=    -4.8736   YZ=    -3.3126   ZZ=   186.6077
   Eigenvalues:   178.8608   187.8263   191.5260
     20  H    Isotropic =    31.9034   Anisotropy =     8.5041
   XX=    33.2449   YX=     3.2366   ZX=    -2.3965
   XY=     2.7419   YY=    31.3518   ZY=    -3.4164
   XZ=    -2.0019   YZ=    -2.9695   ZZ=    31.1136
   Eigenvalues:    27.9622    30.1753    37.5728
     21  H    Isotropic =    31.9635   Anisotropy =     8.3468
   XX=    31.3296   YX=     1.4647   ZX=     2.3302
   XY=     0.6535   YY=    30.4680   ZY=     4.1519
   XZ=     1.7197   YZ=     3.8921   ZZ=    34.0930
   Eigenvalues:    27.8538    30.5087    37.5281
     22  H    Isotropic =    32.3590   Anisotropy =    10.2557
   XX=    35.9022   YX=    -4.2077   ZX=     1.4398
   XY=    -4.5824   YY=    32.7059   ZY=    -0.6399
   XZ=     1.3846   YZ=    -0.6256   ZZ=    28.4688
   Eigenvalues:    28.1952    29.6856    39.1961
     23  H    Isotropic =    31.8486   Anisotropy =     7.5269
   XX=    30.1693   YX=    -2.2365   ZX=    -1.1154
   XY=    -2.4283   YY=    29.5129   ZY=     1.5475
   XZ=    -1.2321   YZ=     2.2019   ZZ=    35.8638
   Eigenvalues:    27.4302    31.2492    36.8666
     24  H    Isotropic =    32.0773   Anisotropy =     6.4974
   XX=    35.5553   YX=     1.6406   ZX=     1.1736
   XY=     2.1790   YY=    31.8429   ZY=    -0.5541
   XZ=     0.7566   YZ=    -1.0079   ZZ=    28.8336
   Eigenvalues:    28.3452    31.4777    36.4089
     25  H    Isotropic =    32.2321   Anisotropy =    10.6722
   XX=    32.3051   YX=    -4.5463   ZX=     1.5392
   XY=    -4.3564   YY=    34.7372   ZY=    -3.4054
   XZ=     1.1763   YZ=    -3.1090   ZZ=    29.6541
   Eigenvalues:    27.7997    29.5498    39.3469
     26  H    Isotropic =    31.9493   Anisotropy =     8.0854
   XX=    30.7493   YX=     0.5519   ZX=    -3.1020
   XY=     0.4451   YY=    29.9677   ZY=    -1.5544
   XZ=    -3.1946   YZ=    -2.5157   ZZ=    35.1310
   Eigenvalues:    28.7486    29.7598    37.3396
     27  H    Isotropic =    32.2669   Anisotropy =    10.3716
   XX=    32.0760   YX=    -5.0123   ZX=    -0.5655
   XY=    -5.0943   YY=    35.2946   ZY=     1.4898
   XZ=    -0.3297   YZ=     1.2486   ZZ=    29.4302
   Eigenvalues:    28.1941    29.4253    39.1814
     28  H    Isotropic =    32.0077   Anisotropy =     7.0190
   XX=    35.5028   YX=     0.3756   ZX=     1.7502
   XY=     0.8102   YY=    30.4406   ZY=     2.7127
   XZ=     2.7046   YZ=     2.6426   ZZ=    30.0798
   Eigenvalues:    27.3757    31.9604    36.6871
     29  H    Isotropic =    31.1304   Anisotropy =     8.6177
   XX=    29.8981   YX=     2.9964   ZX=     0.9736
   XY=     2.7985   YY=    30.5590   ZY=     3.7435
   XZ=     1.3232   YZ=     4.0634   ZZ=    32.9341
   Eigenvalues:    26.6010    29.9147    36.8755
     30  H    Isotropic =    31.4149   Anisotropy =     8.4597
   XX=    29.6117   YX=    -1.8146   ZX=     3.1240
   XY=    -1.7729   YY=    31.9651   ZY=    -3.1393
   XZ=     2.6070   YZ=    -3.3007   ZZ=    32.6678
   Eigenvalues:    27.8852    29.3047    37.0546
     31  H    Isotropic =    30.8759   Anisotropy =     7.2144
   XX=    33.8350   YX=    -0.6239   ZX=    -2.2308
   XY=    -0.4939   YY=    26.4312   ZY=     0.4287
   XZ=    -2.6265   YZ=     0.3323   ZZ=    32.3615
   Eigenvalues:    26.3817    30.5605    35.6855
     32  H    Isotropic =    30.5631   Anisotropy =     5.3071
   XX=    31.9919   YX=     0.3519   ZX=    -1.1631
   XY=     0.2101   YY=    33.4334   ZY=     2.0731
   XZ=    -0.9674   YZ=     2.5007   ZZ=    26.2640
   Eigenvalues:    25.4123    32.1758    34.1012
     33  H    Isotropic =    30.4999   Anisotropy =     5.7333
   XX=    32.9560   YX=     2.0117   ZX=     0.2502
   XY=     1.6341   YY=    24.4497   ZY=    -1.4575
   XZ=     0.6297   YZ=    -1.3207   ZZ=    34.0940
   Eigenvalues:    23.8701    33.3075    34.3221
     34  H    Isotropic =    30.9989   Anisotropy =    11.4788
   XX=    35.8505   YX=     4.5592   ZX=     2.0952
   XY=     4.3194   YY=    29.1936   ZY=     2.3243
   XZ=     1.3133   YZ=     1.9475   ZZ=    27.9525
   Eigenvalues:    26.0359    28.3093    38.6514
     35  H    Isotropic =    30.6254   Anisotropy =     7.9047
   XX=    31.9320   YX=     1.7413   ZX=    -2.0175
   XY=     1.7281   YY=    26.4895   ZY=    -3.0585
   XZ=    -1.3510   YZ=    -3.1906   ZZ=    33.4547
   Eigenvalues:    25.1288    30.8522    35.8952
     36  H    Isotropic =    31.3023   Anisotropy =     9.3973
   XX=    34.1944   YX=    -4.1184   ZX=    -1.0431
   XY=    -3.6058   YY=    32.8700   ZY=     0.0963
   XZ=    -1.0453   YZ=     0.8926   ZZ=    26.8424
   Eigenvalues:    26.6965    29.6431    37.5671
     37  C    Isotropic =   140.3347   Anisotropy =    14.2744
   XX=   134.6544   YX=     3.2526   ZX=     0.3680
   XY=    -3.3454   YY=   148.5857   ZY=    -8.8585
   XZ=     4.8693   YZ=     1.2008   ZZ=   137.7641
   Eigenvalues:   132.9165   138.2366   149.8510
     38  C    Isotropic =    45.0764   Anisotropy =   180.7173
   XX=   -57.1213   YX=    -5.3371   ZX=   -57.9325
   XY=   -10.8466   YY=    67.3462   ZY=   -51.5461
   XZ=   -60.5672   YZ=   -51.2854   ZZ=   125.0043
   Eigenvalues:   -78.3904    48.0650   165.5546
     39  C    Isotropic =    65.8178   Anisotropy =   138.6770
   XX=   -21.6365   YX=   -20.2193   ZX=   -56.1775
   XY=   -19.5036   YY=    95.5854   ZY=   -35.3895
   XZ=   -58.2116   YZ=   -40.5806   ZZ=   123.5046
   Eigenvalues:   -48.4460    87.6303   158.2692
     40  H    Isotropic =    30.1967   Anisotropy =     6.3731
   XX=    30.3240   YX=    -1.8853   ZX=     1.9109
   XY=    -0.8682   YY=    33.8322   ZY=    -0.1712
   XZ=     2.2271   YZ=    -0.5149   ZZ=    26.4339
   Eigenvalues:    25.5325    30.6121    34.4455
     41  H    Isotropic =    29.5601   Anisotropy =     3.4352
   XX=    26.1474   YX=     1.6888   ZX=    -0.7302
   XY=     2.2526   YY=    30.9335   ZY=    -0.9457
   XZ=    -0.6852   YZ=     1.0427   ZZ=    31.5993
   Eigenvalues:    25.3656    31.4644    31.8502
     42  H    Isotropic =    25.6576   Anisotropy =     7.5737
   XX=    23.7638   YX=     2.1260   ZX=    -0.1106
   XY=     0.3946   YY=    30.3385   ZY=     1.1583
   XZ=    -0.7218   YZ=     1.0803   ZZ=    22.8705
   Eigenvalues:    22.4073    23.8587    30.7067
     43  H    Isotropic =    26.7179   Anisotropy =     6.8367
   XX=    23.7433   YX=    -1.1727   ZX=    -1.0837
   XY=     0.9567   YY=    30.8406   ZY=     1.9674
   XZ=    -0.1910   YZ=     1.1452   ZZ=    25.5697
   Eigenvalues:    23.5219    25.3560    31.2757
     44  H    Isotropic =    26.8012   Anisotropy =     7.3058
   XX=    23.9293   YX=    -0.9102   ZX=    -0.4711
   XY=    -2.8573   YY=    31.0415   ZY=     0.4889
   XZ=    -1.7131   YZ=     1.0255   ZZ=    25.4329
   Eigenvalues:    23.1117    25.6202    31.6718
 End of Minotr F.D. properties file   721 does not exist.
 End of Minotr F.D. properties file   722 does not exist.
 End of Minotr F.D. properties file   788 does not exist.

 **********************************************************************

            Population analysis using the SCF density.

 **********************************************************************

 Orbital symmetries:
       Occupied  (A) (A) (A) (A) (A) (A) (A) (A) (A) (A) (A) (A)
                 (A) (A) (A) (A) (A) (A) (A) (A) (A) (A) (A) (A)
                 (A) (A) (A) (A) (A) (A) (A) (A) (A) (A) (A) (A)
                 (A) (A) (A) (A) (A) (A) (A) (A) (A) (A) (A) (A)
                 (A) (A) (A) (A) (A) (A) (A) (A) (A) (A) (A) (A)
                 (A) (A) (A) (A) (A) (A) (A) (A) (A) (A) (A) (A)
                 (A) (A)
       Virtual   (A) (A) (A) (A) (A) (A) (A) (A) (A) (A) (A) (A)
                 (A) (A) (A) (A) (A) (A) (A) (A) (A) (A) (A) (A)
                 (A) (A) (A) (A) (A) (A) (A) (A) (A) (A) (A) (A)
                 (A) (A) (A) (A) (A) (A) (A) (A) (A) (A) (A) (A)
                 (A) (A) (A) (A) (A) (A) (A) (A) (A) (A) (A) (A)
                 (A) (A) (A) (A) (A) (A) (A) (A) (A) (A) (A) (A)
                 (A) (A) (A) (A) (A) (A) (A) (A) (A) (A) (A) (A)
                 (A) (A) (A) (A) (A) (A) (A) (A) (A) (A) (A) (A)
                 (A) (A) (A) (A) (A) (A) (A) (A) (A) (A) (A) (A)
                 (A) (A) (A) (A) (A) (A) (A) (A) (A) (A) (A) (A)
                 (A) (A) (A) (A) (A) (A) (A) (A) (A) (A) (A) (A)
                 (A) (A) (A) (A) (A) (A) (A) (A) (A) (A) (A) (A)
                 (A) (A) (A) (A) (A) (A) (A) (A) (A) (A) (A) (A)
                 (A) (A) (A) (A) (A) (A) (A) (A) (A) (A) (A) (A)
                 (A) (A) (A) (A) (A) (A) (A) (A) (A) (A) (A) (A)
                 (A) (A) (A) (A) (A) (A) (A) (A) (A) (A) (A) (A)
                 (A) (A) (A) (A) (A) (A) (A) (A) (A) (A) (A) (A)
                 (A) (A) (A) (A) (A) (A) (A) (A) (A) (A) (A) (A)
                 (A) (A) (A) (A) (A) (A) (A) (A) (A) (A) (A) (A)
                 (A) (A) (A) (A) (A) (A) (A) (A) (A) (A) (A) (A)
                 (A) (A) (A) (A) (A) (A) (A) (A) (A) (A) (A) (A)
                 (A) (A) (A) (A) (A) (A) (A) (A) (A) (A) (A) (A)
                 (A) (A) (A) (A) (A) (A) (A) (A) (A) (A) (A) (A)
                 (A) (A) (A) (A) (A) (A) (A) (A) (A) (A) (A) (A)
                 (A) (A) (A) (A) (A) (A) (A) (A) (A) (A) (A) (A)
                 (A) (A) (A) (A) (A) (A) (A) (A) (A) (A) (A) (A)
                 (A) (A) (A) (A) (A) (A) (A) (A) (A) (A) (A) (A)
                 (A) (A) (A) (A) (A) (A) (A) (A) (A) (A) (A) (A)
 The electronic state is 1-A.
 Alpha  occ. eigenvalues --  -66.27269 -19.25961 -19.20489 -19.19660 -10.36685
 Alpha  occ. eigenvalues --  -10.32064 -10.30706 -10.25731 -10.24941 -10.24078
 Alpha  occ. eigenvalues --  -10.24043 -10.24041 -10.23147 -10.22794 -10.22233
 Alpha  occ. eigenvalues --  -10.20713 -10.20603 -10.20525  -5.33003  -3.66895
 Alpha  occ. eigenvalues --   -3.66593  -3.66580  -1.13330  -1.04932  -1.03854
 Alpha  occ. eigenvalues --   -0.85911  -0.83228  -0.80424  -0.77820  -0.73960
 Alpha  occ. eigenvalues --   -0.72494  -0.72080  -0.70087  -0.70021  -0.66863
 Alpha  occ. eigenvalues --   -0.63132  -0.62084  -0.58694  -0.56941  -0.54160
 Alpha  occ. eigenvalues --   -0.51707  -0.50740  -0.49083  -0.48632  -0.46950
 Alpha  occ. eigenvalues --   -0.46043  -0.44945  -0.44699  -0.43885  -0.43677
 Alpha  occ. eigenvalues --   -0.42902  -0.42358  -0.42144  -0.41834  -0.41200
 Alpha  occ. eigenvalues --   -0.40653  -0.40432  -0.39693  -0.39480  -0.39201
 Alpha  occ. eigenvalues --   -0.38774  -0.37961  -0.36856  -0.36483  -0.36145
 Alpha  occ. eigenvalues --   -0.35744  -0.35409  -0.33412  -0.32480  -0.31025
 Alpha  occ. eigenvalues --   -0.30193  -0.28653  -0.28256  -0.27188
 Alpha virt. eigenvalues --    0.00604   0.01277   0.03978   0.05060   0.05868
 Alpha virt. eigenvalues --    0.06698   0.07695   0.07958   0.08389   0.09170
 Alpha virt. eigenvalues --    0.09242   0.10068   0.10251   0.10874   0.11578
 Alpha virt. eigenvalues --    0.12020   0.12339   0.13119   0.13210   0.13384
 Alpha virt. eigenvalues --    0.13828   0.14299   0.14690   0.14807   0.15252
 Alpha virt. eigenvalues --    0.15759   0.16189   0.17078   0.17849   0.18108
 Alpha virt. eigenvalues --    0.18353   0.18748   0.19873   0.20602   0.21066
 Alpha virt. eigenvalues --    0.21279   0.22428   0.22613   0.23613   0.24260
 Alpha virt. eigenvalues --    0.25442   0.25865   0.26903   0.27265   0.27863
 Alpha virt. eigenvalues --    0.28874   0.30499   0.31446   0.32017   0.33051
 Alpha virt. eigenvalues --    0.33299   0.34508   0.34889   0.35772   0.36348
 Alpha virt. eigenvalues --    0.36556   0.37460   0.39068   0.39830   0.40434
 Alpha virt. eigenvalues --    0.41263   0.42372   0.43187   0.43848   0.44859
 Alpha virt. eigenvalues --    0.45112   0.45752   0.46739   0.47281   0.48555
 Alpha virt. eigenvalues --    0.50111   0.50681   0.51739   0.51982   0.52521
 Alpha virt. eigenvalues --    0.53409   0.53701   0.54381   0.54524   0.55663
 Alpha virt. eigenvalues --    0.56416   0.57256   0.58206   0.58333   0.59075
 Alpha virt. eigenvalues --    0.59338   0.59919   0.60707   0.60813   0.61271
 Alpha virt. eigenvalues --    0.61569   0.61970   0.62145   0.62428   0.62887
 Alpha virt. eigenvalues --    0.63084   0.63502   0.64295   0.65031   0.65639
 Alpha virt. eigenvalues --    0.66091   0.66368   0.66667   0.67993   0.68168
 Alpha virt. eigenvalues --    0.68843   0.69494   0.69540   0.70049   0.71015
 Alpha virt. eigenvalues --    0.71311   0.71850   0.72484   0.73653   0.74590
 Alpha virt. eigenvalues --    0.75564   0.77450   0.77554   0.80096   0.82185
 Alpha virt. eigenvalues --    0.83097   0.84052   0.85816   0.86540   0.88273
 Alpha virt. eigenvalues --    0.89289   0.91248   0.92390   0.93437   0.93843
 Alpha virt. eigenvalues --    0.95046   0.95767   0.96744   0.98111   0.99097
 Alpha virt. eigenvalues --    1.01575   1.03579   1.05252   1.08194   1.10927
 Alpha virt. eigenvalues --    1.11917   1.14406   1.16481   1.19219   1.21434
 Alpha virt. eigenvalues --    1.22096   1.24293   1.25587   1.26789   1.28815
 Alpha virt. eigenvalues --    1.30036   1.30665   1.31804   1.32727   1.34726
 Alpha virt. eigenvalues --    1.34748   1.37339   1.39546   1.40712   1.41445
 Alpha virt. eigenvalues --    1.43041   1.45029   1.46270   1.47630   1.48135
 Alpha virt. eigenvalues --    1.49877   1.50637   1.51751   1.52824   1.54194
 Alpha virt. eigenvalues --    1.54393   1.55096   1.57223   1.57842   1.57954
 Alpha virt. eigenvalues --    1.58481   1.59512   1.59805   1.59940   1.60401
 Alpha virt. eigenvalues --    1.61420   1.62472   1.63083   1.63478   1.64672
 Alpha virt. eigenvalues --    1.65533   1.66049   1.66705   1.68233   1.69331
 Alpha virt. eigenvalues --    1.70291   1.71599   1.73108   1.73872   1.74429
 Alpha virt. eigenvalues --    1.75961   1.77714   1.79358   1.79980   1.80952
 Alpha virt. eigenvalues --    1.82112   1.82619   1.83672   1.85526   1.87013
 Alpha virt. eigenvalues --    1.88345   1.89640   1.91976   1.95640   1.97600
 Alpha virt. eigenvalues --    2.00184   2.01298   2.03561   2.08447   2.11154
 Alpha virt. eigenvalues --    2.16678   2.17876   2.19816   2.22948   2.26553
 Alpha virt. eigenvalues --    2.28365   2.31295   2.34411   2.36984   2.40154
 Alpha virt. eigenvalues --    2.41493   2.42172   2.42805   2.43006   2.43726
 Alpha virt. eigenvalues --    2.44630   2.44973   2.45846   2.46275   2.47626
 Alpha virt. eigenvalues --    2.47998   2.48607   2.49664   2.51701   2.52035
 Alpha virt. eigenvalues --    2.53323   2.54823   2.55340   2.56404   2.57031
 Alpha virt. eigenvalues --    2.61236   2.63799   2.68864   2.72147   2.80859
 Alpha virt. eigenvalues --    2.81418   2.87916   2.89222   2.90591   2.91427
 Alpha virt. eigenvalues --    2.92099   2.92444   2.93583   2.96018   2.96433
 Alpha virt. eigenvalues --    2.98794   3.00920   3.01974   3.05157   3.05888
 Alpha virt. eigenvalues --    3.07923   3.10516   3.10877   3.13253   3.14292
 Alpha virt. eigenvalues --    3.15813   3.17276   3.17673   3.18476   3.21020
 Alpha virt. eigenvalues --    3.22106   3.22619   3.22851   3.24091   3.25124
 Alpha virt. eigenvalues --    3.26241   3.27832   3.28144   3.29231   3.30289
 Alpha virt. eigenvalues --    3.34044   3.34552   3.35710   3.39205   3.40052
 Alpha virt. eigenvalues --    3.46569   3.51337   3.56825   3.59656   3.62262
 Alpha virt. eigenvalues --    3.75943   3.87248   3.91022   3.97058   4.05018
 Alpha virt. eigenvalues --    4.07300   4.12885   4.20127   4.24082   4.26356
 Alpha virt. eigenvalues --    4.96780   5.01038   5.02460   5.10658   5.16760
 Alpha virt. eigenvalues --    5.26121   5.53002   5.55119   5.77118   5.84430
 Alpha virt. eigenvalues --   11.52921  11.53014  11.57762  23.41573  23.49479
 Alpha virt. eigenvalues --   23.54170  23.54915  23.58034  23.62614  23.70882
 Alpha virt. eigenvalues --   23.74054  23.78711  23.79589  23.82914  23.86185
 Alpha virt. eigenvalues --   23.90848  24.29370  49.99720  50.05578  50.13243
 Alpha virt. eigenvalues --  141.28388
          Condensed to atoms (all electrons):
               1          2          3          4          5          6
     1  C    5.260820   0.296205  -0.065602  -0.030502  -0.064330   0.376565
     2  C    0.296205   5.475772   0.368508  -0.051364  -0.014907  -0.051612
     3  C   -0.065602   0.368508   5.067613   0.217059  -0.024959  -0.009852
     4  C   -0.030502  -0.051364   0.217059   5.888409   0.257376   0.002582
     5  C   -0.064330  -0.014907  -0.024959   0.257376   4.395232  -0.007115
     6  H    0.376565  -0.051612  -0.009852   0.002582  -0.007115   0.495396
     7  H   -0.061209   0.395128  -0.049860  -0.002145   0.000640   0.009962
     8  H    0.000168   0.005049  -0.023838   0.365983  -0.024520  -0.000265
     9  H   -0.000444   0.003347  -0.040789   0.360831  -0.027450   0.000471
    10  O    0.191978  -0.026097  -0.000827  -0.103684   0.336794  -0.029811
    11  O    0.003894  -0.001548   0.004465  -0.093734   0.666278  -0.000234
    12  C    0.318463  -0.051542   0.006038  -0.000554   0.002853  -0.042821
    13  C   -0.069432   0.006563  -0.000179  -0.000085   0.000027  -0.006049
    14  C   -0.054580   0.264466  -0.055633   0.006975   0.000258   0.001713
    15  O    0.004605  -0.033846   0.220131  -0.049967   0.001427   0.000104
    16  Si   0.003393  -0.000940  -0.045840  -0.011280   0.000101   0.000013
    17  C   -0.000003  -0.002155   0.001300  -0.000235  -0.000063  -0.000005
    18  C    0.000005  -0.000038   0.002078  -0.000167  -0.000013   0.000000
    19  C   -0.000171  -0.001982  -0.002984   0.003021  -0.005060  -0.000031
    20  H    0.000000  -0.000025  -0.000059  -0.000038   0.000002   0.000000
    21  H    0.000001  -0.000008  -0.000049   0.000135  -0.000003   0.000000
    22  H    0.000000   0.000005  -0.000048  -0.000007   0.000000   0.000000
    23  H    0.000021   0.000307   0.000117  -0.001437  -0.001064  -0.000012
    24  H   -0.000383  -0.000519  -0.000211   0.001403   0.000492   0.000017
    25  H    0.000003   0.000089   0.000002  -0.000012   0.000190   0.000000
    26  H   -0.000020  -0.000010   0.000307  -0.000041   0.000000   0.000001
    27  H    0.000001   0.000063  -0.000072   0.000002  -0.000001   0.000000
    28  H    0.000001  -0.000486   0.000475  -0.000039   0.000000  -0.000011
    29  H   -0.008018  -0.029839   0.006355  -0.000210  -0.000037  -0.000549
    30  H   -0.003752  -0.038259  -0.008334  -0.000208   0.000019   0.002438
    31  H    0.006743  -0.039741  -0.003462   0.000647  -0.000078  -0.000320
    32  H   -0.051563  -0.003471  -0.000154   0.000106  -0.000444   0.008030
    33  H   -0.038913  -0.010234  -0.000333   0.000081  -0.000039  -0.000589
    34  H    0.008101  -0.000171   0.000009   0.000001   0.000011  -0.000281
    35  H   -0.011796   0.000184  -0.000075   0.000386   0.000615   0.000570
    36  H   -0.004298   0.000048   0.000014  -0.000009  -0.000117   0.004631
    37  C    0.000679  -0.081708   0.308875  -0.078389   0.003872   0.004887
    38  C   -0.000449   0.008785  -0.050669  -0.025716   0.000337  -0.000297
    39  C   -0.000020  -0.000084  -0.003208   0.001654   0.000029  -0.000049
    40  H    0.000642  -0.001995  -0.041315   0.001009  -0.000274   0.004724
    41  H    0.000733  -0.012785  -0.039975   0.007586  -0.000130  -0.000153
    42  H   -0.000040   0.000152  -0.002550  -0.000462  -0.000024  -0.000001
    43  H   -0.000001   0.000017  -0.000341   0.000081  -0.000001  -0.000003
    44  H   -0.000004  -0.000055   0.000143  -0.000046  -0.000003   0.000012
               7          8          9         10         11         12
     1  C   -0.061209   0.000168  -0.000444   0.191978   0.003894   0.318463
     2  C    0.395128   0.005049   0.003347  -0.026097  -0.001548  -0.051542
     3  C   -0.049860  -0.023838  -0.040789  -0.000827   0.004465   0.006038
     4  C   -0.002145   0.365983   0.360831  -0.103684  -0.093734  -0.000554
     5  C    0.000640  -0.024520  -0.027450   0.336794   0.666278   0.002853
     6  H    0.009962  -0.000265   0.000471  -0.029811  -0.000234  -0.042821
     7  H    0.479345  -0.000402  -0.000211   0.005629  -0.001163  -0.006362
     8  H   -0.000402   0.398853  -0.013116   0.004354   0.007048   0.000106
     9  H   -0.000211  -0.013116   0.421999   0.000351   0.000770   0.000197
    10  O    0.005629   0.004354   0.000351   8.049590  -0.076065  -0.049139
    11  O   -0.001163   0.007048   0.000770  -0.076065   7.866346  -0.000156
    12  C   -0.006362   0.000106   0.000197  -0.049139  -0.000156   5.311752
    13  C   -0.000651  -0.000002  -0.000019  -0.004442  -0.000018   0.313446
    14  C   -0.036159  -0.000167  -0.000396   0.004713  -0.000007  -0.008618
    15  O   -0.006521  -0.001515   0.003372  -0.000042   0.000001  -0.000078
    16  Si   0.005771  -0.000435   0.000934  -0.001088  -0.001200  -0.000384
    17  C    0.002096   0.000035   0.000010   0.000008   0.000000   0.000003
    18  C   -0.000087  -0.000035  -0.000007   0.000000   0.000002   0.000000
    19  C    0.001356   0.000065   0.000047  -0.000304  -0.001613   0.000017
    20  H   -0.000004  -0.000029   0.000002   0.000000   0.000000   0.000000
    21  H   -0.000011   0.000194  -0.000011   0.000000   0.000000   0.000000
    22  H    0.000016   0.000009   0.000000   0.000000   0.000000   0.000000
    23  H   -0.000785   0.002141   0.000082   0.000032   0.011399   0.000012
    24  H    0.003938  -0.000201  -0.000012   0.000855   0.000067   0.000015
    25  H    0.000111   0.000011  -0.000002   0.000000   0.000003   0.000000
    26  H   -0.000032  -0.000003   0.000002   0.000000   0.000000   0.000000
    27  H   -0.000001  -0.000001   0.000000   0.000000   0.000000   0.000000
    28  H    0.002541   0.000004   0.000003  -0.000022   0.000001   0.000038
    29  H   -0.007643   0.000016   0.000022   0.000014   0.000001   0.003090
    30  H    0.006658  -0.000006  -0.000039   0.000019   0.000000  -0.001890
    31  H   -0.004951  -0.000021  -0.000042  -0.000128   0.000000   0.000270
    32  H    0.005718  -0.000002  -0.000007   0.001829  -0.000054   0.393802
    33  H    0.000769  -0.000008  -0.000001   0.003557   0.000007   0.388294
    34  H   -0.000004   0.000000   0.000000  -0.000076   0.000000  -0.037756
    35  H    0.000124  -0.000011  -0.000017   0.013178   0.000142  -0.039429
    36  H    0.000006   0.000000  -0.000001  -0.000405   0.000000  -0.039988
    37  C    0.005539  -0.003925  -0.006369  -0.000238  -0.000082  -0.000440
    38  C   -0.000101   0.001782   0.002117  -0.000024  -0.000016   0.000011
    39  C   -0.000001   0.000703   0.004406   0.000000   0.000001   0.000000
    40  H    0.000402   0.000159  -0.002196  -0.000088   0.000010   0.000083
    41  H   -0.000345  -0.000129   0.001117  -0.000021   0.000005  -0.000022
    42  H    0.000023   0.000434   0.000057   0.000001   0.000000   0.000001
    43  H   -0.000001   0.000034   0.000058   0.000000   0.000000   0.000000
    44  H    0.000001   0.000001   0.000238   0.000001   0.000000   0.000000
              13         14         15         16         17         18
     1  C   -0.069432  -0.054580   0.004605   0.003393  -0.000003   0.000005
     2  C    0.006563   0.264466  -0.033846  -0.000940  -0.002155  -0.000038
     3  C   -0.000179  -0.055633   0.220131  -0.045840   0.001300   0.002078
     4  C   -0.000085   0.006975  -0.049967  -0.011280  -0.000235  -0.000167
     5  C    0.000027   0.000258   0.001427   0.000101  -0.000063  -0.000013
     6  H   -0.006049   0.001713   0.000104   0.000013  -0.000005   0.000000
     7  H   -0.000651  -0.036159  -0.006521   0.005771   0.002096  -0.000087
     8  H   -0.000002  -0.000167  -0.001515  -0.000435   0.000035  -0.000035
     9  H   -0.000019  -0.000396   0.003372   0.000934   0.000010  -0.000007
    10  O   -0.004442   0.004713  -0.000042  -0.001088   0.000008   0.000000
    11  O   -0.000018  -0.000007   0.000001  -0.001200   0.000000   0.000002
    12  C    0.313446  -0.008618  -0.000078  -0.000384   0.000003   0.000000
    13  C    5.337052  -0.000109   0.000001   0.000026   0.000000   0.000000
    14  C   -0.000109   5.440074  -0.000683  -0.001993  -0.000422  -0.000009
    15  O    0.000001  -0.000683   8.284764   0.350693  -0.025484  -0.030395
    16  Si   0.000026  -0.001993   0.350693  11.523667   0.309691   0.331132
    17  C    0.000000  -0.000422  -0.025484   0.309691   5.775191  -0.049291
    18  C    0.000000  -0.000009  -0.030395   0.331132  -0.049291   5.724979
    19  C    0.000000   0.000132  -0.023062   0.313787  -0.053258  -0.042846
    20  H    0.000000  -0.000002  -0.002106  -0.022455  -0.000942   0.369353
    21  H    0.000000   0.000000  -0.001644  -0.025022   0.002135   0.370999
    22  H    0.000000   0.000000   0.001178  -0.013707   0.000935   0.360794
    23  H    0.000001  -0.000030  -0.002124  -0.026579   0.001798   0.000254
    24  H   -0.000005   0.000176  -0.000954  -0.030024  -0.000969   0.002264
    25  H    0.000000  -0.000006   0.000769  -0.011313   0.000268  -0.000849
    26  H    0.000000   0.000300  -0.002685  -0.025319   0.371273  -0.000688
    27  H    0.000000   0.000064   0.001001  -0.012000   0.361998   0.000305
    28  H   -0.000001  -0.000576  -0.001806  -0.028225   0.370433   0.002281
    29  H    0.000212   0.390611  -0.000169  -0.000549   0.000200   0.000000
    30  H   -0.000144   0.387441  -0.000021   0.000083   0.000032   0.000000
    31  H    0.000017   0.387817   0.005502   0.001862  -0.001423  -0.000015
    32  H   -0.040075  -0.000650  -0.000005  -0.000169  -0.000009   0.000000
    33  H   -0.035813   0.003471  -0.000005  -0.000038   0.000000   0.000000
    34  H    0.392562  -0.000015   0.000000  -0.000001   0.000000   0.000000
    35  H    0.385262  -0.000040   0.000000  -0.000003   0.000000   0.000000
    36  H    0.384228  -0.000032   0.000000  -0.000001   0.000000   0.000000
    37  C    0.000016  -0.018110  -0.075750   0.002622  -0.000153   0.000087
    38  C    0.000000  -0.000251   0.004436  -0.000271   0.000021  -0.000068
    39  C    0.000000  -0.000028   0.000826   0.000157   0.000000  -0.000002
    40  H   -0.000021  -0.001016   0.004016   0.000104  -0.000003   0.000004
    41  H    0.000001   0.003930   0.001699   0.000741  -0.000006  -0.000015
    42  H    0.000000  -0.000082   0.007129   0.000655   0.000001   0.000102
    43  H    0.000000   0.000000   0.000006   0.000002   0.000000   0.000000
    44  H    0.000000  -0.000011  -0.000002  -0.000003   0.000000   0.000000
              19         20         21         22         23         24
     1  C   -0.000171   0.000000   0.000001   0.000000   0.000021  -0.000383
     2  C   -0.001982  -0.000025  -0.000008   0.000005   0.000307  -0.000519
     3  C   -0.002984  -0.000059  -0.000049  -0.000048   0.000117  -0.000211
     4  C    0.003021  -0.000038   0.000135  -0.000007  -0.001437   0.001403
     5  C   -0.005060   0.000002  -0.000003   0.000000  -0.001064   0.000492
     6  H   -0.000031   0.000000   0.000000   0.000000  -0.000012   0.000017
     7  H    0.001356  -0.000004  -0.000011   0.000016  -0.000785   0.003938
     8  H    0.000065  -0.000029   0.000194   0.000009   0.002141  -0.000201
     9  H    0.000047   0.000002  -0.000011   0.000000   0.000082  -0.000012
    10  O   -0.000304   0.000000   0.000000   0.000000   0.000032   0.000855
    11  O   -0.001613   0.000000   0.000000   0.000000   0.011399   0.000067
    12  C    0.000017   0.000000   0.000000   0.000000   0.000012   0.000015
    13  C    0.000000   0.000000   0.000000   0.000000   0.000001  -0.000005
    14  C    0.000132  -0.000002   0.000000   0.000000  -0.000030   0.000176
    15  O   -0.023062  -0.002106  -0.001644   0.001178  -0.002124  -0.000954
    16  Si   0.313787  -0.022455  -0.025022  -0.013707  -0.026579  -0.030024
    17  C   -0.053258  -0.000942   0.002135   0.000935   0.001798  -0.000969
    18  C   -0.042846   0.369353   0.370999   0.360794   0.000254   0.002264
    19  C    5.798957   0.002064  -0.000488  -0.000162   0.363782   0.369627
    20  H    0.002064   0.454761  -0.019660  -0.021964  -0.000047  -0.000089
    21  H   -0.000488  -0.019660   0.454699  -0.021873   0.000997  -0.000081
    22  H   -0.000162  -0.021964  -0.021873   0.461833  -0.000037  -0.000099
    23  H    0.363782  -0.000047   0.000997  -0.000037   0.435806  -0.020074
    24  H    0.369627  -0.000089  -0.000081  -0.000099  -0.020074   0.443870
    25  H    0.361897  -0.000045  -0.000068   0.000614  -0.019260  -0.020946
    26  H    0.001996   0.001184  -0.000077   0.000047  -0.000094   0.000018
    27  H    0.000052  -0.000080  -0.000053   0.000678  -0.000067   0.000086
    28  H   -0.001187  -0.000102  -0.000095  -0.000054  -0.000050   0.000812
    29  H    0.000004   0.000000   0.000000   0.000000   0.000000   0.000001
    30  H   -0.000006   0.000000   0.000000   0.000000   0.000001  -0.000004
    31  H    0.000038  -0.000007   0.000003  -0.000001   0.000006   0.000013
    32  H   -0.000030   0.000000   0.000000   0.000000  -0.000005   0.000079
    33  H   -0.000001   0.000000   0.000000   0.000000  -0.000001   0.000004
    34  H    0.000000   0.000000   0.000000   0.000000   0.000000   0.000000
    35  H    0.000000   0.000000   0.000000   0.000000  -0.000001   0.000006
    36  H    0.000000   0.000000   0.000000   0.000000   0.000000   0.000000
    37  C   -0.000267   0.000093   0.000005   0.000001  -0.000077  -0.000056
    38  C   -0.000004  -0.000003   0.000017   0.000000  -0.000017   0.000003
    39  C    0.000001  -0.000003  -0.000001   0.000000   0.000000   0.000000
    40  H    0.000017  -0.000001   0.000001   0.000000   0.000001   0.000003
    41  H    0.000033   0.000000   0.000004   0.000000   0.000006   0.000001
    42  H    0.000022   0.000122   0.000117   0.000003   0.000007   0.000000
    43  H    0.000000  -0.000001   0.000000   0.000000   0.000000   0.000000
    44  H    0.000000   0.000000   0.000000   0.000000   0.000000   0.000000
              25         26         27         28         29         30
     1  C    0.000003  -0.000020   0.000001   0.000001  -0.008018  -0.003752
     2  C    0.000089  -0.000010   0.000063  -0.000486  -0.029839  -0.038259
     3  C    0.000002   0.000307  -0.000072   0.000475   0.006355  -0.008334
     4  C   -0.000012  -0.000041   0.000002  -0.000039  -0.000210  -0.000208
     5  C    0.000190   0.000000  -0.000001   0.000000  -0.000037   0.000019
     6  H    0.000000   0.000001   0.000000  -0.000011  -0.000549   0.002438
     7  H    0.000111  -0.000032  -0.000001   0.002541  -0.007643   0.006658
     8  H    0.000011  -0.000003  -0.000001   0.000004   0.000016  -0.000006
     9  H   -0.000002   0.000002   0.000000   0.000003   0.000022  -0.000039
    10  O    0.000000   0.000000   0.000000  -0.000022   0.000014   0.000019
    11  O    0.000003   0.000000   0.000000   0.000001   0.000001   0.000000
    12  C    0.000000   0.000000   0.000000   0.000038   0.003090  -0.001890
    13  C    0.000000   0.000000   0.000000  -0.000001   0.000212  -0.000144
    14  C   -0.000006   0.000300   0.000064  -0.000576   0.390611   0.387441
    15  O    0.000769  -0.002685   0.001001  -0.001806  -0.000169  -0.000021
    16  Si  -0.011313  -0.025319  -0.012000  -0.028225  -0.000549   0.000083
    17  C    0.000268   0.371273   0.361998   0.370433   0.000200   0.000032
    18  C   -0.000849  -0.000688   0.000305   0.002281   0.000000   0.000000
    19  C    0.361897   0.001996   0.000052  -0.001187   0.000004  -0.000006
    20  H   -0.000045   0.001184  -0.000080  -0.000102   0.000000   0.000000
    21  H   -0.000068  -0.000077  -0.000053  -0.000095   0.000000   0.000000
    22  H    0.000614   0.000047   0.000678  -0.000054   0.000000   0.000000
    23  H   -0.019260  -0.000094  -0.000067  -0.000050   0.000000   0.000001
    24  H   -0.020946   0.000018   0.000086   0.000812   0.000001  -0.000004
    25  H    0.446212  -0.000072   0.000455  -0.000032   0.000000   0.000000
    26  H   -0.000072   0.454351  -0.022440  -0.019884   0.000026  -0.000013
    27  H    0.000455  -0.022440   0.455546  -0.022730  -0.000016  -0.000002
    28  H   -0.000032  -0.019884  -0.022730   0.452274   0.000612   0.000062
    29  H    0.000000   0.000026  -0.000016   0.000612   0.448487  -0.026305
    30  H    0.000000  -0.000013  -0.000002   0.000062  -0.026305   0.461430
    31  H    0.000001   0.000125   0.000205  -0.001055  -0.023941  -0.024998
    32  H    0.000001   0.000001   0.000001  -0.000022   0.000689   0.000184
    33  H    0.000000   0.000000   0.000000  -0.000002  -0.002440   0.000646
    34  H    0.000000   0.000000   0.000000   0.000000   0.000001   0.000005
    35  H    0.000000   0.000000   0.000000   0.000000  -0.000039  -0.000001
    36  H    0.000000   0.000000   0.000000   0.000000   0.000015   0.000012
    37  C    0.000004   0.000060   0.000005  -0.000006   0.000429   0.002787
    38  C    0.000000   0.000003   0.000000   0.000005   0.000012   0.000307
    39  C    0.000000   0.000000   0.000000   0.000000   0.000001  -0.000010
    40  H    0.000000  -0.000005   0.000000  -0.000003  -0.000149   0.000794
    41  H    0.000000  -0.000014  -0.000002  -0.000012   0.000417  -0.002317
    42  H    0.000000  -0.000004   0.000000   0.000001   0.000001   0.000000
    43  H    0.000000   0.000000   0.000000   0.000000   0.000000   0.000000
    44  H    0.000000   0.000000   0.000000   0.000000   0.000000  -0.000005
              31         32         33         34         35         36
     1  C    0.006743  -0.051563  -0.038913   0.008101  -0.011796  -0.004298
     2  C   -0.039741  -0.003471  -0.010234  -0.000171   0.000184   0.000048
     3  C   -0.003462  -0.000154  -0.000333   0.000009  -0.000075   0.000014
     4  C    0.000647   0.000106   0.000081   0.000001   0.000386  -0.000009
     5  C   -0.000078  -0.000444  -0.000039   0.000011   0.000615  -0.000117
     6  H   -0.000320   0.008030  -0.000589  -0.000281   0.000570   0.004631
     7  H   -0.004951   0.005718   0.000769  -0.000004   0.000124   0.000006
     8  H   -0.000021  -0.000002  -0.000008   0.000000  -0.000011   0.000000
     9  H   -0.000042  -0.000007  -0.000001   0.000000  -0.000017  -0.000001
    10  O   -0.000128   0.001829   0.003557  -0.000076   0.013178  -0.000405
    11  O    0.000000  -0.000054   0.000007   0.000000   0.000142   0.000000
    12  C    0.000270   0.393802   0.388294  -0.037756  -0.039429  -0.039988
    13  C    0.000017  -0.040075  -0.035813   0.392562   0.385262   0.384228
    14  C    0.387817  -0.000650   0.003471  -0.000015  -0.000040  -0.000032
    15  O    0.005502  -0.000005  -0.000005   0.000000   0.000000   0.000000
    16  Si   0.001862  -0.000169  -0.000038  -0.000001  -0.000003  -0.000001
    17  C   -0.001423  -0.000009   0.000000   0.000000   0.000000   0.000000
    18  C   -0.000015   0.000000   0.000000   0.000000   0.000000   0.000000
    19  C    0.000038  -0.000030  -0.000001   0.000000   0.000000   0.000000
    20  H   -0.000007   0.000000   0.000000   0.000000   0.000000   0.000000
    21  H    0.000003   0.000000   0.000000   0.000000   0.000000   0.000000
    22  H   -0.000001   0.000000   0.000000   0.000000   0.000000   0.000000
    23  H    0.000006  -0.000005  -0.000001   0.000000  -0.000001   0.000000
    24  H    0.000013   0.000079   0.000004   0.000000   0.000006   0.000000
    25  H    0.000001   0.000001   0.000000   0.000000   0.000000   0.000000
    26  H    0.000125   0.000001   0.000000   0.000000   0.000000   0.000000
    27  H    0.000205   0.000001   0.000000   0.000000   0.000000   0.000000
    28  H   -0.001055  -0.000022  -0.000002   0.000000   0.000000   0.000000
    29  H   -0.023941   0.000689  -0.002440   0.000001  -0.000039   0.000015
    30  H   -0.024998   0.000184   0.000646   0.000005  -0.000001   0.000012
    31  H    0.437145  -0.000235   0.000487  -0.000001   0.000006  -0.000003
    32  H   -0.000235   0.479945  -0.026346  -0.004693  -0.003994   0.006821
    33  H    0.000487  -0.026346   0.474380  -0.004414   0.006931  -0.004837
    34  H   -0.000001  -0.004693  -0.004414   0.468745  -0.025314  -0.027388
    35  H    0.000006  -0.003994   0.006931  -0.025314   0.459100  -0.027533
    36  H   -0.000003   0.006821  -0.004837  -0.027388  -0.027533   0.486744
    37  C   -0.004591   0.000001   0.000003   0.000000   0.000003  -0.000014
    38  C   -0.000274   0.000001  -0.000001   0.000000   0.000000   0.000000
    39  C   -0.000007   0.000000   0.000000   0.000000   0.000000   0.000000
    40  H    0.000245   0.000001   0.000031   0.000000   0.000000  -0.000022
    41  H    0.001983   0.000002  -0.000018   0.000000   0.000000   0.000001
    42  H    0.000006   0.000000   0.000000   0.000000   0.000000   0.000000
    43  H    0.000000   0.000000   0.000000   0.000000   0.000000   0.000000
    44  H    0.000001   0.000000   0.000000   0.000000   0.000000   0.000000
              37         38         39         40         41         42
     1  C    0.000679  -0.000449  -0.000020   0.000642   0.000733  -0.000040
     2  C   -0.081708   0.008785  -0.000084  -0.001995  -0.012785   0.000152
     3  C    0.308875  -0.050669  -0.003208  -0.041315  -0.039975  -0.002550
     4  C   -0.078389  -0.025716   0.001654   0.001009   0.007586  -0.000462
     5  C    0.003872   0.000337   0.000029  -0.000274  -0.000130  -0.000024
     6  H    0.004887  -0.000297  -0.000049   0.004724  -0.000153  -0.000001
     7  H    0.005539  -0.000101  -0.000001   0.000402  -0.000345   0.000023
     8  H   -0.003925   0.001782   0.000703   0.000159  -0.000129   0.000434
     9  H   -0.006369   0.002117   0.004406  -0.002196   0.001117   0.000057
    10  O   -0.000238  -0.000024   0.000000  -0.000088  -0.000021   0.000001
    11  O   -0.000082  -0.000016   0.000001   0.000010   0.000005   0.000000
    12  C   -0.000440   0.000011   0.000000   0.000083  -0.000022   0.000001
    13  C    0.000016   0.000000   0.000000  -0.000021   0.000001   0.000000
    14  C   -0.018110  -0.000251  -0.000028  -0.001016   0.003930  -0.000082
    15  O   -0.075750   0.004436   0.000826   0.004016   0.001699   0.007129
    16  Si   0.002622  -0.000271   0.000157   0.000104   0.000741   0.000655
    17  C   -0.000153   0.000021   0.000000  -0.000003  -0.000006   0.000001
    18  C    0.000087  -0.000068  -0.000002   0.000004  -0.000015   0.000102
    19  C   -0.000267  -0.000004   0.000001   0.000017   0.000033   0.000022
    20  H    0.000093  -0.000003  -0.000003  -0.000001   0.000000   0.000122
    21  H    0.000005   0.000017  -0.000001   0.000001   0.000004   0.000117
    22  H    0.000001   0.000000   0.000000   0.000000   0.000000   0.000003
    23  H   -0.000077  -0.000017   0.000000   0.000001   0.000006   0.000007
    24  H   -0.000056   0.000003   0.000000   0.000003   0.000001   0.000000
    25  H    0.000004   0.000000   0.000000   0.000000   0.000000   0.000000
    26  H    0.000060   0.000003   0.000000  -0.000005  -0.000014  -0.000004
    27  H    0.000005   0.000000   0.000000   0.000000  -0.000002   0.000000
    28  H   -0.000006   0.000005   0.000000  -0.000003  -0.000012   0.000001
    29  H    0.000429   0.000012   0.000001  -0.000149   0.000417   0.000001
    30  H    0.002787   0.000307  -0.000010   0.000794  -0.002317   0.000000
    31  H   -0.004591  -0.000274  -0.000007   0.000245   0.001983   0.000006
    32  H    0.000001   0.000001   0.000000   0.000001   0.000002   0.000000
    33  H    0.000003  -0.000001   0.000000   0.000031  -0.000018   0.000000
    34  H    0.000000   0.000000   0.000000   0.000000   0.000000   0.000000
    35  H    0.000003   0.000000   0.000000   0.000000   0.000000   0.000000
    36  H   -0.000014   0.000000   0.000000  -0.000022   0.000001   0.000000
    37  C    5.450140   0.330750  -0.064004   0.385289   0.390118  -0.049295
    38  C    0.330750   5.060668   0.616361  -0.048195  -0.039923   0.397845
    39  C   -0.064004   0.616361   5.153481   0.001974   0.000434  -0.039628
    40  H    0.385289  -0.048195   0.001974   0.467324  -0.021059   0.005495
    41  H    0.390118  -0.039923   0.000434  -0.021059   0.448861  -0.001355
    42  H   -0.049295   0.397845  -0.039628   0.005495  -0.001355   0.459020
    43  H    0.006352  -0.038484   0.392518   0.000140  -0.000326  -0.007738
    44  H   -0.008990  -0.039642   0.386603   0.004956   0.000206   0.005889
              43         44
     1  C   -0.000001  -0.000004
     2  C    0.000017  -0.000055
     3  C   -0.000341   0.000143
     4  C    0.000081  -0.000046
     5  C   -0.000001  -0.000003
     6  H   -0.000003   0.000012
     7  H   -0.000001   0.000001
     8  H    0.000034   0.000001
     9  H    0.000058   0.000238
    10  O    0.000000   0.000001
    11  O    0.000000   0.000000
    12  C    0.000000   0.000000
    13  C    0.000000   0.000000
    14  C    0.000000  -0.000011
    15  O    0.000006  -0.000002
    16  Si   0.000002  -0.000003
    17  C    0.000000   0.000000
    18  C    0.000000   0.000000
    19  C    0.000000   0.000000
    20  H   -0.000001   0.000000
    21  H    0.000000   0.000000
    22  H    0.000000   0.000000
    23  H    0.000000   0.000000
    24  H    0.000000   0.000000
    25  H    0.000000   0.000000
    26  H    0.000000   0.000000
    27  H    0.000000   0.000000
    28  H    0.000000   0.000000
    29  H    0.000000   0.000000
    30  H    0.000000  -0.000005
    31  H    0.000000   0.000001
    32  H    0.000000   0.000000
    33  H    0.000000   0.000000
    34  H    0.000000   0.000000
    35  H    0.000000   0.000000
    36  H    0.000000   0.000000
    37  C    0.006352  -0.008990
    38  C   -0.038484  -0.039642
    39  C    0.392518   0.386603
    40  H    0.000140   0.004956
    41  H   -0.000326   0.000206
    42  H   -0.007738   0.005889
    43  H    0.454595  -0.034311
    44  H   -0.034311   0.466867
 Mulliken charges:
               1
     1  C   -0.007492
     2  C   -0.369266
     3  C    0.267727
     4  C   -0.664997
     5  C    0.504081
     6  H    0.237943
     7  H    0.252881
     8  H    0.281482
     9  H    0.290696
    10  O   -0.320404
    11  O   -0.384548
    12  C   -0.459312
    13  C   -0.662369
    14  C   -0.712519
    15  O   -0.632794
    16  Si   1.413405
    17  C   -1.063007
    18  C   -1.040114
    19  C   -1.083458
    20  H    0.240081
    21  H    0.239837
    22  H    0.231838
    23  H    0.254991
    24  H    0.250878
    25  H    0.241975
    26  H    0.241707
    27  H    0.237004
    28  H    0.246858
    29  H    0.248690
    30  H    0.243397
    31  H    0.262174
    32  H    0.234718
    33  H    0.245370
    34  H    0.230680
    35  H    0.241747
    36  H    0.222126
    37  C   -0.500155
    38  C   -0.179056
    39  C   -0.452102
    40  H    0.238918
    41  H    0.260731
    42  H    0.224097
    43  H    0.227403
    44  H    0.218157
 Sum of Mulliken charges =   0.00000
 Mulliken charges with hydrogens summed into heavy atoms:
               1
     1  C    0.230451
     2  C   -0.116386
     3  C    0.267727
     4  C   -0.092819
     5  C    0.504081
    10  O   -0.320404
    11  O   -0.384548
    12  C    0.020776
    13  C    0.032184
    14  C    0.041742
    15  O   -0.632794
    16  Si   1.413405
    17  C   -0.337438
    18  C   -0.328357
    19  C   -0.335615
    37  C   -0.000506
    38  C    0.045041
    39  C   -0.006541
 Electronic spatial extent (au):  <R**2>=           5360.0711
 Charge=              0.0000 electrons
 Dipole moment (field-independent basis, Debye):
    X=             -0.2800    Y=              1.1678    Z=             -4.8897  Tot=              5.0350
 Quadrupole moment (field-independent basis, Debye-Ang):
   XX=           -114.5137   YY=           -116.5868   ZZ=           -131.9622
   XY=             -6.2112   XZ=              9.3023   YZ=              7.0756
 Traceless Quadrupole moment (field-independent basis, Debye-Ang):
   XX=              6.5072   YY=              4.4341   ZZ=            -10.9413
   XY=             -6.2112   XZ=              9.3023   YZ=              7.0756
 Octapole moment (field-independent basis, Debye-Ang**2):
  XXX=            -13.8095  YYY=             -2.8243  ZZZ=            -39.1236  XYY=             -2.7422
  XXY=             -4.2147  XXZ=            -10.8076  XZZ=             11.0985  YZZ=             13.2990
  YYZ=              9.2194  XYZ=             -7.6317
 Hexadecapole moment (field-independent basis, Debye-Ang**3):
 XXXX=          -3707.5371 YYYY=          -2208.7578 ZZZZ=          -1492.0168 XXXY=            -16.6284
 XXXZ=             17.6485 YYYX=            -16.3770 YYYZ=             51.2101 ZZZX=             39.8443
 ZZZY=             27.5475 XXYY=           -941.8874 XXZZ=           -847.5750 YYZZ=           -630.2445
 XXYZ=             12.9410 YYXZ=             26.7427 ZZXY=             -1.3166
 N-N= 1.633166524158D+03 E-N=-5.761653106970D+03  KE= 1.060531502541D+03
 1\1\GINC-CPU-E-532\SP\RmPW1PW91\6-311G(d)\C14H26O3Si1\KE291\06-Feb-201
 9\0\\# mPW1PW91/6-311g(d) geom=checkpoint nmr=giao scrf=(solvent=chlor
 oform)\\P_ng_correct1ginp008\\0,1\C,0,0.7530686779,-0.3534726033,0.423
 0851859\C,0,-0.7351457218,-0.4369947715,0.8068974744\C,0,-1.0760554473
 ,0.6648592982,1.8609350081\C,0,-0.1635241241,1.9088906668,1.6300014303
 \C,0,0.4598023401,2.0446793068,0.2606344827\H,0,1.3855977851,-0.353661
 5576,1.3226718122\H,0,-1.2704939043,-0.1575962849,-0.109729349\H,0,-0.
 7089772905,2.8242567586,1.8572491464\H,0,0.6771638773,1.8653777391,2.3
 343536492\O,0,0.9685458682,0.9110817792,-0.2743284851\O,0,0.5746285546
 ,3.0902071512,-0.3440964142\C,0,1.2483652766,-1.4399632424,-0.52830735
 83\C,0,2.715389048,-1.2694903485,-0.9353346014\C,0,-1.1996999789,-1.84
 41866498,1.204218354\O,0,-2.4494359329,1.0376445486,1.7831692111\Si,0,
 -3.5665733293,1.4222696763,0.5823741637\C,0,-4.4120555377,-0.144615299
 ,-0.0436023097\C,0,-4.8259107192,2.5048587213,1.4665758636\C,0,-2.8033
 825398,2.3560090315,-0.8677562368\H,0,-5.2539779441,1.9860294451,2.330
 7425554\H,0,-4.3701890742,3.4337475703,1.825088398\H,0,-5.6499376472,2
 .7726679648,0.7957361497\H,0,-2.2027329164,3.2102524885,-0.5423224311\
 H,0,-2.1652172875,1.7218883201,-1.491736564\H,0,-3.6074596931,2.737009
 1982,-1.5087020993\H,0,-4.8645662199,-0.705331294,0.7813845369\H,0,-5.
 2122415988,0.1120796045,-0.7477943075\H,0,-3.7189578758,-0.8137419818,
 -0.5637548847\H,0,-1.1663090064,-2.5203270997,0.3466272868\H,0,-0.5819
 264733,-2.2785741442,1.9962724684\H,0,-2.2329992836,-1.8147993973,1.55
 92796164\H,0,0.6067192415,-1.4463001086,-1.4183295584\H,0,1.1174723952
 ,-2.4080198678,-0.0342987878\H,0,3.0241901284,-2.0781257726,-1.6043230
 4\H,0,2.8740317208,-0.3198180284,-1.4516316345\H,0,3.3731714102,-1.291
 3336761,-0.0591373733\C,0,-0.8720385661,0.1601702841,3.3149726358\C,0,
 -1.087646644,1.2154676546,4.3646102573\C,0,-0.1942733505,1.5571081876,
 5.2945664994\H,0,0.1351257327,-0.2612132349,3.4175290614\H,0,-1.586544
 6788,-0.6537802225,3.4795428856\H,0,-2.0570102208,1.7101853879,4.34293
 058\H,0,-0.409148715,2.3171103304,6.0401710773\H,0,0.7835846647,1.0833
 434712,5.3505466456\\Version=ES64L-G09RevD.01\State=1-A\HF=-1064.38344
 38\RMSD=9.343e-09\Dipole=-0.3935969,-1.786474,0.7600703\Quadrupole=2.6
 203405,-1.1795468,-1.4407937,-7.5144091,7.0331275,5.9961698\PG=C01 [X(
 C14H26O3Si1)]\\@


 We make a living by what we get,
 we make a life by what we give.
                   -- Sir Winston Churchill
 Job cpu time:       0 days  0 hours 18 minutes 42.1 seconds.
 File lengths (MBytes):  RWF=    237 Int=      0 D2E=      0 Chk=     19 Scr=      1
 Normal termination of Gaussian 09 at Wed Feb  6 11:50:03 2019.
