 Entering Gaussian System, Link 0=/usr/local/Cluster-Apps/gaussian/g09/g09
 Initial command:
 /usr/local/Cluster-Apps/gaussian/g09/l1.exe "/home/ke291/rds/hpc-work/06Feb0927IP1/Gau-378292.inp" -scrdir="/home/ke291/rds/hpc-work/06Feb0927IP1/"
 Entering Link 1 = /usr/local/Cluster-Apps/gaussian/g09/l1.exe PID=    378297.
  
 Copyright (c) 1988,1990,1992,1993,1995,1998,2003,2009,2013,
            Gaussian, Inc.  All Rights Reserved.
  
 This is part of the Gaussian(R) 09 program.  It is based on
 the Gaussian(R) 03 system (copyright 2003, Gaussian, Inc.),
 the Gaussian(R) 98 system (copyright 1998, Gaussian, Inc.),
 the Gaussian(R) 94 system (copyright 1995, Gaussian, Inc.),
 the Gaussian 92(TM) system (copyright 1992, Gaussian, Inc.),
 the Gaussian 90(TM) system (copyright 1990, Gaussian, Inc.),
 the Gaussian 88(TM) system (copyright 1988, Gaussian, Inc.),
 the Gaussian 86(TM) system (copyright 1986, Carnegie Mellon
 University), and the Gaussian 82(TM) system (copyright 1983,
 Carnegie Mellon University). Gaussian is a federally registered
 trademark of Gaussian, Inc.
  
 This software contains proprietary and confidential information,
 including trade secrets, belonging to Gaussian, Inc.
  
 This software is provided under written license and may be
 used, copied, transmitted, or stored only in accord with that
 written license.
  
 The following legend is applicable only to US Government
 contracts under FAR:
  
                    RESTRICTED RIGHTS LEGEND
  
 Use, reproduction and disclosure by the US Government is
 subject to restrictions as set forth in subparagraphs (a)
 and (c) of the Commercial Computer Software - Restricted
 Rights clause in FAR 52.227-19.
  
 Gaussian, Inc.
 340 Quinnipiac St., Bldg. 40, Wallingford CT 06492
  
  
 ---------------------------------------------------------------
 Warning -- This program may not be used in any manner that
 competes with the business of Gaussian, Inc. or will provide
 assistance to any competitor of Gaussian, Inc.  The licensee
 of this program is prohibited from giving any competitor of
 Gaussian, Inc. access to this program.  By using this program,
 the user acknowledges that Gaussian, Inc. is engaged in the
 business of creating and licensing software in the field of
 computational chemistry and represents and warrants to the
 licensee that it is not a competitor of Gaussian, Inc. and that
 it will not use this program in any manner prohibited above.
 ---------------------------------------------------------------
  

 Cite this work as:
 Gaussian 09, Revision D.01,
 M. J. Frisch, G. W. Trucks, H. B. Schlegel, G. E. Scuseria, 
 M. A. Robb, J. R. Cheeseman, G. Scalmani, V. Barone, B. Mennucci, 
 G. A. Petersson, H. Nakatsuji, M. Caricato, X. Li, H. P. Hratchian, 
 A. F. Izmaylov, J. Bloino, G. Zheng, J. L. Sonnenberg, M. Hada, 
 M. Ehara, K. Toyota, R. Fukuda, J. Hasegawa, M. Ishida, T. Nakajima, 
 Y. Honda, O. Kitao, H. Nakai, T. Vreven, J. A. Montgomery, Jr., 
 J. E. Peralta, F. Ogliaro, M. Bearpark, J. J. Heyd, E. Brothers, 
 K. N. Kudin, V. N. Staroverov, T. Keith, R. Kobayashi, J. Normand, 
 K. Raghavachari, A. Rendell, J. C. Burant, S. S. Iyengar, J. Tomasi, 
 M. Cossi, N. Rega, J. M. Millam, M. Klene, J. E. Knox, J. B. Cross, 
 V. Bakken, C. Adamo, J. Jaramillo, R. Gomperts, R. E. Stratmann, 
 O. Yazyev, A. J. Austin, R. Cammi, C. Pomelli, J. W. Ochterski, 
 R. L. Martin, K. Morokuma, V. G. Zakrzewski, G. A. Voth, 
 P. Salvador, J. J. Dannenberg, S. Dapprich, A. D. Daniels, 
 O. Farkas, J. B. Foresman, J. V. Ortiz, J. Cioslowski, 
 and D. J. Fox, Gaussian, Inc., Wallingford CT, 2013.
 
 ******************************************
 Gaussian 09:  ES64L-G09RevD.01 24-Apr-2013
                 6-Feb-2019 
 ******************************************
 %nprocshared=2
 Will use up to    2 processors via shared memory.
 %mem=6000MB
 %chk=/home/ke291/rds/hpc-work/06Feb0927IP1/P_ng_correct1ginp017.chk
 ----------------------------------------------------------------------
 # mPW1PW91/6-311g(d) geom=checkpoint nmr=giao scrf=(solvent=chloroform
 )
 ----------------------------------------------------------------------
 1/29=2,38=1/1;
 2/12=2,40=1/2;
 3/5=4,6=6,7=1,11=2,14=-4,16=1,25=1,30=1,70=2201,72=7,74=-7/1,2,8,3;
 4//1;
 5/5=2,38=5,53=7/2;
 8/6=1,10=90,11=11/1;
 10/13=100,45=16/2;
 6/7=2,8=2,9=2,10=2,28=1/1;
 99/9=1/99;
 --------------------
 P_ng_correct1ginp017
 --------------------
 Structure from the checkpoint file:  "/home/ke291/rds/hpc-work/06Feb0927IP1/P_ng_correct1ginp017.chk"
 Charge =  0 Multiplicity = 1
 Redundant internal coordinates found in file.
 C,0,0.7637715338,-0.3874991744,0.4698268617
 C,0,0.2354938761,-0.1190239212,1.8993696601
 C,0,-0.7908673594,1.0449061315,1.9293565247
 C,0,-0.1332037007,2.2826117228,1.3078652176
 C,0,0.5102069025,2.0463653457,-0.0428652323
 H,0,1.7754076581,-0.8005632553,0.5588175876
 H,0,-0.3118890549,-1.017049193,2.2051040653
 H,0,-0.8425812706,3.1056447251,1.1956864655
 H,0,0.6586522408,2.6522505588,1.9703817567
 O,0,0.9796227395,0.821005454,-0.3322303233
 O,0,0.6660781825,2.9396596183,-0.8523322808
 C,0,-0.0603008356,-1.3674382127,-0.3709620774
 C,0,0.5882935178,-1.7098395853,-1.7152638075
 C,0,1.4136420301,0.0659031664,2.8738338669
 O,0,-1.9087221746,0.6155400214,1.1448025355
 Si,0,-3.2525324482,1.3471171549,0.4339424802
 C,0,-4.0141409163,2.7098957997,1.4985407561
 C,0,-2.8083337882,2.0470006193,-1.2590764033
 C,0,-4.4819162869,-0.0645137957,0.2431517321
 H,0,-2.4536062169,1.2577622033,-1.9305687961
 H,0,-3.6937850659,2.5008596846,-1.7195253425
 H,0,-2.0275884772,2.8117086566,-1.2094860055
 H,0,-5.3905016877,0.278037876,-0.2646871232
 H,0,-4.0573784146,-0.8825613208,-0.3480252749
 H,0,-4.7750810664,-0.4709004468,1.2168339582
 H,0,-4.9142406187,3.0871378815,0.9984585991
 H,0,-4.3170187297,2.3405216353,2.4836642296
 H,0,-3.3460760485,3.5648595572,1.6463789704
 H,0,2.0697388883,-0.8085016958,2.8253276407
 H,0,2.0234958481,0.9415331674,2.6275192164
 H,0,1.0765121528,0.1612833974,3.9075651433
 H,0,-1.0630559537,-0.9600447469,-0.5167128482
 H,0,-0.1749281083,-2.2809477151,0.2262598533
 H,0,-0.0215543209,-2.4333855677,-2.2649526028
 H,0,0.7004285656,-0.8183669957,-2.3379311659
 H,0,1.5830948322,-2.1492129729,-1.5770676048
 C,0,-1.2771673,1.371997248,3.3647721142
 C,0,-1.9179850896,0.2134994296,4.078637328
 C,0,-1.6158684827,-0.1808296374,5.3168820367
 H,0,-2.003911187,2.1886464226,3.271794615
 H,0,-0.4479290814,1.7674795327,3.9593842053
 H,0,-2.6898850499,-0.3170954373,3.5235863145
 H,0,-2.1258890535,-1.0151069176,5.7896660199
 H,0,-0.8533291807,0.3214695817,5.9083711342
 Recover connectivity data from disk.
                          Input orientation:                          
 ---------------------------------------------------------------------
 Center     Atomic      Atomic             Coordinates (Angstroms)
 Number     Number       Type             X           Y           Z
 ---------------------------------------------------------------------
      1          6           0        0.763772   -0.387499    0.469827
      2          6           0        0.235494   -0.119024    1.899370
      3          6           0       -0.790867    1.044906    1.929357
      4          6           0       -0.133204    2.282612    1.307865
      5          6           0        0.510207    2.046365   -0.042865
      6          1           0        1.775408   -0.800563    0.558818
      7          1           0       -0.311889   -1.017049    2.205104
      8          1           0       -0.842581    3.105645    1.195686
      9          1           0        0.658652    2.652251    1.970382
     10          8           0        0.979623    0.821005   -0.332230
     11          8           0        0.666078    2.939660   -0.852332
     12          6           0       -0.060301   -1.367438   -0.370962
     13          6           0        0.588294   -1.709840   -1.715264
     14          6           0        1.413642    0.065903    2.873834
     15          8           0       -1.908722    0.615540    1.144803
     16         14           0       -3.252532    1.347117    0.433942
     17          6           0       -4.014141    2.709896    1.498541
     18          6           0       -2.808334    2.047001   -1.259076
     19          6           0       -4.481916   -0.064514    0.243152
     20          1           0       -2.453606    1.257762   -1.930569
     21          1           0       -3.693785    2.500860   -1.719525
     22          1           0       -2.027588    2.811709   -1.209486
     23          1           0       -5.390502    0.278038   -0.264687
     24          1           0       -4.057378   -0.882561   -0.348025
     25          1           0       -4.775081   -0.470900    1.216834
     26          1           0       -4.914241    3.087138    0.998459
     27          1           0       -4.317019    2.340522    2.483664
     28          1           0       -3.346076    3.564860    1.646379
     29          1           0        2.069739   -0.808502    2.825328
     30          1           0        2.023496    0.941533    2.627519
     31          1           0        1.076512    0.161283    3.907565
     32          1           0       -1.063056   -0.960045   -0.516713
     33          1           0       -0.174928   -2.280948    0.226260
     34          1           0       -0.021554   -2.433386   -2.264953
     35          1           0        0.700429   -0.818367   -2.337931
     36          1           0        1.583095   -2.149213   -1.577068
     37          6           0       -1.277167    1.371997    3.364772
     38          6           0       -1.917985    0.213499    4.078637
     39          6           0       -1.615868   -0.180830    5.316882
     40          1           0       -2.003911    2.188646    3.271795
     41          1           0       -0.447929    1.767480    3.959384
     42          1           0       -2.689885   -0.317095    3.523586
     43          1           0       -2.125889   -1.015107    5.789666
     44          1           0       -0.853329    0.321470    5.908371
 ---------------------------------------------------------------------
                    Distance matrix (angstroms):
                    1          2          3          4          5
     1  C    0.000000
     2  C    1.547498   0.000000
     3  C    2.568835   1.552111   0.000000
     4  C    2.938769   2.500734   1.533195   0.000000
     5  C    2.500169   2.921755   2.566198   1.514682   0.000000
     6  H    1.096334   2.152420   3.445272   3.702680   3.172973
     7  H    2.136484   1.095240   2.134740   3.424139   3.887636
     8  H    3.912710   3.472161   2.188056   1.092330   2.118046
     9  H    3.391577   2.804295   2.164797   1.096630   2.107676
    10  O    1.466414   2.533263   2.880893   2.462639   1.343723
    11  O    3.581569   4.136763   3.667502   2.395207   1.215528
    12  C    1.531764   2.607765   3.412418   4.018288   3.476662
    13  C    2.560078   3.964938   4.772208   5.059598   4.112431
    14  C    2.531236   1.540069   2.590434   3.123906   3.639445
    15  O    2.933241   2.388853   1.431600   2.440939   3.051071
    16  Si   4.375029   4.057508   2.896099   3.371810   3.856747
    17  C    5.786238   5.120825   3.653394   3.909041   4.825550
    18  C    4.655731   4.892068   3.903904   3.714973   3.534386
    19  C    5.260508   4.999999   4.206892   5.055088   5.427606
    20  H    4.338237   4.878035   4.208210   4.113641   3.601320
    21  H    5.745058   5.949742   4.884780   4.678725   4.548769
    22  H    4.565820   4.834844   3.808333   3.194635   2.896059
    23  H    6.233581   6.040913   5.153499   5.842125   6.163972
    24  H    4.915023   4.905357   4.423991   5.306547   5.434572
    25  H    5.589621   5.069076   4.321958   5.397883   5.988133
    26  H    6.677752   6.132771   4.694623   4.858118   5.620693
    27  H    6.108361   5.207316   3.797317   4.346282   5.456371
    28  H    5.822050   5.144186   3.599907   3.475816   4.475521
    29  H    2.726019   2.167310   3.524337   4.087864   4.336927
    30  H    2.829994   2.202711   2.901509   2.862050   3.262154
    31  H    3.495284   2.195161   2.860281   3.566775   4.413631
    32  H    2.153687   2.868972   3.174456   3.835170   3.426104
    33  H    2.127353   2.764355   3.786981   4.690169   4.389473
    34  H    3.504484   4.771155   5.502961   5.917611   5.028778
    35  H    2.841331   4.319718   4.889325   4.858276   3.675623
    36  H    2.822181   4.245387   5.304065   5.559639   4.594316
    37  C    3.954993   2.580444   1.550450   2.523636   3.906593
    38  C    4.536136   3.081761   2.565354   3.891510   5.122724
    39  C    5.403642   3.887255   3.695725   4.933463   6.181220
    40  H    4.706125   3.496259   2.140504   2.713926   4.162692
    41  H    4.276583   2.875695   2.181910   2.719369   4.124779
    42  H    4.610656   3.351888   2.828937   4.266675   5.342856
    43  H    6.086437   4.638265   4.574705   5.910354   7.095071
    44  H    5.717990   4.177519   4.044727   5.052654   6.344424
                    6          7          8          9         10
     6  H    0.000000
     7  H    2.667196   0.000000
     8  H    4.745306   4.277518   0.000000
     9  H    3.893787   3.802737   1.749120   0.000000
    10  O    2.014131   3.388881   3.297656   2.959477   0.000000
    11  O    4.148641   5.095084   2.549115   2.837318   2.203976
    12  C    2.134400   2.611931   4.803626   4.707089   2.423268
    13  C    2.721667   4.081614   5.806025   5.711109   2.910515
    14  C    2.498187   2.144165   4.140864   2.841730   3.322258
    15  O    3.990180   2.517829   2.709219   3.379524   3.250597
    16  Si   5.468849   4.168175   3.079048   4.400157   4.333007
    17  C    6.835589   5.300568   3.210472   4.696909   5.644228
    18  C    5.694211   5.255586   3.318248   4.776580   4.087875
    19  C    6.308369   4.705923   4.919551   6.065441   5.562699
    20  H    5.321495   5.183195   3.972851   5.181522   3.812152
    21  H    6.782500   6.262238   4.122328   5.708068   5.156281
    22  H    5.535177   5.409477   2.697313   4.165678   3.711576
    23  H    7.293271   5.793913   5.550823   6.872022   6.393580
    24  H    5.903430   4.534892   5.350117   6.333313   5.317309
    25  H    6.591704   4.603807   5.315701   6.312477   6.097970
    26  H    7.749768   6.283469   4.076475   5.673702   6.453194
    27  H    7.119628   5.233731   3.783651   5.011780   6.188102
    28  H    6.816840   5.523799   2.584857   4.120156   5.491384
    29  H    2.285555   2.469883   5.143723   3.833915   3.716695
    30  H    2.715874   3.077093   3.866254   2.284991   3.140751
    31  H    3.553550   2.492890   4.439197   3.183112   4.291909
    32  H    3.039585   2.824144   4.417098   4.711539   2.716378
    33  H    2.471021   2.352025   5.513704   5.298421   3.356637
    34  H    3.724092   4.698054   6.582626   6.653152   3.915205
    35  H    3.089830   4.658694   5.501382   5.532494   2.605442
    36  H    2.533347   4.379222   6.417601   6.040947   3.276583
    37  C    4.680984   2.825621   2.810575   2.707540   4.366294
    38  C    5.201789   2.757521   4.222843   4.126901   5.312339
    39  C    5.875713   3.476030   5.327583   4.939519   6.297040
    40  H    5.529816   3.778525   2.549470   2.999641   4.874517
    41  H    4.806446   3.293874   3.095878   2.442022   4.620787
    42  H    5.381676   2.807703   4.532858   4.737316   5.443150
    43  H    6.529006   4.017423   6.303342   5.982484   7.105852
    44  H    6.065224   3.974793   5.473677   4.819376   6.523370
                   11         12         13         14         15
    11  O    0.000000
    12  C    4.394364   0.000000
    13  C    4.729540   1.531359   0.000000
    14  C    4.764624   3.841312   4.989417   0.000000
    15  O    4.002459   3.105866   4.452242   3.785466   0.000000
    16  Si   4.421109   4.266969   5.358733   5.419203   1.687114
    17  C    5.242504   5.979343   7.144579   6.192169   2.990693
    18  C    3.610238   4.472005   5.085178   6.231434   2.938880
    19  C    6.060280   4.650315   5.678866   6.457175   2.810120
    20  H    3.704565   3.879686   4.255135   6.281594   3.188614
    21  H    4.466876   5.475816   6.005514   7.287920   3.865909
    22  H    2.720252   4.694530   5.248147   6.004583   3.221795
    23  H    6.641665   5.579420   6.465433   7.496111   3.771387
    24  H    6.097109   4.026445   4.912840   6.419659   3.014891
    25  H    6.746820   5.055099   6.236822   6.429160   3.066195
    26  H    5.881083   6.728989   7.788014   7.258580   3.894015
    27  H    6.026532   6.325939   7.622238   6.177912   3.250847
    28  H    4.767789   6.260475   7.389341   6.033594   3.319044
    29  H    5.435454   3.881462   4.860459   1.094258   4.547550
    30  H    4.236090   4.320237   5.286714   1.095135   4.215099
    31  H    5.526704   4.683495   5.946063   1.091492   4.092778
    32  H    4.279047   1.092122   2.173861   4.322315   2.440953
    33  H    5.396795   1.097412   2.162911   3.878262   3.498486
    34  H    5.598031   2.173694   1.094345   5.891804   4.948109
    35  H    4.041157   2.179256   1.093166   5.334145   4.581833
    36  H    5.221378   2.183257   1.096256   4.974533   5.219696
    37  C    4.900790   4.789674   6.227714   3.031065   2.428859
    38  C    6.198693   5.074376   6.599239   3.545853   2.961268
    39  C    7.280380   6.014932   7.526439   3.899653   4.257489
    40  H    4.970039   5.449132   6.840210   4.042781   2.647229
    41  H    5.076183   5.360025   6.735513   2.745766   3.373833
    42  H    6.404499   4.815126   6.334962   4.172266   2.671823
    43  H    8.218966   6.507237   8.010831   4.711575   4.927568
    44  H    7.407471   6.550674   8.020243   3.796431   4.887936
                   16         17         18         19         20
    16  Si   0.000000
    17  C    1.889599   0.000000
    18  C    1.885063   3.081859   0.000000
    19  C    1.881618   3.080936   3.084811   0.000000
    20  H    2.497435   4.037667   1.095277   3.253846   0.000000
    21  H    2.482589   3.240721   1.096369   3.324815   1.768580
    22  H    2.519201   3.360084   1.093984   4.050498   1.765276
    23  H    2.490367   3.304130   3.284148   1.095796   3.515733
    24  H    2.496140   4.039483   3.312470   1.094954   3.107654
    25  H    2.497251   3.282660   4.042036   1.095058   4.275940
    26  H    2.471361   1.096619   3.257790   3.269603   4.240347
    27  H    2.514228   1.094824   4.046034   3.291091   4.912243
    28  H    2.529256   1.095048   3.321857   4.053582   4.348995
    29  H    6.220288   7.152138   6.973653   7.081337   6.881035
    30  H    5.728242   6.391773   6.298751   7.001266   6.396922
    31  H    5.675639   6.181713   6.733657   6.661459   6.909979
    32  H    3.319721   5.122364   3.555196   3.614966   2.975111
    33  H    4.762104   6.423922   5.279412   4.843863   4.729350
    34  H    5.658220   7.520504   5.371386   5.638880   4.432974
    35  H    5.291361   7.028109   4.656788   5.838406   3.797919
    36  H    6.296966   8.024921   6.082267   6.666598   5.294091
    37  C    3.534466   3.572648   4.917324   4.698776   5.425651
    38  C    4.043502   4.157254   5.713636   4.621903   6.122739
    39  C    5.371814   5.356093   7.044745   5.828422   7.436188
    40  H    3.212574   2.730779   4.603906   4.515520   5.304089
    41  H    4.524516   4.434159   5.734281   5.782701   6.242924
    42  H    3.554163   3.875195   5.336370   3.746522   5.681885
    43  H    5.960973   5.987896   7.715374   6.100681   8.054524
    44  H    6.064445   5.928062   7.627044   6.738719   8.055216
                   21         22         23         24         25
    21  H    0.000000
    22  H    1.770022   0.000000
    23  H    3.152196   4.315242   0.000000
    24  H    3.668890   4.302301   1.769507   0.000000
    25  H    4.315410   4.920495   1.770468   1.770126   0.000000
    26  H    3.036556   3.644673   3.116634   4.278521   3.567449
    27  H    4.252168   4.370683   3.599950   4.298156   3.117495
    28  H    3.547155   3.234441   4.316833   4.925764   4.302781
    29  H    8.051445   6.795126   8.147635   6.900523   7.039374
    30  H    7.349530   5.884849   7.985765   7.011292   7.085595
    31  H    7.739089   6.545564   7.696986   6.749555   6.471540
    32  H    4.510582   3.954286   4.508121   3.000071   4.125964
    33  H    6.247729   5.606145   5.830235   4.166378   5.041718
    34  H    6.174913   5.713948   6.338649   4.729434   6.210491
    35  H    5.541553   4.678987   6.526858   5.157574   6.537453
    36  H    7.034837   6.146779   7.499663   5.910151   7.144860
    37  C    5.741468   4.853837   5.593679   5.157274   4.499479
    38  C    6.481063   5.892958   5.561205   5.037231   4.101380
    39  C    7.811544   7.191542   6.753690   6.208428   5.184126
    40  H    5.278866   4.524449   5.256056   5.172247   4.356080
    41  H    6.582054   5.504812   6.670100   6.213261   5.590722
    42  H    6.036465   5.712270   4.690259   4.144776   3.113327
    43  H    8.438500   7.977613   6.998936   6.435796   5.312737
    44  H    8.426312   7.631780   7.661232   7.131488   6.165915
                   26         27         28         29         30
    26  H    0.000000
    27  H    1.766337   0.000000
    28  H    1.762714   1.772789   0.000000
    29  H    8.203013   7.129078   7.060259   0.000000
    30  H    7.442422   6.494612   6.056136   1.761786   0.000000
    31  H    7.274108   5.988885   6.021344   1.760176   1.773157
    32  H    5.788528   5.521257   5.510527   4.583296   4.798854
    33  H    7.202341   6.603845   6.800469   3.736547   4.580775
    34  H    8.066251   7.986900   7.894929   5.738006   6.285586
    35  H    7.609795   7.642064   7.173674   5.341755   5.431708
    36  H    8.733159   8.453319   8.205971   4.627679   5.236909
    37  C    4.665774   3.309847   3.470145   4.030801   3.409284
    38  C    5.169414   3.580995   4.380290   4.303163   4.262751
    39  C    6.340950   4.656238   5.522354   4.492830   4.662332
    40  H    3.800705   2.448404   2.517408   5.077091   4.265019
    41  H    5.518742   4.180428   4.120658   3.776297   2.926430
    42  H    4.786735   3.285107   4.361659   4.835604   4.960145
    43  H    6.896302   5.195281   6.295377   5.141331   5.571805
    44  H    6.946018   5.272792   5.907448   4.396171   4.407334
                   31         32         33         34         35
    31  H    0.000000
    32  H    5.040770   0.000000
    33  H    4.591580   1.756577   0.000000
    34  H    6.785133   2.512330   2.500580   0.000000
    35  H    6.333039   2.539052   3.079037   1.770556   0.000000
    36  H    5.972957   3.088784   2.521902   1.768852   1.768944
    37  C    2.701899   4.533232   4.940567   6.910232   6.421013
    38  C    2.999834   4.819269   4.909310   7.130469   7.006653
    39  C    3.058125   5.911312   5.692209   8.068461   8.022958
    40  H    3.742113   5.015202   5.709442   7.479872   6.915534
    41  H    2.215056   5.277614   5.513666   7.521398   6.903731
    42  H    3.816023   4.402723   4.588473   6.716089   6.789911
    43  H    3.896354   6.395550   6.029933   8.444917   8.607242
    44  H    2.784452   6.554996   6.286429   8.665120   8.468465
                   36         37         38         39         40
    36  H    0.000000
    37  C    6.708338   0.000000
    38  C    7.058822   1.504117   0.000000
    39  C    7.850761   2.517285   1.334174   0.000000
    40  H    7.429341   1.097141   2.135318   3.153946   0.000000
    41  H    7.079395   1.094352   2.142461   2.646279   1.752496
    42  H    6.901571   2.207720   1.088780   2.094753   2.610115
    43  H    8.325354   3.506951   2.116676   1.086124   4.076591
    44  H    8.250590   2.784447   2.119688   1.087948   3.429537
                   41         42         43         44
    41  H    0.000000
    42  H    3.092206   0.000000
    43  H    3.729379   2.437299   0.000000
    44  H    2.460456   3.076996   1.849307   0.000000
 Stoichiometry    C14H26O3Si
 Framework group  C1[X(C14H26O3Si)]
 Deg. of freedom   126
 Full point group                 C1      NOp   1
 Largest Abelian subgroup         C1      NOp   1
 Largest concise Abelian subgroup C1      NOp   1
                         Standard orientation:                         
 ---------------------------------------------------------------------
 Center     Atomic      Atomic             Coordinates (Angstroms)
 Number     Number       Type             X           Y           Z
 ---------------------------------------------------------------------
      1          6           0        2.114338    0.689370    0.515291
      2          6           0        0.864269    1.578992    0.313681
      3          6           0       -0.266651    0.828220   -0.438921
      4          6           0        0.300396    0.308735   -1.765300
      5          6           0        1.594843   -0.467662   -1.639296
      6          1           0        2.990243    1.347360    0.557590
      7          1           0        0.472395    1.799970    1.312258
      8          1           0       -0.415470   -0.326996   -2.291195
      9          1           0        0.506449    1.152485   -2.434796
     10          8           0        2.424022   -0.185139   -0.620359
     11          8           0        1.935224   -1.298723   -2.458434
     12          6           0        2.122684   -0.168824    1.784044
     13          6           0        3.443424   -0.911000    2.007386
     14          6           0        1.264366    2.915398   -0.338816
     15          8           0       -0.659361   -0.258565    0.406156
     16         14           0       -1.553560   -1.678394    0.230514
     17          6           0       -3.063334   -1.479163   -0.888178
     18          6           0       -0.465056   -3.070616   -0.425488
     19          6           0       -2.115204   -2.073129    1.982435
     20          1           0        0.368029   -3.273394    0.256041
     21          1           0       -1.051689   -3.992457   -0.515467
     22          1           0       -0.038931   -2.847681   -1.408096
     23          1           0       -2.668928   -3.018361    2.008818
     24          1           0       -1.260801   -2.167794    2.660636
     25          1           0       -2.770991   -1.289381    2.375925
     26          1           0       -3.622570   -2.422421   -0.897868
     27          1           0       -3.741958   -0.699548   -0.527193
     28          1           0       -2.802545   -1.249165   -1.926552
     29          1           0        2.034083    3.402891    0.267224
     30          1           0        1.681085    2.779813   -1.342451
     31          1           0        0.420657    3.604510   -0.406887
     32          1           0        1.285368   -0.869118    1.749103
     33          1           0        1.932903    0.507620    2.627086
     34          1           0        3.410875   -1.485266    2.938380
     35          1           0        3.649910   -1.604647    1.188100
     36          1           0        4.285928   -0.212930    2.075662
     37          6           0       -1.499703    1.728196   -0.710070
     38          6           0       -2.120852    2.314032    0.528211
     39          6           0       -2.434573    3.600857    0.688458
     40          1           0       -2.238327    1.102015   -1.225870
     41          1           0       -1.233523    2.525950   -1.410315
     42          1           0       -2.328828    1.610425    1.332651
     43          1           0       -2.899593    3.964818    1.600024
     44          1           0       -2.246687    4.337806   -0.089511
 ---------------------------------------------------------------------
 Rotational constants (GHZ):      0.3955046      0.3555673      0.2705130
 Standard basis: 6-311G(d) (5D, 7F)
 There are   428 symmetry adapted cartesian basis functions of A   symmetry.
 There are   410 symmetry adapted basis functions of A   symmetry.
   410 basis functions,   720 primitive gaussians,   428 cartesian basis functions
    74 alpha electrons       74 beta electrons
       nuclear repulsion energy      1658.6777776015 Hartrees.
 NAtoms=   44 NActive=   44 NUniq=   44 SFac= 1.00D+00 NAtFMM=   60 NAOKFM=F Big=F
 Integral buffers will be    131072 words long.
 Raffenetti 2 integral format.
 Two-electron integral symmetry is turned on.
 ------------------------------------------------------------------------------
 Polarizable Continuum Model (PCM)
 =================================
 Model                : PCM (using non-symmetric T matrix).
 Atomic radii         : UFF (Universal Force Field).
 Polarization charges : Total charges.
 Charge compensation  : None.
 Solution method      : On-the-fly selection.
 Cavity type          : Scaled VdW (van der Waals Surface) (Alpha=1.100).
 Cavity algorithm     : GePol (No added spheres)
                        Default sphere list used, NSphG=   44.
                        Lebedev-Laikov grids with approx.  5.0 points / Ang**2.
                        Smoothing algorithm: Karplus/York (Gamma=1.0000).
                        Polarization charges: spherical gaussians, with
                                              point-specific exponents (IZeta= 3).
                        Self-potential: point-specific (ISelfS= 7).
                        Self-field    : sphere-specific E.n sum rule (ISelfD= 2).
 Solvent              : Chloroform, Eps=   4.711300 Eps(inf)=   2.090627
 ------------------------------------------------------------------------------
 One-electron integrals computed using PRISM.
 NBasis=   410 RedAO= T EigKep=  1.09D-03  NBF=   410
 NBsUse=   410 1.00D-06 EigRej= -1.00D+00 NBFU=   410
 ExpMin= 6.54D-02 ExpMax= 6.94D+04 ExpMxC= 2.33D+03 IAcc=2 IRadAn=         4 AccDes= 0.00D+00
 Harris functional with IExCor=  908 and IRadAn=       4 diagonalized for initial guess.
 HarFok:  IExCor=  908 AccDes= 0.00D+00 IRadAn=         4 IDoV= 1 UseB2=F ITyADJ=14
 ICtDFT=  3500011 ScaDFX=  1.000000  1.000000  1.000000  1.000000
 FoFCou: FMM=F IPFlag=           0 FMFlag=      100000 FMFlg1=           0
         NFxFlg=           0 DoJE=T BraDBF=F KetDBF=T FulRan=T
         wScrn=  0.000000 ICntrl=     500 IOpCl=  0 I1Cent=   200000004 NGrid=           0
         NMat0=    1 NMatS0=      1 NMatT0=    0 NMatD0=    1 NMtDS0=    0 NMtDT0=    0
 Petite list used in FoFCou.
 Requested convergence on RMS density matrix=1.00D-08 within 128 cycles.
 Requested convergence on MAX density matrix=1.00D-06.
 Requested convergence on             energy=1.00D-06.
 No special actions if energy rises.
 Inv3:  Mode=1 IEnd=    24590307.
 Iteration    1 A*A^-1 deviation from unit magnitude is 8.44D-15 for   2848.
 Iteration    1 A*A^-1 deviation from orthogonality  is 3.93D-15 for   2848    880.
 Iteration    1 A^-1*A deviation from unit magnitude is 8.22D-15 for   2848.
 Iteration    1 A^-1*A deviation from orthogonality  is 4.71D-12 for   2125   2075.
 Error on total polarization charges =  0.01132
 SCF Done:  E(RmPW1PW91) =  -1064.38202188     A.U. after   12 cycles
            NFock= 12  Conv=0.85D-08     -V/T= 2.0036
 DoSCS=F DFT=T ScalE2(SS,OS)=  1.000000  1.000000
 Range of M.O.s used for correlation:     1   410
 NBasis=   410 NAE=    74 NBE=    74 NFC=     0 NFV=     0
 NROrb=    410 NOA=    74 NOB=    74 NVA=   336 NVB=   336
 NEqPCM:  Using equilibrium solvation (IEInf=0, Eps=   4.7113, EpsInf=   2.0906)
          Differentiating once with respect to magnetic field using GIAOs.
          Electric field/nuclear overlap derivatives assumed to be zero.
 FoFJK:  IHMeth= 1 ICntrl=    6127 DoSepK=F KAlg= 0 I1Cent=   0 FoldK=F
 IRaf=         1 NMat=   1 IRICut=       1 DoRegI=T DoRafI=F ISym2E= 0.
          There are     3 degrees of freedom in the 1st order CPHF.  IDoFFX=0 NUNeed=     3.
      3 vectors produced by pass  0 Test12= 8.29D-13 3.33D-08 XBig12= 2.83D+01 8.13D-01.
 AX will form     3 AO Fock derivatives at one time.
      3 vectors produced by pass  1 Test12= 8.29D-13 3.33D-08 XBig12= 7.11D-02 9.22D-02.
      3 vectors produced by pass  2 Test12= 8.29D-13 3.33D-08 XBig12= 5.11D-04 7.55D-03.
      3 vectors produced by pass  3 Test12= 8.29D-13 3.33D-08 XBig12= 2.77D-06 4.07D-04.
      3 vectors produced by pass  4 Test12= 8.29D-13 3.33D-08 XBig12= 1.03D-08 2.61D-05.
      3 vectors produced by pass  5 Test12= 8.29D-13 3.33D-08 XBig12= 3.33D-11 9.88D-07.
      2 vectors produced by pass  6 Test12= 8.29D-13 3.33D-08 XBig12= 1.03D-13 4.81D-08.
 InvSVY:  IOpt=1 It=  1 EMax= 8.88D-16
 Solved reduced A of dimension    20 with     3 vectors.
 Calculating GIAO nuclear magnetic shielding tensors.
 SCF GIAO Magnetic shielding tensor (ppm):
      1  C    Isotropic =    94.3038   Anisotropy =    35.1993
   XX=    79.1312   YX=   -10.7791   ZX=    -1.3249
   XY=    -5.9884   YY=    99.6799   ZY=    16.9060
   XZ=     5.1270   YZ=    13.6443   ZZ=   104.1002
   Eigenvalues:    74.0987    91.0427   117.7700
      2  C    Isotropic =   144.9368   Anisotropy =    12.0064
   XX=   145.1584   YX=     7.1568   ZX=     1.1146
   XY=     2.0620   YY=   142.9902   ZY=    -8.2801
   XZ=     6.4898   YZ=    -7.5248   ZZ=   146.6618
   Eigenvalues:   133.6197   148.2496   152.9411
      3  C    Isotropic =   105.3574   Anisotropy =    55.4783
   XX=    95.2007   YX=    14.9762   ZX=    -5.1195
   XY=    15.2762   YY=   120.9380   ZY=   -26.1167
   XZ=    -1.9182   YZ=   -24.4492   ZZ=    99.9334
   Eigenvalues:    80.3739    93.3552   142.3429
      4  C    Isotropic =   146.2902   Anisotropy =    34.3680
   XX=   155.8863   YX=    -9.4567   ZX=    -7.2912
   XY=   -16.8408   YY=   142.4080   ZY=    11.6537
   XZ=   -12.1856   YZ=     3.5802   ZZ=   140.5763
   Eigenvalues:   133.4462   136.2221   169.2022
      5  C    Isotropic =    13.2929   Anisotropy =    98.7718
   XX=   -27.3709   YX=    18.2311   ZX=   -63.9743
   XY=    13.3233   YY=    58.7426   ZY=   -15.6807
   XZ=   -71.9763   YZ=    -8.5529   ZZ=     8.5069
   Eigenvalues:   -79.9260    40.6639    79.1407
      6  H    Isotropic =    27.8269   Anisotropy =     3.8223
   XX=    28.8124   YX=     0.5282   ZX=     1.7392
   XY=     1.5178   YY=    29.2925   ZY=    -0.4728
   XZ=     2.0588   YZ=     0.0952   ZZ=    25.3759
   Eigenvalues:    24.4596    28.6461    30.3751
      7  H    Isotropic =    30.2300   Anisotropy =     2.2232
   XX=    29.4994   YX=    -1.3482   ZX=    -0.2812
   XY=    -0.8157   YY=    29.6592   ZY=     0.1062
   XZ=    -0.7839   YZ=    -0.0615   ZZ=    31.5315
   Eigenvalues:    28.4478    30.5301    31.7122
      8  H    Isotropic =    29.7541   Anisotropy =     3.4622
   XX=    30.0363   YX=     1.9232   ZX=     0.6106
   XY=     0.9036   YY=    29.0123   ZY=     1.4371
   XZ=    -0.7868   YZ=     2.5881   ZZ=    30.2138
   Eigenvalues:    27.0249    30.1753    32.0622
      9  H    Isotropic =    29.6741   Anisotropy =     6.2808
   XX=    26.6509   YX=     0.5339   ZX=    -1.5769
   XY=     0.3871   YY=    29.7849   ZY=    -1.9217
   XZ=    -1.4202   YZ=    -1.8358   ZZ=    32.5866
   Eigenvalues:    26.2940    28.8671    33.8613
     10  O    Isotropic =   106.5212   Anisotropy =   206.9437
   XX=   164.5306   YX=    92.6786   ZX=    69.9728
   XY=   106.4149   YY=    74.7137   ZY=  -155.0911
   XZ=    61.4676   YZ=  -150.6540   ZZ=    80.3193
   Eigenvalues:  -123.2555   198.3354   244.4837
     11  O    Isotropic =  -100.9936   Anisotropy =   562.0492
   XX=  -110.6322   YX=   108.9478   ZX=  -172.3078
   XY=   137.6751   YY=   -17.3058   ZY=  -266.5944
   XZ=  -154.6755   YZ=  -246.0707   ZZ=  -175.0428
   Eigenvalues:  -381.2505  -195.4361   273.7059
     12  C    Isotropic =   152.8791   Anisotropy =    24.6100
   XX=   145.1880   YX=    -7.7810   ZX=     2.2799
   XY=   -10.4252   YY=   150.1407   ZY=   -12.6046
   XZ=    -1.6709   YZ=    -6.5372   ZZ=   163.3088
   Eigenvalues:   136.9045   152.4471   169.2858
     13  C    Isotropic =   174.9002   Anisotropy =    23.1378
   XX=   186.3869   YX=    -6.4396   ZX=     5.8793
   XY=    -4.7110   YY=   172.5056   ZY=    -9.0542
   XZ=     3.3234   YZ=    -5.4883   ZZ=   165.8081
   Eigenvalues:   161.1174   173.2579   190.3254
     14  C    Isotropic =   169.4935   Anisotropy =    28.5144
   XX=   169.5176   YX=     6.5346   ZX=     2.0366
   XY=     4.3904   YY=   181.9377   ZY=   -11.5088
   XZ=     8.1638   YZ=   -15.9496   ZZ=   157.0251
   Eigenvalues:   148.6539   171.3234   188.5031
     15  O    Isotropic =   244.3562   Anisotropy =    40.0915
   XX=   248.5162   YX=    17.4479   ZX=     7.4418
   XY=    15.5050   YY=   231.3118   ZY=     7.0297
   XZ=    10.5323   YZ=    19.6337   ZZ=   253.2406
   Eigenvalues:   219.7054   242.2793   271.0839
     16  Si   Isotropic =   332.5032   Anisotropy =    40.6270
   XX=   331.2658   YX=    18.9337   ZX=    -0.7358
   XY=    21.9232   YY=   344.7785   ZY=    10.5840
   XZ=   -11.5904   YZ=    -5.0054   ZZ=   321.4653
   Eigenvalues:   311.8951   326.0266   359.5879
     17  C    Isotropic =   185.5423   Anisotropy =     8.5824
   XX=   187.7910   YX=    -0.7678   ZX=     6.0363
   XY=     2.0739   YY=   187.3399   ZY=    -1.4993
   XZ=     5.5300   YZ=    -2.1215   ZZ=   181.4959
   Eigenvalues:   177.6888   187.6742   191.2638
     18  C    Isotropic =   185.6892   Anisotropy =    10.4377
   XX=   188.4027   YX=    -0.6245   ZX=    -3.5679
   XY=    -1.9938   YY=   190.6221   ZY=     3.5004
   XZ=    -3.4640   YZ=     3.0403   ZZ=   178.0428
   Eigenvalues:   176.4188   188.0012   192.6477
     19  C    Isotropic =   186.5246   Anisotropy =    12.0117
   XX=   181.2740   YX=     3.9887   ZX=    -3.8073
   XY=     5.1111   YY=   185.1910   ZY=    -0.8918
   XZ=    -3.6174   YZ=    -0.0182   ZZ=   193.1087
   Eigenvalues:   177.7305   187.3107   194.5324
     20  H    Isotropic =    31.9998   Anisotropy =     7.3107
   XX=    34.1254   YX=    -1.4253   ZX=     3.6517
   XY=    -1.9776   YY=    31.5548   ZY=    -1.3860
   XZ=     3.0624   YZ=    -0.9272   ZZ=    30.3191
   Eigenvalues:    28.3556    30.7702    36.8736
     21  H    Isotropic =    32.3705   Anisotropy =    10.6778
   XX=    30.7021   YX=     3.3936   ZX=     0.2212
   XY=     3.1845   YY=    38.0359   ZY=     1.6148
   XZ=     0.0890   YZ=     1.4109   ZZ=    28.3736
   Eigenvalues:    28.0676    29.5549    39.4891
     22  H    Isotropic =    31.8264   Anisotropy =     7.6876
   XX=    30.2300   YX=     1.5282   ZX=    -4.2813
   XY=     1.4300   YY=    31.2559   ZY=     0.1393
   XZ=    -4.2277   YZ=    -0.6533   ZZ=    33.9934
   Eigenvalues:    27.1568    31.3709    36.9515
     23  H    Isotropic =    32.3271   Anisotropy =    10.3770
   XX=    31.3703   YX=     4.6353   ZX=    -1.7421
   XY=     4.7178   YY=    35.4264   ZY=    -2.2012
   XZ=    -1.5484   YZ=    -1.8705   ZZ=    30.1844
   Eigenvalues:    28.2486    29.4875    39.2450
     24  H    Isotropic =    31.8993   Anisotropy =     7.9033
   XX=    32.9133   YX=     0.2434   ZX=     2.8037
   XY=     0.3337   YY=    28.3759   ZY=    -2.0113
   XZ=     3.6165   YZ=    -1.8660   ZZ=    34.4087
   Eigenvalues:    27.4773    31.0524    37.1681
     25  H    Isotropic =    31.9240   Anisotropy =     8.4185
   XX=    31.7570   YX=    -2.9229   ZX=    -3.7253
   XY=    -2.6486   YY=    32.0717   ZY=     1.2564
   XZ=    -3.9439   YZ=     2.1368   ZZ=    31.9434
   Eigenvalues:    27.7972    30.4385    37.5364
     26  H    Isotropic =    32.1762   Anisotropy =    10.4674
   XX=    33.2842   YX=     4.8038   ZX=     1.5719
   XY=     5.1677   YY=    34.5448   ZY=     0.7773
   XZ=     1.3258   YZ=     0.6534   ZZ=    28.6995
   Eigenvalues:    28.0470    29.3271    39.1544
     27  H    Isotropic =    31.8992   Anisotropy =     7.5947
   XX=    34.5784   YX=    -3.1126   ZX=    -0.7099
   XY=    -2.8547   YY=    32.7534   ZY=     1.5386
   XZ=    -0.3655   YZ=     1.1271   ZZ=    28.3658
   Eigenvalues:    27.9756    30.7596    36.9624
     28  H    Isotropic =    31.8336   Anisotropy =     6.7443
   XX=    30.3477   YX=     1.2648   ZX=     0.9422
   XY=     1.4726   YY=    29.0447   ZY=    -1.1957
   XZ=    -0.1144   YZ=    -1.3125   ZZ=    36.1083
   Eigenvalues:    27.9776    31.1933    36.3297
     29  H    Isotropic =    31.1758   Anisotropy =    10.5947
   XX=    31.6947   YX=     4.2868   ZX=     3.2947
   XY=     4.9133   YY=    33.7175   ZY=     1.5276
   XZ=     2.3462   YZ=     1.2819   ZZ=    28.1152
   Eigenvalues:    26.3323    28.9561    38.2389
     30  H    Isotropic =    31.1824   Anisotropy =     7.9460
   XX=    29.3119   YX=     2.1559   ZX=    -3.2773
   XY=     2.4835   YY=    31.4206   ZY=    -2.2447
   XZ=    -3.0022   YZ=    -2.0048   ZZ=    32.8147
   Eigenvalues:    27.1857    29.8818    36.4798
     31  H    Isotropic =    31.0075   Anisotropy =     8.7915
   XX=    32.5782   YX=    -1.7805   ZX=    -0.3438
   XY=    -2.6712   YY=    35.3927   ZY=    -1.2494
   XZ=     1.1433   YZ=    -2.2244   ZZ=    25.0515
   Eigenvalues:    24.7674    31.3866    36.8684
     32  H    Isotropic =    29.6189   Anisotropy =     9.5696
   XX=    34.7370   YX=     2.0972   ZX=     3.2686
   XY=     2.1913   YY=    27.4295   ZY=    -2.8119
   XZ=     3.1247   YZ=    -3.1733   ZZ=    26.6901
   Eigenvalues:    22.8194    30.0386    35.9986
     33  H    Isotropic =    30.6684   Anisotropy =     6.1703
   XX=    29.3286   YX=    -3.0922   ZX=     0.8861
   XY=    -2.8476   YY=    28.6245   ZY=     2.0033
   XZ=     1.1219   YZ=     2.2362   ZZ=    34.0520
   Eigenvalues:    25.3958    31.8274    34.7819
     34  H    Isotropic =    31.0516   Anisotropy =    10.7176
   XX=    29.8138   YX=    -2.0800   ZX=     2.5518
   XY=    -1.7898   YY=    30.0982   ZY=    -5.5262
   XZ=     2.0875   YZ=    -4.8910   ZZ=    33.2430
   Eigenvalues:    26.2193    28.7389    38.1967
     35  H    Isotropic =    30.5807   Anisotropy =     6.9726
   XX=    30.2893   YX=    -4.0869   ZX=     0.0328
   XY=    -4.0692   YY=    31.0368   ZY=     2.5117
   XZ=     1.1880   YZ=     2.4516   ZZ=    30.4158
   Eigenvalues:    25.5889    30.9240    35.2291
     36  H    Isotropic =    31.2081   Anisotropy =    10.0140
   XX=    36.4357   YX=     2.8568   ZX=     2.6250
   XY=     1.8455   YY=    29.3994   ZY=     0.2734
   XZ=     2.9972   YZ=    -0.0921   ZZ=    27.7892
   Eigenvalues:    26.7952    28.9450    37.8841
     37  C    Isotropic =   141.1158   Anisotropy =    32.2988
   XX=   146.3067   YX=   -19.4520   ZX=    -8.6128
   XY=   -15.2832   YY=   138.1643   ZY=     2.0444
   XZ=    -5.7019   YZ=     5.0457   ZZ=   138.8764
   Eigenvalues:   124.1830   136.5161   162.6483
     38  C    Isotropic =    46.6493   Anisotropy =   179.0666
   XX=   132.2598   YX=     3.7253   ZX=    79.2259
   XY=     5.1277   YY=    45.3616   ZY=    36.6750
   XZ=    78.4982   YZ=    39.4834   ZZ=   -37.6736
   Eigenvalues:   -78.0099    51.9307   166.0270
     39  C    Isotropic =    65.9335   Anisotropy =   141.1329
   XX=   132.5011   YX=    -2.0967   ZX=    65.5091
   XY=     1.8324   YY=    83.2579   ZY=    28.3128
   XZ=    70.6949   YZ=    26.2340   ZZ=   -17.9586
   Eigenvalues:   -49.1319    86.9103   160.0221
     40  H    Isotropic =    29.6490   Anisotropy =     5.3287
   XX=    30.3962   YX=     1.6699   ZX=     2.5917
   XY=     0.3512   YY=    31.3816   ZY=     0.9996
   XZ=     2.2899   YZ=     2.0129   ZZ=    27.1692
   Eigenvalues:    25.7193    30.0261    33.2015
     41  H    Isotropic =    29.9154   Anisotropy =     5.6864
   XX=    29.2059   YX=    -1.3762   ZX=     0.3927
   XY=    -1.8001   YY=    31.7910   ZY=    -1.6256
   XZ=     0.8270   YZ=    -3.0838   ZZ=    28.7494
   Eigenvalues:    27.4278    28.6122    33.7064
     42  H    Isotropic =    25.6981   Anisotropy =     7.7313
   XX=    26.1003   YX=    -2.7471   ZX=    -1.9368
   XY=    -1.7550   YY=    28.2308   ZY=     1.9468
   XZ=    -1.8306   YZ=     3.0267   ZZ=    22.7631
   Eigenvalues:    21.5491    24.6928    30.8523
     43  H    Isotropic =    26.6888   Anisotropy =     7.0657
   XX=    26.5333   YX=    -2.0050   ZX=    -0.8736
   XY=    -2.7368   YY=    29.4213   ZY=     3.3289
   XZ=    -0.0900   YZ=     1.0830   ZZ=    24.1119
   Eigenvalues:    23.2642    25.4030    31.3993
     44  H    Isotropic =    26.7672   Anisotropy =     7.4611
   XX=    26.7031   YX=    -2.8898   ZX=     0.8092
   XY=    -1.8957   YY=    30.5667   ZY=    -0.3593
   XZ=     0.4883   YZ=     2.1230   ZZ=    23.0317
   Eigenvalues:    22.6786    25.8817    31.7412
 End of Minotr F.D. properties file   721 does not exist.
 End of Minotr F.D. properties file   722 does not exist.
 End of Minotr F.D. properties file   788 does not exist.

 **********************************************************************

            Population analysis using the SCF density.

 **********************************************************************

 Orbital symmetries:
       Occupied  (A) (A) (A) (A) (A) (A) (A) (A) (A) (A) (A) (A)
                 (A) (A) (A) (A) (A) (A) (A) (A) (A) (A) (A) (A)
                 (A) (A) (A) (A) (A) (A) (A) (A) (A) (A) (A) (A)
                 (A) (A) (A) (A) (A) (A) (A) (A) (A) (A) (A) (A)
                 (A) (A) (A) (A) (A) (A) (A) (A) (A) (A) (A) (A)
                 (A) (A) (A) (A) (A) (A) (A) (A) (A) (A) (A) (A)
                 (A) (A)
       Virtual   (A) (A) (A) (A) (A) (A) (A) (A) (A) (A) (A) (A)
                 (A) (A) (A) (A) (A) (A) (A) (A) (A) (A) (A) (A)
                 (A) (A) (A) (A) (A) (A) (A) (A) (A) (A) (A) (A)
                 (A) (A) (A) (A) (A) (A) (A) (A) (A) (A) (A) (A)
                 (A) (A) (A) (A) (A) (A) (A) (A) (A) (A) (A) (A)
                 (A) (A) (A) (A) (A) (A) (A) (A) (A) (A) (A) (A)
                 (A) (A) (A) (A) (A) (A) (A) (A) (A) (A) (A) (A)
                 (A) (A) (A) (A) (A) (A) (A) (A) (A) (A) (A) (A)
                 (A) (A) (A) (A) (A) (A) (A) (A) (A) (A) (A) (A)
                 (A) (A) (A) (A) (A) (A) (A) (A) (A) (A) (A) (A)
                 (A) (A) (A) (A) (A) (A) (A) (A) (A) (A) (A) (A)
                 (A) (A) (A) (A) (A) (A) (A) (A) (A) (A) (A) (A)
                 (A) (A) (A) (A) (A) (A) (A) (A) (A) (A) (A) (A)
                 (A) (A) (A) (A) (A) (A) (A) (A) (A) (A) (A) (A)
                 (A) (A) (A) (A) (A) (A) (A) (A) (A) (A) (A) (A)
                 (A) (A) (A) (A) (A) (A) (A) (A) (A) (A) (A) (A)
                 (A) (A) (A) (A) (A) (A) (A) (A) (A) (A) (A) (A)
                 (A) (A) (A) (A) (A) (A) (A) (A) (A) (A) (A) (A)
                 (A) (A) (A) (A) (A) (A) (A) (A) (A) (A) (A) (A)
                 (A) (A) (A) (A) (A) (A) (A) (A) (A) (A) (A) (A)
                 (A) (A) (A) (A) (A) (A) (A) (A) (A) (A) (A) (A)
                 (A) (A) (A) (A) (A) (A) (A) (A) (A) (A) (A) (A)
                 (A) (A) (A) (A) (A) (A) (A) (A) (A) (A) (A) (A)
                 (A) (A) (A) (A) (A) (A) (A) (A) (A) (A) (A) (A)
                 (A) (A) (A) (A) (A) (A) (A) (A) (A) (A) (A) (A)
                 (A) (A) (A) (A) (A) (A) (A) (A) (A) (A) (A) (A)
                 (A) (A) (A) (A) (A) (A) (A) (A) (A) (A) (A) (A)
                 (A) (A) (A) (A) (A) (A) (A) (A) (A) (A) (A) (A)
 The electronic state is 1-A.
 Alpha  occ. eigenvalues --  -66.27392 -19.25700 -19.20633 -19.19343 -10.36796
 Alpha  occ. eigenvalues --  -10.31809 -10.30224 -10.25280 -10.25242 -10.24279
 Alpha  occ. eigenvalues --  -10.24229 -10.23016 -10.22977 -10.22924 -10.21729
 Alpha  occ. eigenvalues --  -10.21084 -10.20664 -10.20406  -5.33123  -3.67013
 Alpha  occ. eigenvalues --   -3.66723  -3.66693  -1.12956  -1.04537  -1.03828
 Alpha  occ. eigenvalues --   -0.85759  -0.82846  -0.80796  -0.77678  -0.73917
 Alpha  occ. eigenvalues --   -0.72864  -0.71563  -0.70279  -0.69956  -0.67062
 Alpha  occ. eigenvalues --   -0.64084  -0.61339  -0.58070  -0.55231  -0.53791
 Alpha  occ. eigenvalues --   -0.52263  -0.50780  -0.49243  -0.48953  -0.47001
 Alpha  occ. eigenvalues --   -0.46049  -0.45138  -0.44369  -0.43676  -0.43070
 Alpha  occ. eigenvalues --   -0.42704  -0.42481  -0.42390  -0.41564  -0.41246
 Alpha  occ. eigenvalues --   -0.40840  -0.40469  -0.39912  -0.39576  -0.39321
 Alpha  occ. eigenvalues --   -0.38670  -0.37896  -0.36944  -0.36637  -0.35816
 Alpha  occ. eigenvalues --   -0.35186  -0.34063  -0.33044  -0.32344  -0.30456
 Alpha  occ. eigenvalues --   -0.29587  -0.29468  -0.28654  -0.26957
 Alpha virt. eigenvalues --    0.00684   0.00957   0.03777   0.05628   0.06263
 Alpha virt. eigenvalues --    0.06935   0.07104   0.08061   0.08734   0.09056
 Alpha virt. eigenvalues --    0.09251   0.09390   0.10480   0.11014   0.11402
 Alpha virt. eigenvalues --    0.12050   0.12573   0.13025   0.13560   0.14208
 Alpha virt. eigenvalues --    0.14471   0.14863   0.15023   0.15790   0.16212
 Alpha virt. eigenvalues --    0.16273   0.16580   0.16882   0.17685   0.17854
 Alpha virt. eigenvalues --    0.18981   0.19552   0.20526   0.20921   0.21908
 Alpha virt. eigenvalues --    0.22618   0.22968   0.23877   0.24099   0.24479
 Alpha virt. eigenvalues --    0.25241   0.25610   0.26289   0.27215   0.28041
 Alpha virt. eigenvalues --    0.29706   0.30861   0.31349   0.31387   0.32620
 Alpha virt. eigenvalues --    0.33353   0.33706   0.35190   0.35538   0.36120
 Alpha virt. eigenvalues --    0.36732   0.38941   0.39169   0.39749   0.40757
 Alpha virt. eigenvalues --    0.41653   0.42652   0.43897   0.44133   0.44507
 Alpha virt. eigenvalues --    0.45114   0.45550   0.46624   0.47912   0.49234
 Alpha virt. eigenvalues --    0.49848   0.50813   0.51931   0.52631   0.52960
 Alpha virt. eigenvalues --    0.53165   0.53805   0.54604   0.55244   0.56613
 Alpha virt. eigenvalues --    0.56871   0.57512   0.57817   0.58013   0.59041
 Alpha virt. eigenvalues --    0.59432   0.59894   0.60273   0.60526   0.61361
 Alpha virt. eigenvalues --    0.61683   0.62019   0.62588   0.63152   0.63467
 Alpha virt. eigenvalues --    0.63675   0.64504   0.64628   0.65294   0.65538
 Alpha virt. eigenvalues --    0.66356   0.66552   0.68009   0.68152   0.68526
 Alpha virt. eigenvalues --    0.69254   0.69892   0.70872   0.70948   0.71478
 Alpha virt. eigenvalues --    0.71915   0.72536   0.73148   0.74071   0.74593
 Alpha virt. eigenvalues --    0.76257   0.77516   0.77872   0.80517   0.82935
 Alpha virt. eigenvalues --    0.83290   0.83986   0.86168   0.86417   0.87698
 Alpha virt. eigenvalues --    0.90262   0.91534   0.92529   0.94045   0.94764
 Alpha virt. eigenvalues --    0.95686   0.96742   0.98728   1.00566   1.01809
 Alpha virt. eigenvalues --    1.03183   1.04315   1.05308   1.05574   1.08288
 Alpha virt. eigenvalues --    1.11703   1.12880   1.17096   1.18830   1.22239
 Alpha virt. eigenvalues --    1.23022   1.24887   1.26343   1.27310   1.27871
 Alpha virt. eigenvalues --    1.28783   1.31231   1.32313   1.32490   1.32904
 Alpha virt. eigenvalues --    1.34154   1.37622   1.39743   1.40350   1.40980
 Alpha virt. eigenvalues --    1.41832   1.43324   1.45269   1.47060   1.48139
 Alpha virt. eigenvalues --    1.50763   1.51872   1.52751   1.53301   1.53976
 Alpha virt. eigenvalues --    1.54508   1.55554   1.55943   1.57287   1.57956
 Alpha virt. eigenvalues --    1.59083   1.59992   1.60220   1.60544   1.60731
 Alpha virt. eigenvalues --    1.61816   1.62830   1.63905   1.64809   1.65799
 Alpha virt. eigenvalues --    1.66474   1.66904   1.68364   1.69386   1.70744
 Alpha virt. eigenvalues --    1.71014   1.71354   1.71777   1.72711   1.74313
 Alpha virt. eigenvalues --    1.75493   1.77460   1.79127   1.80953   1.81349
 Alpha virt. eigenvalues --    1.81802   1.82221   1.83985   1.84233   1.85991
 Alpha virt. eigenvalues --    1.88572   1.91247   1.94110   1.94720   1.96602
 Alpha virt. eigenvalues --    1.98634   2.02380   2.05375   2.09358   2.14604
 Alpha virt. eigenvalues --    2.15023   2.18860   2.21686   2.23161   2.25508
 Alpha virt. eigenvalues --    2.28247   2.30393   2.35323   2.37316   2.40684
 Alpha virt. eigenvalues --    2.41098   2.42190   2.42951   2.43382   2.43846
 Alpha virt. eigenvalues --    2.44496   2.44727   2.45450   2.45728   2.47349
 Alpha virt. eigenvalues --    2.48084   2.49064   2.49225   2.50679   2.52199
 Alpha virt. eigenvalues --    2.52751   2.54305   2.56845   2.58248   2.60634
 Alpha virt. eigenvalues --    2.62430   2.63316   2.66582   2.72537   2.78742
 Alpha virt. eigenvalues --    2.82303   2.87500   2.88244   2.91172   2.91397
 Alpha virt. eigenvalues --    2.91859   2.93255   2.94475   2.96015   2.98630
 Alpha virt. eigenvalues --    2.99209   2.99396   3.02264   3.05122   3.06350
 Alpha virt. eigenvalues --    3.10220   3.12093   3.13467   3.14095   3.15439
 Alpha virt. eigenvalues --    3.16424   3.17417   3.18563   3.19595   3.20616
 Alpha virt. eigenvalues --    3.22561   3.22999   3.23450   3.24071   3.24731
 Alpha virt. eigenvalues --    3.25903   3.27205   3.27730   3.28508   3.29259
 Alpha virt. eigenvalues --    3.34101   3.35660   3.36885   3.39871   3.43850
 Alpha virt. eigenvalues --    3.47164   3.50859   3.57278   3.59967   3.61316
 Alpha virt. eigenvalues --    3.77914   3.88760   3.89834   3.97756   4.02391
 Alpha virt. eigenvalues --    4.12363   4.14205   4.17149   4.22977   4.26103
 Alpha virt. eigenvalues --    4.97241   5.01578   5.04307   5.12829   5.17371
 Alpha virt. eigenvalues --    5.23856   5.53452   5.55152   5.77142   5.85969
 Alpha virt. eigenvalues --   11.52782  11.54628  11.56962  23.41669  23.49473
 Alpha virt. eigenvalues --   23.55092  23.56188  23.57119  23.61671  23.70028
 Alpha virt. eigenvalues --   23.73077  23.77766  23.79860  23.84877  23.85851
 Alpha virt. eigenvalues --   23.89041  24.29107  49.98739  50.06087  50.13573
 Alpha virt. eigenvalues --  141.28413
          Condensed to atoms (all electrons):
               1          2          3          4          5          6
     1  C    5.201045   0.292021  -0.057625  -0.014972  -0.043443   0.418159
     2  C    0.292021   5.569839   0.245484  -0.074426  -0.019409  -0.060007
     3  C   -0.057625   0.245484   5.236674   0.213450  -0.030204   0.007884
     4  C   -0.014972  -0.074426   0.213450   5.860997   0.257249  -0.002348
     5  C   -0.043443  -0.019409  -0.030204   0.257249   4.381382   0.001189
     6  H    0.418159  -0.060007   0.007884  -0.002348   0.001189   0.470834
     7  H   -0.043847   0.394980  -0.038052   0.008567   0.000056   0.000738
     8  H   -0.000342   0.006440  -0.023130   0.363069  -0.028138   0.000019
     9  H    0.001274  -0.003393  -0.027316   0.360771  -0.023399   0.000192
    10  O    0.201403  -0.032635   0.013572  -0.106337   0.350079  -0.028606
    11  O    0.003041  -0.000026   0.003792  -0.092888   0.646848  -0.000249
    12  C    0.303812  -0.051030  -0.007101   0.002193  -0.002083  -0.055902
    13  C   -0.075941   0.008167  -0.000449   0.000160   0.000069  -0.005004
    14  C   -0.084234   0.298030  -0.068396   0.002147   0.000596  -0.006234
    15  O    0.005314  -0.067229   0.221096  -0.049675   0.005483  -0.000199
    16  Si   0.000566   0.001966  -0.039128  -0.012625  -0.002171   0.000181
    17  C    0.000009  -0.000279   0.000578  -0.001622   0.000157   0.000000
    18  C    0.000092  -0.000072  -0.000893   0.002496  -0.003469  -0.000010
    19  C    0.000033  -0.000042   0.002168  -0.000067  -0.000052   0.000000
    20  H   -0.000128   0.000071   0.000228   0.000244   0.000152   0.000003
    21  H    0.000003   0.000002   0.000003   0.000000   0.000174   0.000000
    22  H   -0.000094   0.000113  -0.000904  -0.000730  -0.000405  -0.000009
    23  H   -0.000002   0.000001  -0.000053   0.000004   0.000000   0.000000
    24  H   -0.000033   0.000087  -0.000107  -0.000017  -0.000002   0.000002
    25  H    0.000003  -0.000006   0.000014  -0.000028   0.000001   0.000000
    26  H    0.000000   0.000008  -0.000048   0.000019  -0.000007   0.000000
    27  H    0.000003  -0.000091   0.000460   0.000118   0.000008   0.000000
    28  H    0.000005  -0.000064   0.000641   0.000656  -0.000012   0.000000
    29  H   -0.006411  -0.034875   0.007055  -0.000672   0.000043   0.004162
    30  H   -0.006319  -0.036124  -0.008643   0.005307  -0.001017  -0.001226
    31  H    0.007693  -0.034540  -0.008407  -0.000659  -0.000025   0.000598
    32  H   -0.032446  -0.007261   0.001808  -0.001065   0.001058   0.006579
    33  H   -0.044930  -0.004821   0.001794  -0.000162   0.000094  -0.000288
    34  H    0.007996  -0.000231   0.000005   0.000005  -0.000015  -0.000169
    35  H   -0.011625   0.000347   0.000024   0.000379   0.001086  -0.000027
    36  H   -0.003000  -0.000302   0.000010  -0.000016  -0.000081   0.005715
    37  C    0.008243  -0.082344   0.339273  -0.089914   0.004156  -0.000076
    38  C   -0.000126  -0.015534  -0.059144   0.009465  -0.000160  -0.000021
    39  C   -0.000002   0.000398  -0.002911  -0.000013  -0.000001  -0.000001
    40  H   -0.000189   0.008461  -0.047372  -0.006610  -0.000030   0.000014
    41  H   -0.000096  -0.003137  -0.030602  -0.002848  -0.000122  -0.000005
    42  H   -0.000095  -0.001358  -0.002505   0.000149   0.000003   0.000002
    43  H   -0.000001   0.000013  -0.000358   0.000014   0.000000   0.000000
    44  H    0.000001  -0.000115   0.000314  -0.000062   0.000001   0.000000
               7          8          9         10         11         12
     1  C   -0.043847  -0.000342   0.001274   0.201403   0.003041   0.303812
     2  C    0.394980   0.006440  -0.003393  -0.032635  -0.000026  -0.051030
     3  C   -0.038052  -0.023130  -0.027316   0.013572   0.003792  -0.007101
     4  C    0.008567   0.363069   0.360771  -0.106337  -0.092888   0.002193
     5  C    0.000056  -0.028138  -0.023399   0.350079   0.646848  -0.002083
     6  H    0.000738   0.000019   0.000192  -0.028606  -0.000249  -0.055902
     7  H    0.445616  -0.000047  -0.000138   0.002896   0.000018  -0.000240
     8  H   -0.000047   0.414363  -0.018208   0.004132   0.008761   0.000142
     9  H   -0.000138  -0.018208   0.423267   0.000377   0.000548  -0.000151
    10  O    0.002896   0.004132   0.000377   8.038087  -0.076508  -0.053621
    11  O    0.000018   0.008761   0.000548  -0.076508   7.890753  -0.000191
    12  C   -0.000240   0.000142  -0.000151  -0.053621  -0.000191   5.347987
    13  C    0.000184   0.000002  -0.000006  -0.003803   0.000001   0.311165
    14  C   -0.035307   0.000050  -0.000061   0.000573   0.000025   0.007387
    15  O    0.001091  -0.004398   0.004213  -0.001966   0.000032  -0.003996
    16  Si  -0.000038   0.001831   0.001954   0.001565  -0.002806  -0.000104
    17  C    0.000000   0.002077  -0.000086  -0.000001   0.000007  -0.000002
    18  C    0.000030   0.000261  -0.000017   0.000069  -0.003048  -0.000305
    19  C   -0.000046  -0.000053   0.000013   0.000003   0.000000  -0.000477
    20  H   -0.000001  -0.000093  -0.000016   0.000284   0.000012   0.000033
    21  H   -0.000001  -0.000052  -0.000001   0.000000  -0.000009   0.000000
    22  H   -0.000002   0.002916   0.000114  -0.000521   0.014875   0.000166
    23  H    0.000002   0.000006   0.000000   0.000000   0.000000   0.000003
    24  H    0.000010  -0.000003   0.000001  -0.000001   0.000000   0.000270
    25  H   -0.000028  -0.000007   0.000002   0.000001   0.000000   0.000003
    26  H    0.000001   0.000051  -0.000001   0.000000   0.000000   0.000000
    27  H   -0.000009  -0.000329   0.000012   0.000000   0.000000   0.000000
    28  H    0.000000   0.003031  -0.000074  -0.000003  -0.000073   0.000000
    29  H   -0.004631   0.000013   0.000201   0.000006   0.000002   0.000034
    30  H    0.006143   0.000249   0.002086   0.003251  -0.000119   0.000425
    31  H   -0.003802  -0.000067  -0.000025  -0.000221   0.000001  -0.000388
    32  H    0.000639   0.000020  -0.000006   0.000332  -0.000187   0.374201
    33  H    0.001392  -0.000017   0.000012   0.004175   0.000002   0.388492
    34  H   -0.000040   0.000000   0.000000  -0.000099   0.000000  -0.036957
    35  H   -0.000079  -0.000020  -0.000001   0.011562   0.000280  -0.037418
    36  H    0.000054   0.000000   0.000001  -0.000411  -0.000005  -0.040436
    37  C   -0.010062  -0.007237  -0.003626  -0.000377  -0.000197  -0.000524
    38  C    0.010310   0.000222  -0.000127   0.000002   0.000001   0.000026
    39  C    0.002295   0.000004  -0.000062   0.000000   0.000000   0.000000
    40  H    0.000127   0.002218   0.000311  -0.000001  -0.000022  -0.000002
    41  H   -0.000146   0.000141   0.000516  -0.000004  -0.000003  -0.000011
    42  H    0.000318   0.000009  -0.000044   0.000000   0.000000   0.000042
    43  H    0.000075   0.000000   0.000001   0.000000   0.000000   0.000000
    44  H   -0.000062  -0.000001  -0.000010   0.000000   0.000000   0.000000
              13         14         15         16         17         18
     1  C   -0.075941  -0.084234   0.005314   0.000566   0.000009   0.000092
     2  C    0.008167   0.298030  -0.067229   0.001966  -0.000279  -0.000072
     3  C   -0.000449  -0.068396   0.221096  -0.039128   0.000578  -0.000893
     4  C    0.000160   0.002147  -0.049675  -0.012625  -0.001622   0.002496
     5  C    0.000069   0.000596   0.005483  -0.002171   0.000157  -0.003469
     6  H   -0.005004  -0.006234  -0.000199   0.000181   0.000000  -0.000010
     7  H    0.000184  -0.035307   0.001091  -0.000038   0.000000   0.000030
     8  H    0.000002   0.000050  -0.004398   0.001831   0.002077   0.000261
     9  H   -0.000006  -0.000061   0.004213   0.001954  -0.000086  -0.000017
    10  O   -0.003803   0.000573  -0.001966   0.001565  -0.000001   0.000069
    11  O    0.000001   0.000025   0.000032  -0.002806   0.000007  -0.003048
    12  C    0.311165   0.007387  -0.003996  -0.000104  -0.000002  -0.000305
    13  C    5.355078  -0.000317   0.000409   0.000803   0.000000  -0.000037
    14  C   -0.000317   5.414529   0.003909  -0.000223   0.000007   0.000003
    15  O    0.000409   0.003909   8.321330   0.330466  -0.022754  -0.023187
    16  Si   0.000803  -0.000223   0.330466  11.495869   0.310289   0.322528
    17  C    0.000000   0.000007  -0.022754   0.310289   5.794490  -0.054179
    18  C   -0.000037   0.000003  -0.023187   0.322528  -0.054179   5.787356
    19  C   -0.000013   0.000000  -0.026997   0.328423  -0.043923  -0.047320
    20  H    0.000066  -0.000001  -0.002058  -0.027260   0.001996   0.372852
    21  H   -0.000001   0.000000   0.001001  -0.011743   0.000053   0.359586
    22  H    0.000017   0.000001  -0.001201  -0.026621  -0.000624   0.360619
    23  H    0.000000   0.000000   0.001233  -0.015866   0.000253   0.000612
    24  H   -0.000018  -0.000001  -0.001826  -0.025880   0.002103  -0.000740
    25  H   -0.000001  -0.000001  -0.001979  -0.025437  -0.000523   0.001995
    26  H    0.000000   0.000000   0.000756  -0.011139   0.364051  -0.000027
    27  H    0.000000   0.000002  -0.001922  -0.024944   0.370419   0.002125
    28  H    0.000000   0.000002  -0.001404  -0.027065   0.368659  -0.000805
    29  H   -0.000103   0.387432  -0.000135   0.000015   0.000000   0.000000
    30  H   -0.000005   0.383345   0.000000  -0.000060   0.000000  -0.000001
    31  H    0.000011   0.386697  -0.000030  -0.000024   0.000001   0.000000
    32  H   -0.041870  -0.000111   0.004959   0.002709   0.000035   0.000528
    33  H   -0.038368  -0.000429   0.000094   0.000000   0.000001  -0.000002
    34  H    0.391983   0.000013  -0.000017   0.000002   0.000000   0.000000
    35  H    0.384251  -0.000032   0.000022   0.000094   0.000000   0.000075
    36  H    0.382963  -0.000026  -0.000019  -0.000045   0.000000   0.000000
    37  C    0.000011  -0.001113  -0.059712  -0.012135  -0.002479  -0.000222
    38  C    0.000000  -0.004395   0.001098  -0.000967   0.000612   0.000019
    39  C    0.000000  -0.000868   0.000710   0.000520  -0.000003   0.000000
    40  H   -0.000001  -0.000060  -0.003700  -0.003975  -0.002210  -0.000147
    41  H    0.000000  -0.001675   0.004279   0.001960  -0.000077   0.000016
    42  H    0.000000   0.000026   0.006407   0.002534  -0.000041   0.000037
    43  H    0.000000   0.000062   0.000017   0.000012   0.000000   0.000000
    44  H    0.000000   0.000038  -0.000010  -0.000003  -0.000001   0.000000
              19         20         21         22         23         24
     1  C    0.000033  -0.000128   0.000003  -0.000094  -0.000002  -0.000033
     2  C   -0.000042   0.000071   0.000002   0.000113   0.000001   0.000087
     3  C    0.002168   0.000228   0.000003  -0.000904  -0.000053  -0.000107
     4  C   -0.000067   0.000244   0.000000  -0.000730   0.000004  -0.000017
     5  C   -0.000052   0.000152   0.000174  -0.000405   0.000000  -0.000002
     6  H    0.000000   0.000003   0.000000  -0.000009   0.000000   0.000002
     7  H   -0.000046  -0.000001  -0.000001  -0.000002   0.000002   0.000010
     8  H   -0.000053  -0.000093  -0.000052   0.002916   0.000006  -0.000003
     9  H    0.000013  -0.000016  -0.000001   0.000114   0.000000   0.000001
    10  O    0.000003   0.000284   0.000000  -0.000521   0.000000  -0.000001
    11  O    0.000000   0.000012  -0.000009   0.014875   0.000000   0.000000
    12  C   -0.000477   0.000033   0.000000   0.000166   0.000003   0.000270
    13  C   -0.000013   0.000066  -0.000001   0.000017   0.000000  -0.000018
    14  C    0.000000  -0.000001   0.000000   0.000001   0.000000  -0.000001
    15  O   -0.026997  -0.002058   0.001001  -0.001201   0.001233  -0.001826
    16  Si   0.328423  -0.027260  -0.011743  -0.026621  -0.015866  -0.025880
    17  C   -0.043923   0.001996   0.000053  -0.000624   0.000253   0.002103
    18  C   -0.047320   0.372852   0.359586   0.360619   0.000612  -0.000740
    19  C    5.737694  -0.000841   0.000431   0.001961   0.362433   0.371031
    20  H   -0.000841   0.448013  -0.021672  -0.019675   0.000045   0.001202
    21  H    0.000431  -0.021672   0.457208  -0.019974   0.000534  -0.000108
    22  H    0.001961  -0.019675  -0.019974   0.438763  -0.000087  -0.000098
    23  H    0.362433   0.000045   0.000534  -0.000087   0.461574  -0.021518
    24  H    0.371031   0.001202  -0.000108  -0.000098  -0.021518   0.449993
    25  H    0.370535  -0.000033  -0.000082  -0.000100  -0.021971  -0.019046
    26  H   -0.000501  -0.000067   0.000495   0.000035   0.000598  -0.000098
    27  H   -0.000264  -0.000091  -0.000045  -0.000044  -0.000060  -0.000071
    28  H    0.002405  -0.000025   0.000044   0.000267  -0.000074  -0.000087
    29  H    0.000000   0.000000   0.000000   0.000000   0.000000   0.000000
    30  H    0.000000   0.000000   0.000000   0.000004   0.000000   0.000000
    31  H    0.000000   0.000000   0.000000   0.000000   0.000000   0.000000
    32  H    0.001231   0.001106   0.000040  -0.000193   0.000011   0.001898
    33  H    0.000010   0.000021   0.000000  -0.000017   0.000002   0.000017
    34  H    0.000001   0.000007   0.000000   0.000003   0.000000   0.000012
    35  H   -0.000002   0.000283  -0.000001  -0.000036   0.000000  -0.000001
    36  H    0.000000  -0.000003   0.000000  -0.000001   0.000000   0.000000
    37  C   -0.000135  -0.000016   0.000003  -0.000041  -0.000001  -0.000023
    38  C   -0.000162   0.000000   0.000000   0.000002   0.000000   0.000000
    39  C    0.000002   0.000000   0.000000   0.000000   0.000000   0.000000
    40  H   -0.000041  -0.000002   0.000009  -0.000040   0.000000  -0.000004
    41  H   -0.000005   0.000003  -0.000001   0.000008   0.000000   0.000002
    42  H    0.000488   0.000002   0.000000  -0.000001   0.000002  -0.000049
    43  H   -0.000001   0.000000   0.000000   0.000000   0.000000   0.000000
    44  H    0.000000   0.000000   0.000000   0.000000   0.000000   0.000000
              25         26         27         28         29         30
     1  C    0.000003   0.000000   0.000003   0.000005  -0.006411  -0.006319
     2  C   -0.000006   0.000008  -0.000091  -0.000064  -0.034875  -0.036124
     3  C    0.000014  -0.000048   0.000460   0.000641   0.007055  -0.008643
     4  C   -0.000028   0.000019   0.000118   0.000656  -0.000672   0.005307
     5  C    0.000001  -0.000007   0.000008  -0.000012   0.000043  -0.001017
     6  H    0.000000   0.000000   0.000000   0.000000   0.004162  -0.001226
     7  H   -0.000028   0.000001  -0.000009   0.000000  -0.004631   0.006143
     8  H   -0.000007   0.000051  -0.000329   0.003031   0.000013   0.000249
     9  H    0.000002  -0.000001   0.000012  -0.000074   0.000201   0.002086
    10  O    0.000001   0.000000   0.000000  -0.000003   0.000006   0.003251
    11  O    0.000000   0.000000   0.000000  -0.000073   0.000002  -0.000119
    12  C    0.000003   0.000000   0.000000   0.000000   0.000034   0.000425
    13  C   -0.000001   0.000000   0.000000   0.000000  -0.000103  -0.000005
    14  C   -0.000001   0.000000   0.000002   0.000002   0.387432   0.383345
    15  O   -0.001979   0.000756  -0.001922  -0.001404  -0.000135   0.000000
    16  Si  -0.025437  -0.011139  -0.024944  -0.027065   0.000015  -0.000060
    17  C   -0.000523   0.364051   0.370419   0.368659   0.000000   0.000000
    18  C    0.001995  -0.000027   0.002125  -0.000805   0.000000  -0.000001
    19  C    0.370535  -0.000501  -0.000264   0.002405   0.000000   0.000000
    20  H   -0.000033  -0.000067  -0.000091  -0.000025   0.000000   0.000000
    21  H   -0.000082   0.000495  -0.000045   0.000044   0.000000   0.000000
    22  H   -0.000100   0.000035  -0.000044   0.000267   0.000000   0.000004
    23  H   -0.021971   0.000598  -0.000060  -0.000074   0.000000   0.000000
    24  H   -0.019046  -0.000098  -0.000071  -0.000087   0.000000   0.000000
    25  H    0.453478  -0.000044   0.001295  -0.000053   0.000000   0.000000
    26  H   -0.000044   0.443342  -0.021217  -0.020517   0.000000   0.000000
    27  H    0.001295  -0.021217   0.449445  -0.020550   0.000000   0.000000
    28  H   -0.000053  -0.020517  -0.020550   0.447283   0.000000  -0.000001
    29  H    0.000000   0.000000   0.000000   0.000000   0.454841  -0.026207
    30  H    0.000000   0.000000   0.000000  -0.000001  -0.026207   0.471116
    31  H    0.000000   0.000000  -0.000001   0.000001  -0.023982  -0.025100
    32  H   -0.000072   0.000000   0.000002   0.000000  -0.000034  -0.000014
    33  H    0.000017   0.000000   0.000000   0.000000   0.000284  -0.000094
    34  H    0.000000   0.000000   0.000000   0.000000   0.000002   0.000000
    35  H    0.000000   0.000000   0.000000   0.000000  -0.000001  -0.000012
    36  H    0.000000   0.000000   0.000000   0.000000  -0.000022   0.000002
    37  C   -0.000029   0.000309  -0.000838  -0.000384  -0.000071  -0.002058
    38  C    0.000184  -0.000049   0.001220   0.000073  -0.000114   0.000493
    39  C   -0.000007  -0.000001   0.000167  -0.000004  -0.000012  -0.000018
    40  H   -0.000028   0.000652  -0.001190   0.000623   0.000006  -0.000103
    41  H   -0.000001  -0.000006  -0.000037  -0.000099   0.000479  -0.000377
    42  H    0.001297   0.000005   0.000201  -0.000005   0.000020  -0.000003
    43  H   -0.000004   0.000000  -0.000002   0.000000  -0.000003   0.000000
    44  H    0.000001   0.000000   0.000001   0.000001   0.000011  -0.000003
              31         32         33         34         35         36
     1  C    0.007693  -0.032446  -0.044930   0.007996  -0.011625  -0.003000
     2  C   -0.034540  -0.007261  -0.004821  -0.000231   0.000347  -0.000302
     3  C   -0.008407   0.001808   0.001794   0.000005   0.000024   0.000010
     4  C   -0.000659  -0.001065  -0.000162   0.000005   0.000379  -0.000016
     5  C   -0.000025   0.001058   0.000094  -0.000015   0.001086  -0.000081
     6  H    0.000598   0.006579  -0.000288  -0.000169  -0.000027   0.005715
     7  H   -0.003802   0.000639   0.001392  -0.000040  -0.000079   0.000054
     8  H   -0.000067   0.000020  -0.000017   0.000000  -0.000020   0.000000
     9  H   -0.000025  -0.000006   0.000012   0.000000  -0.000001   0.000001
    10  O   -0.000221   0.000332   0.004175  -0.000099   0.011562  -0.000411
    11  O    0.000001  -0.000187   0.000002   0.000000   0.000280  -0.000005
    12  C   -0.000388   0.374201   0.388492  -0.036957  -0.037418  -0.040436
    13  C    0.000011  -0.041870  -0.038368   0.391983   0.384251   0.382963
    14  C    0.386697  -0.000111  -0.000429   0.000013  -0.000032  -0.000026
    15  O   -0.000030   0.004959   0.000094  -0.000017   0.000022  -0.000019
    16  Si  -0.000024   0.002709   0.000000   0.000002   0.000094  -0.000045
    17  C    0.000001   0.000035   0.000001   0.000000   0.000000   0.000000
    18  C    0.000000   0.000528  -0.000002   0.000000   0.000075   0.000000
    19  C    0.000000   0.001231   0.000010   0.000001  -0.000002   0.000000
    20  H    0.000000   0.001106   0.000021   0.000007   0.000283  -0.000003
    21  H    0.000000   0.000040   0.000000   0.000000  -0.000001   0.000000
    22  H    0.000000  -0.000193  -0.000017   0.000003  -0.000036  -0.000001
    23  H    0.000000   0.000011   0.000002   0.000000   0.000000   0.000000
    24  H    0.000000   0.001898   0.000017   0.000012  -0.000001   0.000000
    25  H    0.000000  -0.000072   0.000017   0.000000   0.000000   0.000000
    26  H    0.000000   0.000000   0.000000   0.000000   0.000000   0.000000
    27  H   -0.000001   0.000002   0.000000   0.000000   0.000000   0.000000
    28  H    0.000001   0.000000   0.000000   0.000000   0.000000   0.000000
    29  H   -0.023982  -0.000034   0.000284   0.000002  -0.000001  -0.000022
    30  H   -0.025100  -0.000014  -0.000094   0.000000  -0.000012   0.000002
    31  H    0.446115   0.000022  -0.000017   0.000000   0.000001   0.000001
    32  H    0.000022   0.444072  -0.025894  -0.005007  -0.005061   0.007231
    33  H   -0.000017  -0.025894   0.496375  -0.004738   0.007179  -0.005045
    34  H    0.000000  -0.005007  -0.004738   0.474707  -0.025524  -0.027917
    35  H    0.000001  -0.005061   0.007179  -0.025524   0.463690  -0.028342
    36  H    0.000001   0.007231  -0.005045  -0.027917  -0.028342   0.490277
    37  C    0.001445   0.000087   0.000007   0.000000   0.000004   0.000000
    38  C    0.001053  -0.000033  -0.000022   0.000000   0.000000   0.000000
    39  C    0.004464  -0.000001  -0.000005   0.000000   0.000000   0.000000
    40  H    0.000713  -0.000006   0.000001   0.000000   0.000000   0.000000
    41  H   -0.001777  -0.000007   0.000000   0.000000   0.000000   0.000000
    42  H   -0.000018   0.000019   0.000030   0.000000   0.000000   0.000000
    43  H    0.000014   0.000000  -0.000001   0.000000   0.000000   0.000000
    44  H    0.000760   0.000000   0.000000   0.000000   0.000000   0.000000
              37         38         39         40         41         42
     1  C    0.008243  -0.000126  -0.000002  -0.000189  -0.000096  -0.000095
     2  C   -0.082344  -0.015534   0.000398   0.008461  -0.003137  -0.001358
     3  C    0.339273  -0.059144  -0.002911  -0.047372  -0.030602  -0.002505
     4  C   -0.089914   0.009465  -0.000013  -0.006610  -0.002848   0.000149
     5  C    0.004156  -0.000160  -0.000001  -0.000030  -0.000122   0.000003
     6  H   -0.000076  -0.000021  -0.000001   0.000014  -0.000005   0.000002
     7  H   -0.010062   0.010310   0.002295   0.000127  -0.000146   0.000318
     8  H   -0.007237   0.000222   0.000004   0.002218   0.000141   0.000009
     9  H   -0.003626  -0.000127  -0.000062   0.000311   0.000516  -0.000044
    10  O   -0.000377   0.000002   0.000000  -0.000001  -0.000004   0.000000
    11  O   -0.000197   0.000001   0.000000  -0.000022  -0.000003   0.000000
    12  C   -0.000524   0.000026   0.000000  -0.000002  -0.000011   0.000042
    13  C    0.000011   0.000000   0.000000  -0.000001   0.000000   0.000000
    14  C   -0.001113  -0.004395  -0.000868  -0.000060  -0.001675   0.000026
    15  O   -0.059712   0.001098   0.000710  -0.003700   0.004279   0.006407
    16  Si  -0.012135  -0.000967   0.000520  -0.003975   0.001960   0.002534
    17  C   -0.002479   0.000612  -0.000003  -0.002210  -0.000077  -0.000041
    18  C   -0.000222   0.000019   0.000000  -0.000147   0.000016   0.000037
    19  C   -0.000135  -0.000162   0.000002  -0.000041  -0.000005   0.000488
    20  H   -0.000016   0.000000   0.000000  -0.000002   0.000003   0.000002
    21  H    0.000003   0.000000   0.000000   0.000009  -0.000001   0.000000
    22  H   -0.000041   0.000002   0.000000  -0.000040   0.000008  -0.000001
    23  H   -0.000001   0.000000   0.000000   0.000000   0.000000   0.000002
    24  H   -0.000023   0.000000   0.000000  -0.000004   0.000002  -0.000049
    25  H   -0.000029   0.000184  -0.000007  -0.000028  -0.000001   0.001297
    26  H    0.000309  -0.000049  -0.000001   0.000652  -0.000006   0.000005
    27  H   -0.000838   0.001220   0.000167  -0.001190  -0.000037   0.000201
    28  H   -0.000384   0.000073  -0.000004   0.000623  -0.000099  -0.000005
    29  H   -0.000071  -0.000114  -0.000012   0.000006   0.000479   0.000020
    30  H   -0.002058   0.000493  -0.000018  -0.000103  -0.000377  -0.000003
    31  H    0.001445   0.001053   0.004464   0.000713  -0.001777  -0.000018
    32  H    0.000087  -0.000033  -0.000001  -0.000006  -0.000007   0.000019
    33  H    0.000007  -0.000022  -0.000005   0.000001   0.000000   0.000030
    34  H    0.000000   0.000000   0.000000   0.000000   0.000000   0.000000
    35  H    0.000004   0.000000   0.000000   0.000000   0.000000   0.000000
    36  H    0.000000   0.000000   0.000000   0.000000   0.000000   0.000000
    37  C    5.414219   0.323560  -0.056363   0.399114   0.390204  -0.046112
    38  C    0.323560   5.069704   0.619318  -0.039171  -0.048769   0.393956
    39  C   -0.056363   0.619318   5.144573  -0.002354   0.001991  -0.039209
    40  H    0.399114  -0.039171  -0.002354   0.454195  -0.027125  -0.001080
    41  H    0.390204  -0.048769   0.001991  -0.027125   0.461965   0.004852
    42  H   -0.046112   0.393956  -0.039209  -0.001080   0.004852   0.454552
    43  H    0.006217  -0.039072   0.393826  -0.000323   0.000147  -0.007637
    44  H   -0.008973  -0.040637   0.387807   0.000145   0.004296   0.005822
              43         44
     1  C   -0.000001   0.000001
     2  C    0.000013  -0.000115
     3  C   -0.000358   0.000314
     4  C    0.000014  -0.000062
     5  C    0.000000   0.000001
     6  H    0.000000   0.000000
     7  H    0.000075  -0.000062
     8  H    0.000000  -0.000001
     9  H    0.000001  -0.000010
    10  O    0.000000   0.000000
    11  O    0.000000   0.000000
    12  C    0.000000   0.000000
    13  C    0.000000   0.000000
    14  C    0.000062   0.000038
    15  O    0.000017  -0.000010
    16  Si   0.000012  -0.000003
    17  C    0.000000  -0.000001
    18  C    0.000000   0.000000
    19  C   -0.000001   0.000000
    20  H    0.000000   0.000000
    21  H    0.000000   0.000000
    22  H    0.000000   0.000000
    23  H    0.000000   0.000000
    24  H    0.000000   0.000000
    25  H   -0.000004   0.000001
    26  H    0.000000   0.000000
    27  H   -0.000002   0.000001
    28  H    0.000000   0.000001
    29  H   -0.000003   0.000011
    30  H    0.000000  -0.000003
    31  H    0.000014   0.000760
    32  H    0.000000   0.000000
    33  H   -0.000001   0.000000
    34  H    0.000000   0.000000
    35  H    0.000000   0.000000
    36  H    0.000000   0.000000
    37  C    0.006217  -0.008973
    38  C   -0.039072  -0.040637
    39  C    0.393826   0.387807
    40  H   -0.000323   0.000145
    41  H    0.000147   0.004296
    42  H   -0.007637   0.005822
    43  H    0.453424  -0.033880
    44  H   -0.033880   0.463764
 Mulliken charges:
               1
     1  C   -0.024817
     2  C   -0.297078
     3  C    0.157022
     4  C   -0.629703
     5  C    0.504361
     6  H    0.244112
     7  H    0.261037
     8  H    0.272115
     9  H    0.280901
    10  O   -0.327256
    11  O   -0.392670
    12  C   -0.445440
    13  C   -0.669405
    14  C   -0.681390
    15  O   -0.639504
    16  Si   1.465972
    17  C   -1.086994
    18  C   -1.076816
    19  C   -1.057919
    20  H    0.245360
    21  H    0.234104
    22  H    0.251556
    23  H    0.232318
    24  H    0.243102
    25  H    0.240652
    26  H    0.243400
    27  H    0.246228
    28  H    0.247608
    29  H    0.242669
    30  H    0.235081
    31  H    0.249492
    32  H    0.270679
    33  H    0.224853
    34  H    0.225981
    35  H    0.238906
    36  H    0.219417
    37  C   -0.501789
    38  C   -0.182815
    39  C   -0.454238
    40  H    0.269195
    41  H    0.246073
    42  H    0.227382
    43  H    0.227462
    44  H    0.220793
 Sum of Mulliken charges =   0.00000
 Mulliken charges with hydrogens summed into heavy atoms:
               1
     1  C    0.219295
     2  C   -0.036042
     3  C    0.157022
     4  C   -0.076687
     5  C    0.504361
    10  O   -0.327256
    11  O   -0.392670
    12  C    0.050092
    13  C    0.014899
    14  C    0.045852
    15  O   -0.639504
    16  Si   1.465972
    17  C   -0.349757
    18  C   -0.345796
    19  C   -0.341846
    37  C    0.013479
    38  C    0.044567
    39  C   -0.005983
 Electronic spatial extent (au):  <R**2>=           4990.7621
 Charge=              0.0000 electrons
 Dipole moment (field-independent basis, Debye):
    X=             -3.0394    Y=              3.3762    Z=              2.2592  Tot=              5.0735
 Quadrupole moment (field-independent basis, Debye-Ang):
   XX=           -124.7349   YY=           -115.2462   ZZ=           -123.5442
   XY=              9.7843   XZ=              9.5077   YZ=             -7.2380
 Traceless Quadrupole moment (field-independent basis, Debye-Ang):
   XX=             -3.5598   YY=              5.9289   ZZ=             -2.3691
   XY=              9.7843   XZ=              9.5077   YZ=             -7.2380
 Octapole moment (field-independent basis, Debye-Ang**2):
  XXX=              0.8464  YYY=              7.4865  ZZZ=             11.2044  XYY=            -11.1249
  XXY=             10.4996  XXZ=             24.4374  XZZ=            -12.4942  YZZ=             21.7143
  YYZ=              5.7667  XYZ=            -16.3083
 Hexadecapole moment (field-independent basis, Debye-Ang**3):
 XXXX=          -3007.2081 YYYY=          -2542.3943 ZZZZ=          -1337.4184 XXXY=             78.3990
 XXXZ=              4.7796 YYYX=             11.7818 YYYZ=            -13.4825 ZZZX=             37.1977
 ZZZY=            -29.8551 XXYY=           -900.3526 XXZZ=           -733.3073 YYZZ=           -662.8694
 XXYZ=             -2.1918 YYXZ=              8.2295 ZZXY=             16.2540
 N-N= 1.658677777602D+03 E-N=-5.812790123051D+03  KE= 1.060527038540D+03
 1\1\GINC-CPU-E-532\SP\RmPW1PW91\6-311G(d)\C14H26O3Si1\KE291\06-Feb-201
 9\0\\# mPW1PW91/6-311g(d) geom=checkpoint nmr=giao scrf=(solvent=chlor
 oform)\\P_ng_correct1ginp017\\0,1\C,0,0.7637715338,-0.3874991744,0.469
 8268617\C,0,0.2354938761,-0.1190239212,1.8993696601\C,0,-0.7908673594,
 1.0449061315,1.9293565247\C,0,-0.1332037007,2.2826117228,1.3078652176\
 C,0,0.5102069025,2.0463653457,-0.0428652323\H,0,1.7754076581,-0.800563
 2553,0.5588175876\H,0,-0.3118890549,-1.017049193,2.2051040653\H,0,-0.8
 425812706,3.1056447251,1.1956864655\H,0,0.6586522408,2.6522505588,1.97
 03817567\O,0,0.9796227395,0.821005454,-0.3322303233\O,0,0.6660781825,2
 .9396596183,-0.8523322808\C,0,-0.0603008356,-1.3674382127,-0.370962077
 4\C,0,0.5882935178,-1.7098395853,-1.7152638075\C,0,1.4136420301,0.0659
 031664,2.8738338669\O,0,-1.9087221746,0.6155400214,1.1448025355\Si,0,-
 3.2525324482,1.3471171549,0.4339424802\C,0,-4.0141409163,2.7098957997,
 1.4985407561\C,0,-2.8083337882,2.0470006193,-1.2590764033\C,0,-4.48191
 62869,-0.0645137957,0.2431517321\H,0,-2.4536062169,1.2577622033,-1.930
 5687961\H,0,-3.6937850659,2.5008596846,-1.7195253425\H,0,-2.0275884772
 ,2.8117086566,-1.2094860055\H,0,-5.3905016877,0.278037876,-0.264687123
 2\H,0,-4.0573784146,-0.8825613208,-0.3480252749\H,0,-4.7750810664,-0.4
 709004468,1.2168339582\H,0,-4.9142406187,3.0871378815,0.9984585991\H,0
 ,-4.3170187297,2.3405216353,2.4836642296\H,0,-3.3460760485,3.564859557
 2,1.6463789704\H,0,2.0697388883,-0.8085016958,2.8253276407\H,0,2.02349
 58481,0.9415331674,2.6275192164\H,0,1.0765121528,0.1612833974,3.907565
 1433\H,0,-1.0630559537,-0.9600447469,-0.5167128482\H,0,-0.1749281083,-
 2.2809477151,0.2262598533\H,0,-0.0215543209,-2.4333855677,-2.264952602
 8\H,0,0.7004285656,-0.8183669957,-2.3379311659\H,0,1.5830948322,-2.149
 2129729,-1.5770676048\C,0,-1.2771673,1.371997248,3.3647721142\C,0,-1.9
 179850896,0.2134994296,4.078637328\C,0,-1.6158684827,-0.1808296374,5.3
 168820367\H,0,-2.003911187,2.1886464226,3.271794615\H,0,-0.4479290814,
 1.7674795327,3.9593842053\H,0,-2.6898850499,-0.3170954373,3.5235863145
 \H,0,-2.1258890535,-1.0151069176,5.7896660199\H,0,-0.8533291807,0.3214
 695817,5.9083711342\\Version=ES64L-G09RevD.01\State=1-A\HF=-1064.38202
 19\RMSD=8.548e-09\Dipole=-0.6396253,-0.8768145,1.6752399\Quadrupole=2.
 5326042,0.1109934,-2.6435976,-5.7358629,8.5118799,5.8780471\PG=C01 [X(
 C14H26O3Si1)]\\@


 GARLIC THEN HAVE POWER TO SAVE FROM DEATH
 BEAR WITH IT THOUGH IT MAKETH UNSAVORY BREATH,
 AND SCORN NOT GARLIC LIKE SOME THAT THINK
 IT ONLY MAKETH MEN WINK AND DRINK AND STINK.
   --  SIR JOHN HARRINGTON,
       "THE ENGLISHMAN'S DOCTOR", 1609
 Job cpu time:       0 days  0 hours 19 minutes 47.8 seconds.
 File lengths (MBytes):  RWF=    235 Int=      0 D2E=      0 Chk=     19 Scr=      1
 Normal termination of Gaussian 09 at Wed Feb  6 11:42:45 2019.
