 Entering Gaussian System, Link 0=/usr/local/Cluster-Apps/gaussian/g09/g09
 Initial command:
 /usr/local/Cluster-Apps/gaussian/g09/l1.exe "/home/ke291/rds/hpc-work/06Feb0927IP1/Gau-178864.inp" -scrdir="/home/ke291/rds/hpc-work/06Feb0927IP1/"
 Entering Link 1 = /usr/local/Cluster-Apps/gaussian/g09/l1.exe PID=    178869.
  
 Copyright (c) 1988,1990,1992,1993,1995,1998,2003,2009,2013,
            Gaussian, Inc.  All Rights Reserved.
  
 This is part of the Gaussian(R) 09 program.  It is based on
 the Gaussian(R) 03 system (copyright 2003, Gaussian, Inc.),
 the Gaussian(R) 98 system (copyright 1998, Gaussian, Inc.),
 the Gaussian(R) 94 system (copyright 1995, Gaussian, Inc.),
 the Gaussian 92(TM) system (copyright 1992, Gaussian, Inc.),
 the Gaussian 90(TM) system (copyright 1990, Gaussian, Inc.),
 the Gaussian 88(TM) system (copyright 1988, Gaussian, Inc.),
 the Gaussian 86(TM) system (copyright 1986, Carnegie Mellon
 University), and the Gaussian 82(TM) system (copyright 1983,
 Carnegie Mellon University). Gaussian is a federally registered
 trademark of Gaussian, Inc.
  
 This software contains proprietary and confidential information,
 including trade secrets, belonging to Gaussian, Inc.
  
 This software is provided under written license and may be
 used, copied, transmitted, or stored only in accord with that
 written license.
  
 The following legend is applicable only to US Government
 contracts under FAR:
  
                    RESTRICTED RIGHTS LEGEND
  
 Use, reproduction and disclosure by the US Government is
 subject to restrictions as set forth in subparagraphs (a)
 and (c) of the Commercial Computer Software - Restricted
 Rights clause in FAR 52.227-19.
  
 Gaussian, Inc.
 340 Quinnipiac St., Bldg. 40, Wallingford CT 06492
  
  
 ---------------------------------------------------------------
 Warning -- This program may not be used in any manner that
 competes with the business of Gaussian, Inc. or will provide
 assistance to any competitor of Gaussian, Inc.  The licensee
 of this program is prohibited from giving any competitor of
 Gaussian, Inc. access to this program.  By using this program,
 the user acknowledges that Gaussian, Inc. is engaged in the
 business of creating and licensing software in the field of
 computational chemistry and represents and warrants to the
 licensee that it is not a competitor of Gaussian, Inc. and that
 it will not use this program in any manner prohibited above.
 ---------------------------------------------------------------
  

 Cite this work as:
 Gaussian 09, Revision D.01,
 M. J. Frisch, G. W. Trucks, H. B. Schlegel, G. E. Scuseria, 
 M. A. Robb, J. R. Cheeseman, G. Scalmani, V. Barone, B. Mennucci, 
 G. A. Petersson, H. Nakatsuji, M. Caricato, X. Li, H. P. Hratchian, 
 A. F. Izmaylov, J. Bloino, G. Zheng, J. L. Sonnenberg, M. Hada, 
 M. Ehara, K. Toyota, R. Fukuda, J. Hasegawa, M. Ishida, T. Nakajima, 
 Y. Honda, O. Kitao, H. Nakai, T. Vreven, J. A. Montgomery, Jr., 
 J. E. Peralta, F. Ogliaro, M. Bearpark, J. J. Heyd, E. Brothers, 
 K. N. Kudin, V. N. Staroverov, T. Keith, R. Kobayashi, J. Normand, 
 K. Raghavachari, A. Rendell, J. C. Burant, S. S. Iyengar, J. Tomasi, 
 M. Cossi, N. Rega, J. M. Millam, M. Klene, J. E. Knox, J. B. Cross, 
 V. Bakken, C. Adamo, J. Jaramillo, R. Gomperts, R. E. Stratmann, 
 O. Yazyev, A. J. Austin, R. Cammi, C. Pomelli, J. W. Ochterski, 
 R. L. Martin, K. Morokuma, V. G. Zakrzewski, G. A. Voth, 
 P. Salvador, J. J. Dannenberg, S. Dapprich, A. D. Daniels, 
 O. Farkas, J. B. Foresman, J. V. Ortiz, J. Cioslowski, 
 and D. J. Fox, Gaussian, Inc., Wallingford CT, 2013.
 
 ******************************************
 Gaussian 09:  ES64L-G09RevD.01 24-Apr-2013
                 6-Feb-2019 
 ******************************************
 %nprocshared=2
 Will use up to    2 processors via shared memory.
 %mem=6000MB
 %chk=/home/ke291/rds/hpc-work/06Feb0927IP1/P_ng_correct1ginp011.chk
 ----------------------------------------------------------------------
 # mPW1PW91/6-311g(d) geom=checkpoint nmr=giao scrf=(solvent=chloroform
 )
 ----------------------------------------------------------------------
 1/29=2,38=1/1;
 2/12=2,40=1/2;
 3/5=4,6=6,7=1,11=2,14=-4,16=1,25=1,30=1,70=2201,72=7,74=-7/1,2,8,3;
 4//1;
 5/5=2,38=5,53=7/2;
 8/6=1,10=90,11=11/1;
 10/13=100,45=16/2;
 6/7=2,8=2,9=2,10=2,28=1/1;
 99/9=1/99;
 --------------------
 P_ng_correct1ginp011
 --------------------
 Structure from the checkpoint file:  "/home/ke291/rds/hpc-work/06Feb0927IP1/P_ng_correct1ginp011.chk"
 Charge =  0 Multiplicity = 1
 Redundant internal coordinates found in file.
 C,0,1.1977840008,-0.1346434351,1.0617485803
 C,0,-0.2784076226,-0.3376301444,0.7021369453
 C,0,-1.1254647129,0.8731769327,1.1884769218
 C,0,-0.5793538648,2.0893316845,0.4177697243
 C,0,0.9275167696,2.2674167003,0.4674462833
 H,0,1.3060545461,-0.195223725,2.1515484292
 H,0,-0.3725486616,-0.3132702817,-0.3908962459
 H,0,-0.8474269964,1.9763821003,-0.6395444075
 H,0,-1.0189356592,3.0282625376,0.7593671877
 O,0,1.7052821926,1.1896013023,0.6941852694
 O,0,1.4605341898,3.338531942,0.2627870066
 C,0,2.1786891277,-1.1320787315,0.4342663316
 C,0,2.1586105814,-1.1956943936,-1.0958661704
 C,0,-0.7771799181,-1.7130510724,1.1688874213
 O,0,-2.4657179194,0.6067329462,0.7871479432
 Si,0,-3.9482111523,1.4056533415,0.8177029057
 C,0,-3.8137471992,3.2475478748,0.426233512
 C,0,-4.9495788535,0.5360459145,-0.516095058
 C,0,-4.7968359368,1.1968473112,2.4900505053
 H,0,-4.4965937257,0.6733089619,-1.503477202
 H,0,-5.0147031704,-0.5399820271,-0.3238840887
 H,0,-5.9708992087,0.9308131369,-0.5569912175
 H,0,-5.7982303074,1.6420702605,2.4561692971
 H,0,-4.9144714039,0.1397291895,2.7509240393
 H,0,-4.2479593839,1.684331731,3.3020462971
 H,0,-3.2724645542,3.8049187305,1.1979445415
 H,0,-3.3223920405,3.4320732268,-0.5342691726
 H,0,-4.8225652608,3.6734666867,0.3678805616
 H,0,-0.5388178537,-1.904526772,2.2176211656
 H,0,-1.8603400614,-1.7708324652,1.0473245186
 H,0,-0.3300330567,-2.5092643754,0.5668479242
 H,0,1.9774273009,-2.1207964863,0.8602383083
 H,0,3.1807100389,-0.84946194,0.7757024304
 H,0,2.3228589502,-0.2055903203,-1.5314006291
 H,0,2.9525637125,-1.8555910513,-1.4578257486
 H,0,1.2100053845,-1.5833056591,-1.4804415088
 C,0,-1.0517646342,1.1777154535,2.709845196
 C,0,-1.5105933451,0.1014621414,3.6561385122
 C,0,-0.8625070944,-0.2506795107,4.7681563166
 H,0,-1.6750447336,2.0705814505,2.8652052183
 H,0,-0.0330698062,1.484438662,2.974941813
 H,0,-2.4561580467,-0.3795741008,3.4161037445
 H,0,-1.2556370482,-1.0074536865,5.4405986376
 H,0,0.0826294372,0.2081699596,5.0501519601
 Recover connectivity data from disk.
                          Input orientation:                          
 ---------------------------------------------------------------------
 Center     Atomic      Atomic             Coordinates (Angstroms)
 Number     Number       Type             X           Y           Z
 ---------------------------------------------------------------------
      1          6           0        1.197784   -0.134643    1.061749
      2          6           0       -0.278408   -0.337630    0.702137
      3          6           0       -1.125465    0.873177    1.188477
      4          6           0       -0.579354    2.089332    0.417770
      5          6           0        0.927517    2.267417    0.467446
      6          1           0        1.306055   -0.195224    2.151548
      7          1           0       -0.372549   -0.313270   -0.390896
      8          1           0       -0.847427    1.976382   -0.639544
      9          1           0       -1.018936    3.028263    0.759367
     10          8           0        1.705282    1.189601    0.694185
     11          8           0        1.460534    3.338532    0.262787
     12          6           0        2.178689   -1.132079    0.434266
     13          6           0        2.158611   -1.195694   -1.095866
     14          6           0       -0.777180   -1.713051    1.168887
     15          8           0       -2.465718    0.606733    0.787148
     16         14           0       -3.948211    1.405653    0.817703
     17          6           0       -3.813747    3.247548    0.426234
     18          6           0       -4.949579    0.536046   -0.516095
     19          6           0       -4.796836    1.196847    2.490051
     20          1           0       -4.496594    0.673309   -1.503477
     21          1           0       -5.014703   -0.539982   -0.323884
     22          1           0       -5.970899    0.930813   -0.556991
     23          1           0       -5.798230    1.642070    2.456169
     24          1           0       -4.914471    0.139729    2.750924
     25          1           0       -4.247959    1.684332    3.302046
     26          1           0       -3.272465    3.804919    1.197945
     27          1           0       -3.322392    3.432073   -0.534269
     28          1           0       -4.822565    3.673467    0.367881
     29          1           0       -0.538818   -1.904527    2.217621
     30          1           0       -1.860340   -1.770832    1.047325
     31          1           0       -0.330033   -2.509264    0.566848
     32          1           0        1.977427   -2.120796    0.860238
     33          1           0        3.180710   -0.849462    0.775702
     34          1           0        2.322859   -0.205590   -1.531401
     35          1           0        2.952564   -1.855591   -1.457826
     36          1           0        1.210005   -1.583306   -1.480442
     37          6           0       -1.051765    1.177715    2.709845
     38          6           0       -1.510593    0.101462    3.656139
     39          6           0       -0.862507   -0.250680    4.768156
     40          1           0       -1.675045    2.070581    2.865205
     41          1           0       -0.033070    1.484439    2.974942
     42          1           0       -2.456158   -0.379574    3.416104
     43          1           0       -1.255637   -1.007454    5.440599
     44          1           0        0.082629    0.208170    5.050152
 ---------------------------------------------------------------------
                    Distance matrix (angstroms):
                    1          2          3          4          5
     1  C    0.000000
     2  C    1.532862   0.000000
     3  C    2.535596   1.555663   0.000000
     4  C    2.918731   2.462027   1.539889   0.000000
     5  C    2.489203   2.880209   2.584284   1.518170   0.000000
     6  H    1.096839   2.152114   2.825115   3.432193   3.007339
     7  H    2.146632   1.097350   2.113991   2.543463   3.014443
     8  H    3.396132   2.734693   2.153144   1.096601   2.112003
     9  H    3.874178   3.446867   2.199972   1.091564   2.110161
    10  O    1.465019   2.503502   2.890947   2.470927   1.348338
    11  O    3.573559   4.090369   3.690836   2.397012   1.213788
    12  C    1.533227   2.596195   3.937933   4.240820   3.622582
    13  C    2.589270   3.147721   4.503732   4.536402   3.994080
    14  C    2.530481   1.535712   2.609648   3.880906   4.386586
    15  O    3.747838   2.383983   1.424197   2.427531   3.791322
    16  Si   5.377112   4.064462   2.896360   3.460717   4.963672
    17  C    6.079354   5.042643   3.666813   3.435526   4.841688
    18  C    6.381966   4.905837   4.200366   4.731138   6.205260
    19  C    6.304632   5.095827   3.908686   4.783098   6.164841
    20  H    6.297548   4.866192   4.318689   4.587056   5.987211
    21  H    6.378031   4.850377   4.405727   5.209190   6.619492
    22  H    7.426004   5.966474   5.150555   5.600097   7.100995
    23  H    7.351553   6.120808   4.902344   5.620657   7.041431
    24  H    6.347303   5.091020   4.163623   5.295073   6.623455
    25  H    6.163094   5.158023   3.856828   4.684201   5.929629
    26  H    5.960019   5.135262   3.633842   3.287059   4.531819
    27  H    5.975009   5.000520   3.787122   3.198998   4.519025
    28  H    7.157357   6.070420   4.709942   4.529549   5.920332
    29  H    2.735748   2.195375   3.019757   4.380869   4.755877
    30  H    3.468349   2.162344   2.747863   4.115596   4.941241
    31  H    2.866701   2.176457   3.529879   4.607762   4.940445
    32  H    2.143188   2.879838   4.324298   4.945512   4.529129
    33  H    2.127154   3.497553   4.656287   4.785677   3.858346
    34  H    2.827587   3.431139   4.522434   4.181958   3.472482
    35  H    3.519825   4.172388   5.574891   5.617358   4.980631
    36  H    2.926004   2.920741   4.314146   4.504806   4.324596
    37  C    3.082041   2.631586   1.553299   2.511539   3.183293
    38  C    3.757913   3.230667   2.614043   3.912271   4.561085
    39  C    4.242136   4.108679   3.761157   4.947898   5.295385
    40  H    4.045815   3.525471   2.132424   2.681572   3.544195
    41  H    2.792264   2.923314   2.181381   2.683925   2.797019
    42  H    4.353650   3.479939   2.881397   4.313687   5.210604
    43  H    5.094644   4.884328   4.651264   5.939381   6.342175
    44  H    4.155533   4.396985   4.100519   5.043407   5.094656
                    6          7          8          9         10
     6  H    0.000000
     7  H    3.048880   0.000000
     8  H    4.140477   2.351562   0.000000
     9  H    4.211248   3.592598   1.758642   0.000000
    10  O    2.049642   2.784494   2.985663   3.287292   0.000000
    11  O    4.009827   4.138013   2.827780   2.547671   2.205427
    12  C    2.142019   2.803597   4.469114   5.257274   2.383667
    13  C    3.503355   2.771718   4.393923   5.601830   3.016526
    14  C    2.758494   2.134488   4.109413   4.765103   3.848812
    15  O    4.090353   2.572071   2.555436   2.820950   4.212555
    16  Si   5.652368   4.147381   3.473350   3.349167   5.658968
    17  C    6.406384   5.018862   3.398647   2.823125   5.896323
    18  C    6.839885   4.656846   4.349420   4.825754   6.795520
    19  C    6.268789   5.491323   5.099007   4.541132   6.745571
    20  H    6.912618   4.383939   3.969987   4.770784   6.599965
    21  H    6.796955   4.648170   4.878311   5.465525   7.013282
    22  H    7.845904   5.737322   5.229722   5.536609   7.781785
    23  H    7.344338   6.431731   5.848561   5.257597   7.720882
    24  H    6.258305   5.541237   5.604411   5.242626   7.010959
    25  H    5.975236   5.713759   5.213929   4.324114   6.518189
    26  H    6.154132   5.281421   3.549749   2.423621   5.645496
    27  H    6.464783   4.769668   2.873251   2.672540   5.640504
    28  H    7.463794   6.022662   4.438099   3.877776   6.992057
    29  H    2.515877   3.060083   4.829088   5.166181   4.114665
    30  H    3.705119   2.531104   4.232391   4.880798   4.647853
    31  H    3.246974   2.396137   4.673768   5.583534   4.223782
    32  H    2.413722   3.217899   5.197694   5.958286   3.325713
    33  H    2.415639   3.778108   5.119981   5.716121   2.518196
    34  H    3.820748   2.928748   3.950585   5.183919   2.698369
    35  H    4.300627   3.817521   5.458345   6.673888   3.931928
    36  H    3.889389   2.303167   4.196607   5.590303   3.558555
    37  C    2.784954   3.506989   3.449353   2.688860   3.415309
    38  C    3.207073   4.224410   4.733710   4.147188   4.505449
    39  C    3.398878   5.182644   5.848355   5.181344   5.026449
    40  H    3.811841   4.240453   3.602373   2.404618   4.112914
    41  H    2.300543   3.830910   3.737606   2.874734   2.882819
    42  H    3.973327   4.340400   4.958511   4.553812   5.214282
    43  H    4.247332   5.938692   6.785135   6.185221   6.010202
    44  H    3.171971   5.484897   6.030276   5.251400   4.750858
                   11         12         13         14         15
    11  O    0.000000
    12  C    4.531171   0.000000
    13  C    4.784606   1.531586   0.000000
    14  C    5.598828   3.100703   3.743746   0.000000
    15  O    4.811771   4.971771   5.308380   2.894526   0.000000
    16  Si   5.770483   6.642742   6.908113   4.461512   1.684338
    17  C    5.277598   7.422297   7.597911   5.863431   2.986862
    18  C    7.039186   7.382278   7.339034   5.030558   2.805887
    19  C    6.978696   7.635974   8.182988   5.135233   2.946561
    20  H    6.760952   7.181481   6.924671   5.164328   3.062001
    21  H    7.570717   7.257428   7.244470   4.643389   3.007769
    22  H    7.854639   8.464863   8.420294   6.078108   3.768028
    23  H    7.770365   8.684195   9.164125   6.174535   3.868229
    24  H    7.554063   7.569500   8.161473   4.801335   3.173469
    25  H    6.675356   7.580115   8.287359   5.304610   3.265320
    26  H    4.846990   7.394067   7.730736   6.056012   3.323851
    27  H    4.849787   7.213282   7.195347   5.987583   3.234591
    28  H    6.292898   8.492069   8.636440   6.783902   3.890420
    29  H    5.942091   3.340939   4.331023   1.092393   3.473561
    30  H    6.144047   4.134925   4.590862   1.091491   2.467183
    31  H    6.123341   2.864944   3.268552   1.093777   3.784061
    32  H    5.516194   1.095227   2.171402   2.801675   5.214048
    33  H    4.556466   1.095672   2.160401   4.070046   5.831191
    34  H    4.064913   2.177846   1.094063   4.378839   5.382008
    35  H    5.671470   2.168494   1.094002   4.564091   6.360874
    36  H    5.227437   2.192729   1.094528   3.314315   4.842435
    37  C    4.119328   4.577034   5.515707   3.287321   2.453986
    38  C    5.551671   5.051028   6.142249   3.164928   3.065725
    39  C    6.211064   5.367340   6.663855   3.885942   4.376513
    40  H    4.267568   5.569359   6.407461   4.242585   2.662018
    41  H    3.608919   4.265334   5.343974   3.746928   3.387416
    42  H    6.253655   5.562322   6.505383   3.105980   2.807900
    43  H    7.285253   6.072355   7.376848   4.355951   5.071932
    44  H    5.883592   5.243676   6.637324   4.415266   4.982583
                   16         17         18         19         20
    16  Si   0.000000
    17  C    1.887831   0.000000
    18  C    1.880950   3.087125   0.000000
    19  C    1.886931   3.071022   3.081704   0.000000
    20  H    2.494981   3.288886   1.094970   4.038874   0.000000
    21  H    2.495220   4.043557   1.094999   3.313951   1.769732
    22  H    2.491290   3.314709   1.095723   3.276227   1.770797
    23  H    2.482546   3.261345   3.282964   1.096432   4.279200
    24  H    2.504709   4.034144   3.291157   1.095167   4.308046
    25  H    2.517831   3.301891   4.048337   1.094643   4.917016
    26  H    2.521446   1.095074   4.054155   3.285618   4.313137
    27  H    2.515125   1.094552   3.321903   4.039397   3.151015
    28  H    2.471804   1.096597   3.262048   3.261581   3.550941
    29  H    4.953890   6.362241   5.734493   5.274794   6.012969
    30  H    3.808148   5.420857   4.160452   4.417192   4.407976
    31  H    5.336733   6.730299   5.637986   6.114434   5.636954
    32  H    6.895712   7.908551   7.545629   7.717104   7.436876
    33  H    7.477220   8.113572   8.348052   8.412349   8.151962
    34  H    6.887722   7.308518   7.380327   8.296322   6.875913
    35  H    7.964574   8.681859   8.309672   9.217174   7.866852
    36  H    6.389252   7.225693   6.584990   7.718562   6.136621
    37  C    3.467212   4.138555   5.100136   3.751564   5.465653
    38  C    3.962274   5.063068   5.424299   3.654999   5.988726
    39  C    5.279308   6.308701   6.726545   4.771168   7.307101
    40  H    3.130764   3.450780   4.950815   3.263393   5.385062
    41  H    4.470819   4.888557   6.104003   4.797009   6.374732
    42  H    3.487828   4.892687   4.745281   2.970093   5.429016
    43  H    5.868919   7.056403   7.177033   5.109282   7.845314
    44  H    5.966177   6.767584   7.510907   5.598284   8.008476
                   21         22         23         24         25
    21  H    0.000000
    22  H    1.769714   0.000000
    23  H    3.619940   3.100780   0.000000
    24  H    3.150635   3.561482   1.767750   0.000000
    25  H    4.322365   4.292841   1.766532   1.770246   0.000000
    26  H    4.922349   4.315302   3.555353   4.305990   3.142566
    27  H    4.322661   3.642994   4.275115   4.915968   4.316085
    28  H    4.274179   3.113873   3.072368   4.263173   3.591122
    29  H    5.324921   6.726450   6.347966   4.858985   5.273861
    30  H    3.653110   5.173917   5.398123   3.984999   4.766829
    31  H    5.159226   6.701979   7.120695   5.727515   6.357492
    32  H    7.265742   8.631150   8.784476   7.495528   7.693950
    33  H    8.274640   9.417930   9.468531   8.391184   8.245463
    34  H    7.443771   8.427770   9.233994   8.416442   8.373152
    35  H    8.154385   9.391685  10.204381   9.142490   9.329253
    36  H    6.416630   7.664134   8.661139   7.640845   7.958582
    37  C    5.278151   5.910251   4.775868   3.999951   3.289836
    38  C    5.341425   6.191334   4.711394   3.522395   3.181828
    39  C    6.576724   7.473205   5.769675   4.543133   4.165937
    40  H    5.304588   5.609355   4.165524   3.772948   2.638164
    41  H    6.308502   6.931008   5.790600   5.068186   4.232286
    42  H    4.534247   5.464065   4.022184   2.599124   2.735556
    43  H    6.897708   7.871573   6.046648   4.683743   4.557752
    44  H    7.444649   8.282963   6.585539   5.501104   4.897849
                   26         27         28         29         30
    26  H    0.000000
    27  H    1.772589   0.000000
    28  H    1.763263   1.767106   0.000000
    29  H    6.411734   6.618194   7.272279   0.000000
    30  H    5.753763   5.631098   6.235128   1.770279   0.000000
    31  H    6.994648   6.742860   7.645168   1.770410   1.765780
    32  H    7.923983   7.801737   8.947391   2.867185   3.858229
    33  H    7.967748   7.895436   9.201936   4.126400   5.131753
    34  H    7.405481   6.789383   8.349338   5.013057   5.157418
    35  H    8.823008   8.257567   9.713718   5.069620   5.426509
    36  H    7.503283   6.825826   8.212299   4.103320   3.981430
    37  C    3.757599   4.556551   5.092397   3.163166   3.480187
    38  C    4.781475   5.651115   5.877160   2.652861   3.230127
    39  C    5.916264   6.908648   7.102352   3.056994   4.141392
    40  H    2.887808   4.015450   4.325824   4.184718   4.253879
    41  H    4.363029   5.189170   5.876043   3.509188   4.201359
    42  H    4.805889   5.557379   5.596310   2.727276   2.810999
    43  H    6.725075   7.725278   7.769586   3.421426   4.499919
    44  H    6.247620   7.292015   7.615306   3.587884   4.869724
                   31         32         33         34         35
    31  H    0.000000
    32  H    2.358253   0.000000
    33  H    3.888943   1.752520   0.000000
    34  H    4.092358   3.083387   2.544249   0.000000
    35  H    3.911781   2.528764   2.460283   1.767610   0.000000
    36  H    2.724062   2.521233   3.084216   1.771762   1.763848
    37  C    4.325177   4.845331   5.075845   5.593727   6.527256
    38  C    4.213470   4.992172   5.586546   6.457569   7.064167
    39  C    4.799555   5.180192   5.713653   7.059250   7.476186
    40  H    5.297782   5.909999   6.039125   6.363516   7.451053
    41  H    4.672983   4.638080   4.540058   5.358518   6.302320
    42  H    4.144182   5.405644   6.242339   6.880921   7.428868
    43  H    5.183206   5.715937   6.439518   7.877651   8.125057
    44  H    5.258779   5.154582   5.384014   6.964672   7.406038
                   36         37         38         39         40
    36  H    0.000000
    37  C    5.504302   0.000000
    38  C    6.051822   1.504764   0.000000
    39  C    6.716858   2.512524   1.334392   0.000000
    40  H    6.368599   1.099920   2.128392   3.109613   0.000000
    41  H    5.550381   1.096401   2.135352   2.629490   1.746908
    42  H    6.234251   2.212752   1.087706   2.093892   2.629998
    43  H    7.369654   3.503362   2.116364   1.086019   4.035202
    44  H    6.865057   2.775591   2.119674   1.087818   3.366302
                   41         42         43         44
    41  H    0.000000
    42  H    3.088774   0.000000
    43  H    3.712635   2.435993   0.000000
    44  H    2.439005   3.075874   1.849634   0.000000
 Stoichiometry    C14H26O3Si
 Framework group  C1[X(C14H26O3Si)]
 Deg. of freedom   126
 Full point group                 C1      NOp   1
 Largest Abelian subgroup         C1      NOp   1
 Largest concise Abelian subgroup C1      NOp   1
                         Standard orientation:                         
 ---------------------------------------------------------------------
 Center     Atomic      Atomic             Coordinates (Angstroms)
 Number     Number       Type             X           Y           Z
 ---------------------------------------------------------------------
      1          6           0        2.466611    0.389048    0.070247
      2          6           0        1.134383    0.325576    0.825763
      3          6           0       -0.027489   -0.009585   -0.152912
      4          6           0        0.302249   -1.404543   -0.715606
      5          6           0        1.706875   -1.567350   -1.268200
      6          1           0        2.455583    1.265143   -0.589595
      7          1           0        1.168014   -0.531063    1.510757
      8          1           0        0.196515   -2.136783    0.093825
      9          1           0       -0.385023   -1.704845   -1.508693
     10          8           0        2.685465   -0.759305   -0.812743
     11          8           0        1.990992   -2.431668   -2.071639
     12          6           0        3.723711    0.472626    0.944033
     13          6           0        3.901676   -0.671686    1.946347
     14          6           0        0.924273    1.582474    1.682778
     15          8           0       -1.208632   -0.073484    0.640281
     16         14           0       -2.831128   -0.464915    0.413823
     17          6           0       -3.091900   -1.935532   -0.740815
     18          6           0       -3.431380   -0.891700    2.144581
     19          6           0       -3.798921    1.012482   -0.250394
     20          1           0       -2.909629   -1.769935    2.538838
     21          1           0       -3.261746   -0.061634    2.838293
     22          1           0       -4.504848   -1.111405    2.142185
     23          1           0       -4.865985    0.765274   -0.299637
     24          1           0       -3.692578    1.886954    0.400283
     25          1           0       -3.482111    1.302283   -1.257316
     26          1           0       -2.794196   -1.720483   -1.772470
     27          1           0       -2.547571   -2.824961   -0.408148
     28          1           0       -4.158627   -2.189110   -0.758658
     29          1           0        1.074617    2.501440    1.111622
     30          1           0       -0.091831    1.588778    2.081332
     31          1           0        1.615993    1.590707    2.530011
     32          1           0        3.713537    1.436913    1.463232
     33          1           0        4.582054    0.499963    0.263595
     34          1           0        3.876974   -1.642064    1.441638
     35          1           0        4.866821   -0.583772    2.453896
     36          1           0        3.124881   -0.669523    2.717436
     37          6           0       -0.209878    0.973118   -1.341931
     38          6           0       -0.509573    2.410893   -1.014364
     39          6           0        0.066377    3.455765   -1.611966
     40          1           0       -1.041147    0.568389   -1.937758
     41          1           0        0.667913    0.925147   -1.997123
     42          1           0       -1.278482    2.583671   -0.264677
     43          1           0       -0.213167    4.476382   -1.367767
     44          1           0        0.835141    3.329489   -2.371179
 ---------------------------------------------------------------------
 Rotational constants (GHZ):      0.5034493      0.2551826      0.2348057
 Standard basis: 6-311G(d) (5D, 7F)
 There are   428 symmetry adapted cartesian basis functions of A   symmetry.
 There are   410 symmetry adapted basis functions of A   symmetry.
   410 basis functions,   720 primitive gaussians,   428 cartesian basis functions
    74 alpha electrons       74 beta electrons
       nuclear repulsion energy      1624.3639269906 Hartrees.
 NAtoms=   44 NActive=   44 NUniq=   44 SFac= 1.00D+00 NAtFMM=   60 NAOKFM=F Big=F
 Integral buffers will be    131072 words long.
 Raffenetti 2 integral format.
 Two-electron integral symmetry is turned on.
 ------------------------------------------------------------------------------
 Polarizable Continuum Model (PCM)
 =================================
 Model                : PCM (using non-symmetric T matrix).
 Atomic radii         : UFF (Universal Force Field).
 Polarization charges : Total charges.
 Charge compensation  : None.
 Solution method      : On-the-fly selection.
 Cavity type          : Scaled VdW (van der Waals Surface) (Alpha=1.100).
 Cavity algorithm     : GePol (No added spheres)
                        Default sphere list used, NSphG=   44.
                        Lebedev-Laikov grids with approx.  5.0 points / Ang**2.
                        Smoothing algorithm: Karplus/York (Gamma=1.0000).
                        Polarization charges: spherical gaussians, with
                                              point-specific exponents (IZeta= 3).
                        Self-potential: point-specific (ISelfS= 7).
                        Self-field    : sphere-specific E.n sum rule (ISelfD= 2).
 Solvent              : Chloroform, Eps=   4.711300 Eps(inf)=   2.090627
 ------------------------------------------------------------------------------
 One-electron integrals computed using PRISM.
 NBasis=   410 RedAO= T EigKep=  1.09D-03  NBF=   410
 NBsUse=   410 1.00D-06 EigRej= -1.00D+00 NBFU=   410
 ExpMin= 6.54D-02 ExpMax= 6.94D+04 ExpMxC= 2.33D+03 IAcc=2 IRadAn=         4 AccDes= 0.00D+00
 Harris functional with IExCor=  908 and IRadAn=       4 diagonalized for initial guess.
 HarFok:  IExCor=  908 AccDes= 0.00D+00 IRadAn=         4 IDoV= 1 UseB2=F ITyADJ=14
 ICtDFT=  3500011 ScaDFX=  1.000000  1.000000  1.000000  1.000000
 FoFCou: FMM=F IPFlag=           0 FMFlag=      100000 FMFlg1=           0
         NFxFlg=           0 DoJE=T BraDBF=F KetDBF=T FulRan=T
         wScrn=  0.000000 ICntrl=     500 IOpCl=  0 I1Cent=   200000004 NGrid=           0
         NMat0=    1 NMatS0=      1 NMatT0=    0 NMatD0=    1 NMtDS0=    0 NMtDT0=    0
 Petite list used in FoFCou.
 Requested convergence on RMS density matrix=1.00D-08 within 128 cycles.
 Requested convergence on MAX density matrix=1.00D-06.
 Requested convergence on             energy=1.00D-06.
 No special actions if energy rises.
 Inv3:  Mode=1 IEnd=    24230892.
 Iteration    1 A*A^-1 deviation from unit magnitude is 7.55D-15 for   2842.
 Iteration    1 A*A^-1 deviation from orthogonality  is 5.11D-15 for   2842     60.
 Iteration    1 A^-1*A deviation from unit magnitude is 7.77D-15 for   2842.
 Iteration    1 A^-1*A deviation from orthogonality  is 4.49D-14 for   2244   2237.
 Error on total polarization charges =  0.01114
 SCF Done:  E(RmPW1PW91) =  -1064.38197655     A.U. after   12 cycles
            NFock= 12  Conv=0.94D-08     -V/T= 2.0036
 DoSCS=F DFT=T ScalE2(SS,OS)=  1.000000  1.000000
 Range of M.O.s used for correlation:     1   410
 NBasis=   410 NAE=    74 NBE=    74 NFC=     0 NFV=     0
 NROrb=    410 NOA=    74 NOB=    74 NVA=   336 NVB=   336
 NEqPCM:  Using equilibrium solvation (IEInf=0, Eps=   4.7113, EpsInf=   2.0906)
          Differentiating once with respect to magnetic field using GIAOs.
          Electric field/nuclear overlap derivatives assumed to be zero.
 FoFJK:  IHMeth= 1 ICntrl=    6127 DoSepK=F KAlg= 0 I1Cent=   0 FoldK=F
 IRaf=         1 NMat=   1 IRICut=       1 DoRegI=T DoRafI=F ISym2E= 0.
          There are     3 degrees of freedom in the 1st order CPHF.  IDoFFX=0 NUNeed=     3.
      3 vectors produced by pass  0 Test12= 8.29D-13 3.33D-08 XBig12= 3.59D+01 9.73D-01.
 AX will form     3 AO Fock derivatives at one time.
      3 vectors produced by pass  1 Test12= 8.29D-13 3.33D-08 XBig12= 7.60D-02 9.03D-02.
      3 vectors produced by pass  2 Test12= 8.29D-13 3.33D-08 XBig12= 6.78D-04 1.06D-02.
      3 vectors produced by pass  3 Test12= 8.29D-13 3.33D-08 XBig12= 3.49D-06 5.20D-04.
      3 vectors produced by pass  4 Test12= 8.29D-13 3.33D-08 XBig12= 1.46D-08 3.75D-05.
      3 vectors produced by pass  5 Test12= 8.29D-13 3.33D-08 XBig12= 5.95D-11 1.72D-06.
      2 vectors produced by pass  6 Test12= 8.29D-13 3.33D-08 XBig12= 1.73D-13 7.54D-08.
 InvSVY:  IOpt=1 It=  1 EMax= 8.88D-16
 Solved reduced A of dimension    20 with     3 vectors.
 Calculating GIAO nuclear magnetic shielding tensors.
 SCF GIAO Magnetic shielding tensor (ppm):
      1  C    Isotropic =   102.9931   Anisotropy =    61.0179
   XX=    94.2423   YX=   -13.0972   ZX=    -7.6021
   XY=    -5.8990   YY=   118.1287   ZY=    32.3538
   XZ=    -3.0057   YZ=    32.0230   ZZ=    96.6083
   Eigenvalues:    73.3482    91.9594   143.6717
      2  C    Isotropic =   142.7746   Anisotropy =    20.5260
   XX=   149.8906   YX=     1.0052   ZX=     7.9916
   XY=     4.2896   YY=   139.9347   ZY=     5.9384
   XZ=    12.5682   YZ=    -3.4720   ZZ=   138.4985
   Eigenvalues:   132.4309   139.4342   156.4586
      3  C    Isotropic =   108.2415   Anisotropy =    55.1691
   XX=   132.2954   YX=     4.4803   ZX=   -23.8524
   XY=     9.3435   YY=    86.8445   ZY=    -3.2751
   XZ=   -18.6047   YZ=    -3.2566   ZZ=   105.5844
   Eigenvalues:    85.8155    93.8881   145.0208
      4  C    Isotropic =   136.7307   Anisotropy =    34.8247
   XX=   136.6112   YX=   -14.2658   ZX=    -7.3148
   XY=    -8.3357   YY=   144.7891   ZY=     6.8592
   XZ=   -11.2691   YZ=    16.7553   ZZ=   128.7918
   Eigenvalues:   121.4898   128.7551   159.9471
      5  C    Isotropic =    12.6884   Anisotropy =    89.3005
   XX=   -56.3612   YX=   -43.2140   ZX=    -2.8009
   XY=   -54.6533   YY=    35.2077   ZY=   -16.9217
   XZ=   -11.5637   YZ=   -18.9937   ZZ=    59.2186
   Eigenvalues:   -78.9685    44.8116    72.2221
      6  H    Isotropic =    27.7512   Anisotropy =     2.8498
   XX=    28.2353   YX=    -0.0821   ZX=     0.8699
   XY=     0.0295   YY=    28.3090   ZY=    -2.0800
   XZ=     0.9192   YZ=    -1.4580   ZZ=    26.7094
   Eigenvalues:    25.3735    28.2290    29.6511
      7  H    Isotropic =    30.0097   Anisotropy =     5.1639
   XX=    30.9464   YX=    -0.6919   ZX=     2.6046
   XY=    -0.0529   YY=    29.8171   ZY=    -1.6824
   XZ=     2.6259   YZ=    -2.1087   ZZ=    29.2656
   Eigenvalues:    26.7339    29.8429    33.4523
      8  H    Isotropic =    29.6990   Anisotropy =     3.9867
   XX=    30.1118   YX=     0.0267   ZX=    -0.4020
   XY=     0.5459   YY=    32.1276   ZY=    -1.4003
   XZ=    -1.0884   YZ=    -0.4219   ZZ=    26.8576
   Eigenvalues:    26.5700    30.1702    32.3568
      9  H    Isotropic =    29.5251   Anisotropy =     4.1485
   XX=    32.0981   YX=     0.6600   ZX=     0.3707
   XY=    -0.2426   YY=    28.6524   ZY=     3.8673
   XZ=    -0.0444   YZ=     3.4652   ZZ=    27.8249
   Eigenvalues:    24.5490    31.7355    32.2908
     10  O    Isotropic =    95.8012   Anisotropy =   160.9719
   XX=   168.1271   YX=    57.7679   ZX=    54.6104
   XY=    64.0985   YY=    45.6065   ZY=  -133.3284
   XZ=    66.6977   YZ=  -148.6096   ZZ=    73.6699
   Eigenvalues:  -108.6768   192.9645   203.1158
     11  O    Isotropic =  -104.3593   Anisotropy =   559.9838
   XX=  -201.8152   YX=  -115.6846   ZX=    23.6240
   XY=  -106.3534   YY=  -106.6913   ZY=  -287.7032
   XZ=    47.0938   YZ=  -310.9741   ZZ=    -4.5714
   Eigenvalues:  -382.5748  -199.4663   268.9632
     12  C    Isotropic =   160.2909   Anisotropy =    21.0896
   XX=   166.8884   YX=     1.7118   ZX=    10.1344
   XY=    -2.0402   YY=   155.1818   ZY=    -4.6006
   XZ=    11.3961   YZ=     3.9043   ZZ=   158.8024
   Eigenvalues:   151.3363   155.1857   174.3506
     13  C    Isotropic =   181.4807   Anisotropy =    11.7861
   XX=   180.4149   YX=    -0.7472   ZX=     1.7449
   XY=    -0.0594   YY=   182.9705   ZY=    -6.9934
   XZ=     2.8334   YZ=    -6.7786   ZZ=   181.0567
   Eigenvalues:   174.6739   180.4302   189.3381
     14  C    Isotropic =   176.3876   Anisotropy =    13.4187
   XX=   171.2228   YX=    -1.5016   ZX=     2.9461
   XY=    -4.9309   YY=   183.1134   ZY=     4.2535
   XZ=     0.9301   YZ=     4.4344   ZZ=   174.8267
   Eigenvalues:   168.7329   175.0966   185.3335
     15  O    Isotropic =   244.5915   Anisotropy =    32.1354
   XX=   232.8754   YX=     2.7371   ZX=     2.0551
   XY=    18.6259   YY=   241.1556   ZY=   -15.7896
   XZ=     5.9729   YZ=    -9.0604   ZZ=   259.7436
   Eigenvalues:   222.4916   245.2678   266.0152
     16  Si   Isotropic =   332.7633   Anisotropy =    43.8625
   XX=   357.0788   YX=    15.6372   ZX=    10.6668
   XY=    13.5128   YY=   318.8811   ZY=     0.4115
   XZ=    -8.6631   YZ=    -5.8290   ZZ=   322.3301
   Eigenvalues:   313.0563   323.2287   362.0050
     17  C    Isotropic =   185.1235   Anisotropy =     8.5337
   XX=   187.7718   YX=     1.8065   ZX=     0.1705
   XY=    -0.3908   YY=   186.2542   ZY=     6.5607
   XZ=    -1.8329   YZ=     6.5702   ZZ=   181.3446
   Eigenvalues:   176.6836   187.8743   190.8127
     18  C    Isotropic =   186.2598   Anisotropy =    12.9509
   XX=   188.2703   YX=     2.6763   ZX=    -2.0990
   XY=     2.4980   YY=   177.7295   ZY=    -3.8762
   XZ=    -2.0365   YZ=    -4.2492   ZZ=   192.7798
   Eigenvalues:   176.3549   187.5309   194.8938
     19  C    Isotropic =   185.0516   Anisotropy =    10.3554
   XX=   187.4731   YX=    -2.9569   ZX=     1.5093
   XY=    -0.4499   YY=   189.4122   ZY=    -4.3539
   XZ=     2.8114   YZ=    -3.7958   ZZ=   178.2696
   Eigenvalues:   176.7146   186.4851   191.9552
     20  H    Isotropic =    31.9640   Anisotropy =     8.2163
   XX=    30.3830   YX=    -2.1132   ZX=     0.1134
   XY=    -2.1268   YY=    33.4694   ZY=    -3.8739
   XZ=     0.7473   YZ=    -4.3364   ZZ=    32.0397
   Eigenvalues:    28.0357    30.4147    37.4416
     21  H    Isotropic =    31.8461   Anisotropy =     8.1744
   XX=    29.1984   YX=     1.0059   ZX=    -0.8860
   XY=     1.0788   YY=    31.6925   ZY=     3.4711
   XZ=    -0.6323   YZ=     4.2329   ZZ=    34.6473
   Eigenvalues:    27.8299    30.4126    37.2956
     22  H    Isotropic =    32.3317   Anisotropy =    10.2751
   XX=    37.9740   YX=     2.3793   ZX=    -2.3871
   XY=     2.3830   YY=    28.8671   ZY=    -0.8560
   XZ=    -2.0973   YZ=    -0.7605   ZZ=    30.1539
   Eigenvalues:    28.2366    29.5767    39.1817
     23  H    Isotropic =    32.2056   Anisotropy =    10.2651
   XX=    38.9278   YX=    -0.0721   ZX=     1.0958
   XY=     0.2458   YY=    29.3891   ZY=    -0.4369
   XZ=     1.1840   YZ=    -0.3098   ZZ=    28.2998
   Eigenvalues:    28.0692    29.4986    39.0489
     24  H    Isotropic =    31.8111   Anisotropy =     7.8460
   XX=    30.2004   YX=    -1.1819   ZX=    -0.3877
   XY=    -0.5920   YY=    35.4021   ZY=     3.6595
   XZ=     0.0525   YZ=     2.9266   ZZ=    29.8307
   Eigenvalues:    28.2764    30.1150    37.0417
     25  H    Isotropic =    31.9043   Anisotropy =     6.5249
   XX=    31.4429   YX=    -0.2242   ZX=    -0.9339
   XY=     0.0742   YY=    29.9072   ZY=    -3.7403
   XZ=    -0.8882   YZ=    -2.8937   ZZ=    34.3627
   Eigenvalues:    28.0652    31.3934    36.2542
     26  H    Isotropic =    31.8499   Anisotropy =     6.6291
   XX=    30.4526   YX=     1.4536   ZX=    -0.9655
   XY=     1.0726   YY=    29.1263   ZY=     1.0504
   XZ=    -1.5019   YZ=     0.4908   ZZ=    35.9709
   Eigenvalues:    28.1438    31.1367    36.2693
     27  H    Isotropic =    31.8521   Anisotropy =     7.4480
   XX=    31.3128   YX=    -1.6527   ZX=     0.9019
   XY=    -2.1907   YY=    36.0692   ZY=    -0.8780
   XZ=     0.2683   YZ=    -0.3421   ZZ=    28.1743
   Eigenvalues:    28.0589    30.6800    36.8174
     28  H    Isotropic =    32.1588   Anisotropy =    10.3930
   XX=    37.3055   YX=     3.8766   ZX=     1.1847
   XY=     3.4113   YY=    30.4172   ZY=     1.3655
   XZ=     0.8646   YZ=     1.3367   ZZ=    28.7538
   Eigenvalues:    27.8537    29.5353    39.0875
     29  H    Isotropic =    31.2292   Anisotropy =     7.9831
   XX=    27.6292   YX=     0.1862   ZX=     2.1181
   XY=     0.3164   YY=    36.0459   ZY=    -1.8978
   XZ=     1.7797   YZ=    -1.7025   ZZ=    30.0125
   Eigenvalues:    26.4050    30.7313    36.5512
     30  H    Isotropic =    30.4857   Anisotropy =     6.7895
   XX=    33.9179   YX=     0.5660   ZX=    -1.4476
   XY=    -0.2516   YY=    27.6095   ZY=     3.6391
   XZ=    -2.5279   YZ=     3.5222   ZZ=    29.9298
   Eigenvalues:    24.8149    31.6302    35.0121
     31  H    Isotropic =    31.4229   Anisotropy =     9.7579
   XX=    31.2874   YX=    -0.8490   ZX=     3.9515
   XY=    -0.7642   YY=    28.2930   ZY=     3.3165
   XZ=     4.1386   YZ=     3.1070   ZZ=    34.6882
   Eigenvalues:    25.7562    30.5843    37.9281
     32  H    Isotropic =    30.3906   Anisotropy =     6.8484
   XX=    30.5997   YX=     1.0590   ZX=     1.9974
   XY=     1.2865   YY=    33.1873   ZY=     2.5771
   XZ=     2.1794   YZ=     2.4783   ZZ=    27.3847
   Eigenvalues:    25.8845    30.3311    34.9561
     33  H    Isotropic =    30.1475   Anisotropy =     9.4031
   XX=    34.7236   YX=     1.5204   ZX=    -3.0475
   XY=     1.8356   YY=    26.0366   ZY=    -2.3490
   XZ=    -2.1202   YZ=    -2.3895   ZZ=    29.6823
   Eigenvalues:    24.8542    29.1721    36.4162
     34  H    Isotropic =    31.1483   Anisotropy =     7.5895
   XX=    28.6937   YX=    -2.3782   ZX=     2.1594
   XY=    -2.2921   YY=    35.4730   ZY=     1.0578
   XZ=     1.9457   YZ=     0.7041   ZZ=    29.2781
   Eigenvalues:    26.3045    30.9324    36.2080
     35  H    Isotropic =    31.2303   Anisotropy =    12.1030
   XX=    35.4389   YX=    -0.6534   ZX=     5.3219
   XY=    -1.0126   YY=    27.5756   ZY=    -1.8203
   XZ=     5.7353   YZ=    -1.4956   ZZ=    30.6765
   Eigenvalues:    26.2640    28.1281    39.2990
     36  H    Isotropic =    31.2456   Anisotropy =     6.7128
   XX=    32.2670   YX=    -1.3105   ZX=    -1.5589
   XY=    -0.7354   YY=    27.1945   ZY=    -2.9450
   XZ=    -1.8003   YZ=    -2.5973   ZZ=    34.2753
   Eigenvalues:    25.8706    32.1454    35.7208
     37  C    Isotropic =   141.8503   Anisotropy =    31.9901
   XX=   125.9408   YX=    -5.7715   ZX=     3.0751
   XY=    -5.3192   YY=   159.5262   ZY=    -9.3374
   XZ=     3.2307   YZ=    -5.7840   ZZ=   140.0839
   Eigenvalues:   124.7786   137.5953   163.1771
     38  C    Isotropic =    43.7277   Anisotropy =   184.5897
   XX=    59.4910   YX=    43.0376   ZX=   104.9183
   XY=    44.7508   YY=     4.5011   ZY=   -43.7555
   XZ=   101.8259   YZ=   -42.5724   ZZ=    67.1910
   Eigenvalues:   -83.2751    47.6706   166.7875
     39  C    Isotropic =    67.8259   Anisotropy =   139.0681
   XX=    81.8047   YX=    40.8375   ZX=    76.6674
   XY=    46.2778   YY=    35.2752   ZY=   -43.7672
   XZ=    75.8600   YZ=   -51.0420   ZZ=    86.3977
   Eigenvalues:   -44.2105    87.1502   160.5380
     40  H    Isotropic =    29.6057   Anisotropy =     4.1526
   XX=    29.7970   YX=     1.7527   ZX=     1.5736
   XY=     1.0731   YY=    29.1903   ZY=    -0.9138
   XZ=     3.0309   YZ=     0.5568   ZZ=    29.8296
   Eigenvalues:    26.9137    29.5293    32.3740
     41  H    Isotropic =    29.5471   Anisotropy =     5.0265
   XX=    28.8421   YX=     0.2030   ZX=    -1.6550
   XY=    -1.1036   YY=    28.9868   ZY=    -1.6626
   XZ=    -1.3177   YZ=    -3.5463   ZZ=    30.8123
   Eigenvalues:    26.4648    29.2783    32.8981
     42  H    Isotropic =    25.5568   Anisotropy =     6.5659
   XX=    25.6360   YX=     0.9868   ZX=     1.3412
   XY=     1.9256   YY=    28.8373   ZY=    -2.8514
   XZ=     1.4339   YZ=    -2.2830   ZZ=    22.1970
   Eigenvalues:    20.6673    26.0690    29.9340
     43  H    Isotropic =    26.8775   Anisotropy =     7.0036
   XX=    25.4056   YX=     2.1677   ZX=     0.1965
   XY=     0.6988   YY=    29.9159   ZY=    -1.7904
   XZ=     0.5379   YZ=    -4.0567   ZZ=    25.3110
   Eigenvalues:    23.3973    25.6887    31.5466
     44  H    Isotropic =    26.8008   Anisotropy =     7.1081
   XX=    25.5828   YX=     0.9327   ZX=     0.2232
   XY=     3.1644   YY=    28.4171   ZY=    -4.6312
   XZ=     0.1906   YZ=    -2.5548   ZZ=    26.4024
   Eigenvalues:    22.8710    25.9918    31.5395
 End of Minotr F.D. properties file   721 does not exist.
 End of Minotr F.D. properties file   722 does not exist.
 End of Minotr F.D. properties file   788 does not exist.

 **********************************************************************

            Population analysis using the SCF density.

 **********************************************************************

 Orbital symmetries:
       Occupied  (A) (A) (A) (A) (A) (A) (A) (A) (A) (A) (A) (A)
                 (A) (A) (A) (A) (A) (A) (A) (A) (A) (A) (A) (A)
                 (A) (A) (A) (A) (A) (A) (A) (A) (A) (A) (A) (A)
                 (A) (A) (A) (A) (A) (A) (A) (A) (A) (A) (A) (A)
                 (A) (A) (A) (A) (A) (A) (A) (A) (A) (A) (A) (A)
                 (A) (A) (A) (A) (A) (A) (A) (A) (A) (A) (A) (A)
                 (A) (A)
       Virtual   (A) (A) (A) (A) (A) (A) (A) (A) (A) (A) (A) (A)
                 (A) (A) (A) (A) (A) (A) (A) (A) (A) (A) (A) (A)
                 (A) (A) (A) (A) (A) (A) (A) (A) (A) (A) (A) (A)
                 (A) (A) (A) (A) (A) (A) (A) (A) (A) (A) (A) (A)
                 (A) (A) (A) (A) (A) (A) (A) (A) (A) (A) (A) (A)
                 (A) (A) (A) (A) (A) (A) (A) (A) (A) (A) (A) (A)
                 (A) (A) (A) (A) (A) (A) (A) (A) (A) (A) (A) (A)
                 (A) (A) (A) (A) (A) (A) (A) (A) (A) (A) (A) (A)
                 (A) (A) (A) (A) (A) (A) (A) (A) (A) (A) (A) (A)
                 (A) (A) (A) (A) (A) (A) (A) (A) (A) (A) (A) (A)
                 (A) (A) (A) (A) (A) (A) (A) (A) (A) (A) (A) (A)
                 (A) (A) (A) (A) (A) (A) (A) (A) (A) (A) (A) (A)
                 (A) (A) (A) (A) (A) (A) (A) (A) (A) (A) (A) (A)
                 (A) (A) (A) (A) (A) (A) (A) (A) (A) (A) (A) (A)
                 (A) (A) (A) (A) (A) (A) (A) (A) (A) (A) (A) (A)
                 (A) (A) (A) (A) (A) (A) (A) (A) (A) (A) (A) (A)
                 (A) (A) (A) (A) (A) (A) (A) (A) (A) (A) (A) (A)
                 (A) (A) (A) (A) (A) (A) (A) (A) (A) (A) (A) (A)
                 (A) (A) (A) (A) (A) (A) (A) (A) (A) (A) (A) (A)
                 (A) (A) (A) (A) (A) (A) (A) (A) (A) (A) (A) (A)
                 (A) (A) (A) (A) (A) (A) (A) (A) (A) (A) (A) (A)
                 (A) (A) (A) (A) (A) (A) (A) (A) (A) (A) (A) (A)
                 (A) (A) (A) (A) (A) (A) (A) (A) (A) (A) (A) (A)
                 (A) (A) (A) (A) (A) (A) (A) (A) (A) (A) (A) (A)
                 (A) (A) (A) (A) (A) (A) (A) (A) (A) (A) (A) (A)
                 (A) (A) (A) (A) (A) (A) (A) (A) (A) (A) (A) (A)
                 (A) (A) (A) (A) (A) (A) (A) (A) (A) (A) (A) (A)
                 (A) (A) (A) (A) (A) (A) (A) (A) (A) (A) (A) (A)
 The electronic state is 1-A.
 Alpha  occ. eigenvalues --  -66.27514 -19.25875 -19.20804 -19.19517 -10.36936
 Alpha  occ. eigenvalues --  -10.31822 -10.30455 -10.25098 -10.25042 -10.24665
 Alpha  occ. eigenvalues --  -10.24380 -10.23761 -10.22909 -10.22236 -10.22233
 Alpha  occ. eigenvalues --  -10.21063 -10.20850 -10.20690  -5.33241  -3.67131
 Alpha  occ. eigenvalues --   -3.66835  -3.66818  -1.13128  -1.04739  -1.04094
 Alpha  occ. eigenvalues --   -0.85925  -0.83101  -0.80829  -0.77489  -0.73955
 Alpha  occ. eigenvalues --   -0.72969  -0.71960  -0.70373  -0.70183  -0.67006
 Alpha  occ. eigenvalues --   -0.62766  -0.62580  -0.58863  -0.55756  -0.53098
 Alpha  occ. eigenvalues --   -0.52490  -0.51024  -0.49201  -0.48358  -0.47078
 Alpha  occ. eigenvalues --   -0.46324  -0.45460  -0.44781  -0.44199  -0.43849
 Alpha  occ. eigenvalues --   -0.42822  -0.42420  -0.42342  -0.41539  -0.40986
 Alpha  occ. eigenvalues --   -0.40773  -0.40610  -0.40099  -0.39779  -0.39072
 Alpha  occ. eigenvalues --   -0.37948  -0.37728  -0.37376  -0.36459  -0.36294
 Alpha  occ. eigenvalues --   -0.35537  -0.34288  -0.33494  -0.32137  -0.31068
 Alpha  occ. eigenvalues --   -0.30196  -0.29689  -0.28110  -0.27044
 Alpha virt. eigenvalues --    0.00498   0.00802   0.03769   0.05733   0.05865
 Alpha virt. eigenvalues --    0.06239   0.07353   0.08109   0.08687   0.09120
 Alpha virt. eigenvalues --    0.09265   0.09927   0.10516   0.10643   0.11181
 Alpha virt. eigenvalues --    0.12167   0.12628   0.13348   0.13433   0.14185
 Alpha virt. eigenvalues --    0.14259   0.14546   0.14576   0.14977   0.15659
 Alpha virt. eigenvalues --    0.15989   0.16711   0.17093   0.17779   0.18230
 Alpha virt. eigenvalues --    0.18770   0.19101   0.19427   0.20074   0.21258
 Alpha virt. eigenvalues --    0.21538   0.22971   0.23419   0.23834   0.24330
 Alpha virt. eigenvalues --    0.25075   0.25775   0.26700   0.27132   0.28366
 Alpha virt. eigenvalues --    0.28588   0.30100   0.31028   0.32247   0.32979
 Alpha virt. eigenvalues --    0.33210   0.33379   0.33721   0.35059   0.36205
 Alpha virt. eigenvalues --    0.37299   0.37933   0.38695   0.39673   0.40299
 Alpha virt. eigenvalues --    0.41808   0.42197   0.43204   0.43940   0.44326
 Alpha virt. eigenvalues --    0.45198   0.46143   0.47270   0.47710   0.49076
 Alpha virt. eigenvalues --    0.49747   0.50288   0.50694   0.51480   0.52727
 Alpha virt. eigenvalues --    0.53044   0.53941   0.54704   0.55472   0.56017
 Alpha virt. eigenvalues --    0.56696   0.57258   0.57898   0.58377   0.58855
 Alpha virt. eigenvalues --    0.59374   0.59593   0.59985   0.60537   0.61139
 Alpha virt. eigenvalues --    0.61531   0.61630   0.61835   0.62740   0.63264
 Alpha virt. eigenvalues --    0.63464   0.63776   0.64455   0.64931   0.65928
 Alpha virt. eigenvalues --    0.66109   0.66481   0.66907   0.68058   0.68145
 Alpha virt. eigenvalues --    0.69119   0.69195   0.70432   0.70736   0.71631
 Alpha virt. eigenvalues --    0.71632   0.72892   0.74055   0.74739   0.75095
 Alpha virt. eigenvalues --    0.75588   0.77539   0.78368   0.78774   0.80529
 Alpha virt. eigenvalues --    0.81388   0.83622   0.86416   0.87275   0.88624
 Alpha virt. eigenvalues --    0.89534   0.90853   0.91064   0.92546   0.94301
 Alpha virt. eigenvalues --    0.96005   0.96441   0.97541   0.98624   0.99367
 Alpha virt. eigenvalues --    1.01979   1.04873   1.07069   1.07615   1.11344
 Alpha virt. eigenvalues --    1.12795   1.13396   1.16688   1.17769   1.19439
 Alpha virt. eigenvalues --    1.20350   1.23158   1.25188   1.26157   1.27873
 Alpha virt. eigenvalues --    1.29248   1.30929   1.31138   1.31971   1.32567
 Alpha virt. eigenvalues --    1.34865   1.38483   1.39602   1.40740   1.41545
 Alpha virt. eigenvalues --    1.41804   1.43365   1.44651   1.47367   1.48408
 Alpha virt. eigenvalues --    1.50607   1.51569   1.52276   1.53007   1.53743
 Alpha virt. eigenvalues --    1.54500   1.55007   1.55507   1.56301   1.57536
 Alpha virt. eigenvalues --    1.58781   1.59533   1.59902   1.60366   1.60922
 Alpha virt. eigenvalues --    1.61461   1.62508   1.62721   1.63783   1.64471
 Alpha virt. eigenvalues --    1.64946   1.65743   1.66781   1.67974   1.68740
 Alpha virt. eigenvalues --    1.69751   1.71449   1.72130   1.73600   1.75129
 Alpha virt. eigenvalues --    1.75848   1.77433   1.79261   1.79722   1.80926
 Alpha virt. eigenvalues --    1.81241   1.82784   1.83795   1.86906   1.87584
 Alpha virt. eigenvalues --    1.88930   1.91562   1.94381   1.95362   1.96145
 Alpha virt. eigenvalues --    1.99403   2.03854   2.07075   2.08408   2.11222
 Alpha virt. eigenvalues --    2.14021   2.16755   2.20882   2.23385   2.27037
 Alpha virt. eigenvalues --    2.28296   2.30712   2.33983   2.36729   2.40209
 Alpha virt. eigenvalues --    2.41189   2.41977   2.42248   2.42464   2.42853
 Alpha virt. eigenvalues --    2.44663   2.45366   2.46209   2.47160   2.47513
 Alpha virt. eigenvalues --    2.47584   2.47932   2.49094   2.50426   2.52275
 Alpha virt. eigenvalues --    2.52903   2.53749   2.54904   2.57785   2.59680
 Alpha virt. eigenvalues --    2.61967   2.63352   2.66572   2.73209   2.79845
 Alpha virt. eigenvalues --    2.84202   2.86900   2.87987   2.90184   2.90687
 Alpha virt. eigenvalues --    2.92041   2.93237   2.93574   2.95809   2.96627
 Alpha virt. eigenvalues --    2.98868   3.02276   3.02521   3.04643   3.06048
 Alpha virt. eigenvalues --    3.08113   3.10739   3.13451   3.14354   3.15231
 Alpha virt. eigenvalues --    3.15570   3.16558   3.17793   3.18483   3.21022
 Alpha virt. eigenvalues --    3.22633   3.22730   3.23451   3.23708   3.25213
 Alpha virt. eigenvalues --    3.26017   3.27722   3.28966   3.30636   3.33239
 Alpha virt. eigenvalues --    3.34611   3.35304   3.37366   3.39310   3.40653
 Alpha virt. eigenvalues --    3.43448   3.50755   3.57501   3.60562   3.65424
 Alpha virt. eigenvalues --    3.78820   3.88135   3.88809   3.98527   4.04130
 Alpha virt. eigenvalues --    4.08410   4.14116   4.19078   4.22514   4.26513
 Alpha virt. eigenvalues --    4.93944   5.00208   5.01760   5.10476   5.15091
 Alpha virt. eigenvalues --    5.23449   5.53023   5.56751   5.76526   5.85418
 Alpha virt. eigenvalues --   11.52234  11.53249  11.56946  23.40885  23.48568
 Alpha virt. eigenvalues --   23.54061  23.54344  23.56760  23.60244  23.72275
 Alpha virt. eigenvalues --   23.75442  23.78416  23.78658  23.82626  23.88059
 Alpha virt. eigenvalues --   23.88313  24.28608  49.98569  50.04850  50.13217
 Alpha virt. eigenvalues --  141.27608
          Condensed to atoms (all electrons):
               1          2          3          4          5          6
     1  C    5.206083   0.244437  -0.049650  -0.005757  -0.046733   0.394498
     2  C    0.244437   5.611552   0.257029  -0.081124  -0.016592  -0.039786
     3  C   -0.049650   0.257029   5.186917   0.249038  -0.019473  -0.018792
     4  C   -0.005757  -0.081124   0.249038   5.859527   0.239360   0.003074
     5  C   -0.046733  -0.016592  -0.019473   0.239360   4.380325  -0.001434
     6  H    0.394498  -0.039786  -0.018792   0.003074  -0.001434   0.473762
     7  H   -0.040120   0.401917  -0.060894  -0.005628   0.000017   0.006281
     8  H    0.002017  -0.008937  -0.033115   0.370551  -0.022231  -0.000137
     9  H   -0.001131   0.008666  -0.028137   0.358020  -0.025969   0.000251
    10  O    0.211523  -0.032138   0.006773  -0.109041   0.348303  -0.030773
    11  O    0.002581  -0.000505   0.004495  -0.095884   0.670042  -0.000101
    12  C    0.340377  -0.058430   0.010506  -0.001812   0.002273  -0.052140
    13  C   -0.072258  -0.007833  -0.000995   0.000195   0.000051   0.007825
    14  C   -0.058768   0.285414  -0.052696   0.006833   0.000285  -0.000463
    15  O    0.003749  -0.060486   0.221521  -0.029135   0.001818  -0.000072
    16  Si   0.000123   0.002110  -0.044055  -0.009126   0.001593  -0.000082
    17  C    0.000007  -0.000326   0.001471  -0.005236  -0.000230   0.000000
    18  C   -0.000003   0.000048   0.002563  -0.000283  -0.000005   0.000000
    19  C    0.000006  -0.000229  -0.000330  -0.000192   0.000004   0.000000
    20  H   -0.000002   0.000050   0.000015   0.000027  -0.000001   0.000000
    21  H   -0.000001   0.000074  -0.000135  -0.000017   0.000000   0.000000
    22  H    0.000000   0.000002  -0.000064  -0.000002   0.000000   0.000000
    23  H    0.000000   0.000004  -0.000016  -0.000008   0.000000   0.000000
    24  H    0.000001   0.000014   0.000234  -0.000017   0.000001   0.000000
    25  H    0.000004  -0.000071   0.000208  -0.000060   0.000005  -0.000001
    26  H    0.000006  -0.000080   0.000974  -0.000915  -0.000161  -0.000001
    27  H    0.000000  -0.000083   0.000521   0.000201  -0.000115   0.000000
    28  H    0.000000   0.000007  -0.000125   0.000335   0.000002   0.000000
    29  H   -0.003412  -0.043069  -0.006115  -0.000076  -0.000012   0.005289
    30  H    0.006503  -0.039241  -0.007924   0.000440  -0.000085  -0.000204
    31  H   -0.007502  -0.032507   0.006347  -0.000340  -0.000009  -0.000272
    32  H   -0.037303  -0.007016  -0.000390   0.000114  -0.000063  -0.000495
    33  H   -0.049004   0.009140  -0.000117   0.000267  -0.000174  -0.006729
    34  H   -0.007576  -0.000564  -0.000470   0.000804   0.000164   0.000426
    35  H    0.007621  -0.000033   0.000008  -0.000016   0.000013  -0.000176
    36  H   -0.008344   0.004344   0.000246   0.000045  -0.000009  -0.000311
    37  C    0.003130  -0.088747   0.298909  -0.111442   0.002527   0.006526
    38  C   -0.002287  -0.005512  -0.051590   0.007951  -0.000438   0.000644
    39  C   -0.000638   0.001433  -0.000056  -0.000034  -0.000030   0.002165
    40  H   -0.000338   0.007607  -0.047151  -0.003564  -0.000439   0.000531
    41  H   -0.000408  -0.003070  -0.021229  -0.007757   0.003262  -0.003595
    42  H    0.000086  -0.000668  -0.001591  -0.000116  -0.000009  -0.000043
    43  H    0.000015  -0.000015  -0.000273   0.000014   0.000000   0.000023
    44  H    0.000158  -0.000078   0.000166  -0.000038  -0.000013   0.000504
               7          8          9         10         11         12
     1  C   -0.040120   0.002017  -0.001131   0.211523   0.002581   0.340377
     2  C    0.401917  -0.008937   0.008666  -0.032138  -0.000505  -0.058430
     3  C   -0.060894  -0.033115  -0.028137   0.006773   0.004495   0.010506
     4  C   -0.005628   0.370551   0.358020  -0.109041  -0.095884  -0.001812
     5  C    0.000017  -0.022231  -0.025969   0.348303   0.670042   0.002273
     6  H    0.006281  -0.000137   0.000251  -0.030773  -0.000101  -0.052140
     7  H    0.475585   0.003304   0.000308   0.000927  -0.000198  -0.013700
     8  H    0.003304   0.404932  -0.014031   0.000801   0.000521  -0.000045
     9  H    0.000308  -0.014031   0.420155   0.004745   0.011896   0.000028
    10  O    0.000927   0.000801   0.004745   8.046229  -0.077349  -0.061226
    11  O   -0.000198   0.000521   0.011896  -0.077349   7.869866  -0.000138
    12  C   -0.013700  -0.000045   0.000028  -0.061226  -0.000138   5.321773
    13  C    0.005706   0.000108   0.000015   0.001301  -0.000027   0.287210
    14  C   -0.036579  -0.000050  -0.000111   0.003555   0.000004  -0.006105
    15  O    0.004865  -0.000941  -0.001620  -0.000020  -0.000021  -0.000064
    16  Si   0.000156   0.000420  -0.002159  -0.000128  -0.000291   0.000022
    17  C   -0.000027   0.000264  -0.002888  -0.000002  -0.000016   0.000000
    18  C   -0.000059  -0.000170   0.000043   0.000000   0.000000   0.000000
    19  C    0.000047   0.000076  -0.000242   0.000000   0.000000   0.000000
    20  H   -0.000021   0.000026   0.000012   0.000000   0.000000   0.000000
    21  H   -0.000031  -0.000019  -0.000003   0.000000   0.000000   0.000000
    22  H   -0.000001   0.000003  -0.000002   0.000000   0.000000   0.000000
    23  H    0.000000   0.000000   0.000000   0.000000   0.000000   0.000000
    24  H    0.000006   0.000001  -0.000007   0.000000   0.000000   0.000000
    25  H    0.000008   0.000016  -0.000073   0.000000   0.000000   0.000000
    26  H    0.000001  -0.000131   0.001521  -0.000002  -0.000054   0.000000
    27  H   -0.000018   0.000998  -0.001114   0.000001   0.000005   0.000000
    28  H    0.000000  -0.000013   0.000286   0.000000   0.000000   0.000000
    29  H    0.006941  -0.000027   0.000026   0.000034   0.000000  -0.002076
    30  H   -0.002288   0.000068  -0.000046  -0.000118   0.000000   0.000040
    31  H   -0.008377  -0.000023   0.000016  -0.000021   0.000000   0.002146
    32  H    0.000303  -0.000004  -0.000004   0.003638   0.000007   0.386657
    33  H   -0.000218   0.000003  -0.000013   0.003345  -0.000028   0.404890
    34  H    0.000557  -0.000016  -0.000008   0.009596  -0.000138  -0.043829
    35  H    0.000169  -0.000002   0.000000  -0.000165  -0.000001  -0.034923
    36  H   -0.001175  -0.000039   0.000001   0.000065   0.000001  -0.034799
    37  C    0.010029   0.007503  -0.006652  -0.004673   0.000087  -0.000915
    38  C   -0.000568  -0.000227   0.000046   0.000320  -0.000001   0.000048
    39  C   -0.000063   0.000002  -0.000004  -0.000011   0.000000   0.000015
    40  H   -0.000123  -0.000185   0.003505  -0.000141  -0.000025   0.000004
    41  H   -0.000509   0.000219  -0.000016   0.003109  -0.000227   0.000671
    42  H   -0.000107   0.000021   0.000009   0.000001   0.000000   0.000015
    43  H   -0.000002  -0.000001   0.000000   0.000000   0.000000  -0.000001
    44  H    0.000003   0.000002   0.000004  -0.000029   0.000000  -0.000001
              13         14         15         16         17         18
     1  C   -0.072258  -0.058768   0.003749   0.000123   0.000007  -0.000003
     2  C   -0.007833   0.285414  -0.060486   0.002110  -0.000326   0.000048
     3  C   -0.000995  -0.052696   0.221521  -0.044055   0.001471   0.002563
     4  C    0.000195   0.006833  -0.029135  -0.009126  -0.005236  -0.000283
     5  C    0.000051   0.000285   0.001818   0.001593  -0.000230  -0.000005
     6  H    0.007825  -0.000463  -0.000072  -0.000082   0.000000   0.000000
     7  H    0.005706  -0.036579   0.004865   0.000156  -0.000027  -0.000059
     8  H    0.000108  -0.000050  -0.000941   0.000420   0.000264  -0.000170
     9  H    0.000015  -0.000111  -0.001620  -0.002159  -0.002888   0.000043
    10  O    0.001301   0.003555  -0.000020  -0.000128  -0.000002   0.000000
    11  O   -0.000027   0.000004  -0.000021  -0.000291  -0.000016   0.000000
    12  C    0.287210  -0.006105  -0.000064   0.000022   0.000000   0.000000
    13  C    5.377070  -0.000914  -0.000004  -0.000014   0.000000   0.000000
    14  C   -0.000914   5.419814  -0.007776   0.000220   0.000001  -0.000028
    15  O   -0.000004  -0.007776   8.274942   0.356055  -0.024214  -0.030680
    16  Si  -0.000014   0.000220   0.356055  11.511565   0.316243   0.334867
    17  C    0.000000   0.000001  -0.024214   0.316243   5.783150  -0.043860
    18  C    0.000000  -0.000028  -0.030680   0.334867  -0.043860   5.721988
    19  C    0.000000  -0.000015  -0.025553   0.312224  -0.054713  -0.049345
    20  H    0.000000   0.000009  -0.001626  -0.023539  -0.000702   0.370406
    21  H    0.000000   0.000046  -0.001755  -0.022861   0.002164   0.369825
    22  H    0.000000   0.000000   0.001222  -0.014361   0.000095   0.361748
    23  H    0.000000  -0.000001   0.000858  -0.010022   0.000126  -0.000123
    24  H    0.000000  -0.000014  -0.002436  -0.026023   0.002182  -0.000596
    25  H    0.000000   0.000013  -0.001923  -0.028055  -0.000945   0.002155
    26  H    0.000000   0.000000  -0.001303  -0.026314   0.369087   0.002289
    27  H    0.000000   0.000003  -0.002050  -0.024748   0.369437  -0.000283
    28  H    0.000000   0.000000   0.000791  -0.010258   0.363135  -0.000425
    29  H    0.000331   0.384971  -0.000074  -0.000173   0.000000   0.000001
    30  H   -0.000127   0.385886   0.009840   0.001546   0.000036   0.000147
    31  H    0.000151   0.387302  -0.000020  -0.000009   0.000000   0.000000
    32  H   -0.036728   0.003144   0.000000  -0.000003   0.000000   0.000000
    33  H   -0.042748  -0.000493   0.000004   0.000001   0.000000   0.000000
    34  H    0.385271   0.000219   0.000003  -0.000001   0.000000   0.000000
    35  H    0.391273  -0.000041   0.000000   0.000000   0.000000   0.000000
    36  H    0.384109   0.000299  -0.000032  -0.000014   0.000000   0.000000
    37  C    0.000021  -0.002712  -0.061251  -0.009024  -0.000910  -0.000147
    38  C   -0.000006  -0.014263   0.004389  -0.001948   0.000089  -0.000050
    39  C    0.000000  -0.003541   0.000623   0.000473   0.000001  -0.000001
    40  H    0.000001  -0.000420  -0.003875   0.005830   0.000574   0.000009
    41  H   -0.000022   0.000429   0.003870   0.001404  -0.000048   0.000011
    42  H    0.000000  -0.000170   0.003879   0.000611   0.000036  -0.000076
    43  H    0.000000   0.000057   0.000015   0.000032   0.000000   0.000000
    44  H    0.000000   0.000058  -0.000001  -0.000011   0.000000   0.000000
              19         20         21         22         23         24
     1  C    0.000006  -0.000002  -0.000001   0.000000   0.000000   0.000001
     2  C   -0.000229   0.000050   0.000074   0.000002   0.000004   0.000014
     3  C   -0.000330   0.000015  -0.000135  -0.000064  -0.000016   0.000234
     4  C   -0.000192   0.000027  -0.000017  -0.000002  -0.000008  -0.000017
     5  C    0.000004  -0.000001   0.000000   0.000000   0.000000   0.000001
     6  H    0.000000   0.000000   0.000000   0.000000   0.000000   0.000000
     7  H    0.000047  -0.000021  -0.000031  -0.000001   0.000000   0.000006
     8  H    0.000076   0.000026  -0.000019   0.000003   0.000000   0.000001
     9  H   -0.000242   0.000012  -0.000003  -0.000002   0.000000  -0.000007
    10  O    0.000000   0.000000   0.000000   0.000000   0.000000   0.000000
    11  O    0.000000   0.000000   0.000000   0.000000   0.000000   0.000000
    12  C    0.000000   0.000000   0.000000   0.000000   0.000000   0.000000
    13  C    0.000000   0.000000   0.000000   0.000000   0.000000   0.000000
    14  C   -0.000015   0.000009   0.000046   0.000000  -0.000001  -0.000014
    15  O   -0.025553  -0.001626  -0.001755   0.001222   0.000858  -0.002436
    16  Si   0.312224  -0.023539  -0.022861  -0.014361  -0.010022  -0.026023
    17  C   -0.054713  -0.000702   0.002164   0.000095   0.000126   0.002182
    18  C   -0.049345   0.370406   0.369825   0.361748  -0.000123  -0.000596
    19  C    5.781207   0.002123  -0.000962   0.000795   0.361534   0.371072
    20  H    0.002123   0.454239  -0.019548  -0.021929  -0.000061  -0.000061
    21  H   -0.000962  -0.019548   0.452637  -0.021876  -0.000070   0.001159
    22  H    0.000795  -0.021929  -0.021876   0.461271   0.000569   0.000006
    23  H    0.361534  -0.000061  -0.000070   0.000569   0.449617  -0.022317
    24  H    0.371072  -0.000061   0.001159   0.000006  -0.022317   0.451924
    25  H    0.370090  -0.000092  -0.000107  -0.000029  -0.021742  -0.019748
    26  H   -0.000624  -0.000067  -0.000079  -0.000054   0.000029  -0.000023
    27  H    0.002169   0.001138  -0.000060  -0.000070  -0.000037  -0.000086
    28  H    0.000077  -0.000041  -0.000076   0.000552   0.000371  -0.000070
    29  H    0.000008   0.000000  -0.000005   0.000000   0.000000  -0.000002
    30  H    0.000103  -0.000027   0.000335  -0.000006  -0.000006   0.000076
    31  H   -0.000003   0.000002   0.000004   0.000000   0.000000  -0.000002
    32  H    0.000000   0.000000   0.000000   0.000000   0.000000   0.000000
    33  H    0.000000   0.000000   0.000000   0.000000   0.000000   0.000000
    34  H    0.000000   0.000000   0.000000   0.000000   0.000000   0.000000
    35  H    0.000000   0.000000   0.000000   0.000000   0.000000   0.000000
    36  H    0.000000   0.000000   0.000000   0.000000   0.000000   0.000000
    37  C    0.001784  -0.000018  -0.000028   0.000009  -0.000014   0.000229
    38  C   -0.003466   0.000002  -0.000002  -0.000001   0.000168  -0.000413
    39  C   -0.000188   0.000000   0.000000   0.000000   0.000004  -0.000073
    40  H    0.000670   0.000002   0.000007   0.000008   0.000029  -0.000087
    41  H   -0.000011   0.000001   0.000000   0.000000  -0.000001  -0.000019
    42  H   -0.001091   0.000001  -0.000020   0.000000   0.000309   0.001376
    43  H    0.000015   0.000000   0.000000   0.000000  -0.000002  -0.000011
    44  H   -0.000006   0.000000   0.000000   0.000000   0.000001   0.000000
              25         26         27         28         29         30
     1  C    0.000004   0.000006   0.000000   0.000000  -0.003412   0.006503
     2  C   -0.000071  -0.000080  -0.000083   0.000007  -0.043069  -0.039241
     3  C    0.000208   0.000974   0.000521  -0.000125  -0.006115  -0.007924
     4  C   -0.000060  -0.000915   0.000201   0.000335  -0.000076   0.000440
     5  C    0.000005  -0.000161  -0.000115   0.000002  -0.000012  -0.000085
     6  H   -0.000001  -0.000001   0.000000   0.000000   0.005289  -0.000204
     7  H    0.000008   0.000001  -0.000018   0.000000   0.006941  -0.002288
     8  H    0.000016  -0.000131   0.000998  -0.000013  -0.000027   0.000068
     9  H   -0.000073   0.001521  -0.001114   0.000286   0.000026  -0.000046
    10  O    0.000000  -0.000002   0.000001   0.000000   0.000034  -0.000118
    11  O    0.000000  -0.000054   0.000005   0.000000   0.000000   0.000000
    12  C    0.000000   0.000000   0.000000   0.000000  -0.002076   0.000040
    13  C    0.000000   0.000000   0.000000   0.000000   0.000331  -0.000127
    14  C    0.000013   0.000000   0.000003   0.000000   0.384971   0.385886
    15  O   -0.001923  -0.001303  -0.002050   0.000791  -0.000074   0.009840
    16  Si  -0.028055  -0.026314  -0.024748  -0.010258  -0.000173   0.001546
    17  C   -0.000945   0.369087   0.369437   0.363135   0.000000   0.000036
    18  C    0.002155   0.002289  -0.000283  -0.000425   0.000001   0.000147
    19  C    0.370090  -0.000624   0.002169   0.000077   0.000008   0.000103
    20  H   -0.000092  -0.000067   0.001138  -0.000041   0.000000  -0.000027
    21  H   -0.000107  -0.000079  -0.000060  -0.000076  -0.000005   0.000335
    22  H   -0.000029  -0.000054  -0.000070   0.000552   0.000000  -0.000006
    23  H   -0.021742   0.000029  -0.000037   0.000371   0.000000  -0.000006
    24  H   -0.019748  -0.000023  -0.000086  -0.000070  -0.000002   0.000076
    25  H    0.448274   0.000880  -0.000049   0.000031   0.000000   0.000005
    26  H    0.000880   0.447834  -0.020300  -0.020727   0.000000   0.000003
    27  H   -0.000049  -0.020300   0.445979  -0.020427   0.000000   0.000001
    28  H    0.000031  -0.020727  -0.020427   0.442821   0.000000   0.000000
    29  H    0.000000   0.000000   0.000000   0.000000   0.458928  -0.024244
    30  H    0.000005   0.000003   0.000001   0.000000  -0.024244   0.433325
    31  H   -0.000001   0.000000   0.000000   0.000000  -0.025973  -0.024609
    32  H    0.000000   0.000000   0.000000   0.000000   0.000390   0.000313
    33  H    0.000000   0.000000   0.000000   0.000000  -0.000213   0.000033
    34  H    0.000000   0.000000   0.000000   0.000000   0.000002   0.000024
    35  H    0.000000   0.000000   0.000000   0.000000   0.000015  -0.000005
    36  H    0.000000   0.000000   0.000000   0.000000  -0.000134  -0.000044
    37  C    0.001135   0.000108   0.000050   0.000032   0.001885   0.000372
    38  C    0.000657   0.000028   0.000007  -0.000004   0.003691   0.000084
    39  C    0.000329   0.000000   0.000000   0.000000   0.001822   0.000171
    40  H    0.001066   0.001716  -0.000119   0.000008   0.000231  -0.000078
    41  H   -0.000037  -0.000043   0.000006  -0.000001  -0.000422  -0.000087
    42  H   -0.001646   0.000007   0.000000   0.000001  -0.001283   0.000283
    43  H    0.000015   0.000000   0.000000   0.000000   0.000049  -0.000003
    44  H   -0.000011   0.000000   0.000000   0.000000  -0.000060  -0.000011
              31         32         33         34         35         36
     1  C   -0.007502  -0.037303  -0.049004  -0.007576   0.007621  -0.008344
     2  C   -0.032507  -0.007016   0.009140  -0.000564  -0.000033   0.004344
     3  C    0.006347  -0.000390  -0.000117  -0.000470   0.000008   0.000246
     4  C   -0.000340   0.000114   0.000267   0.000804  -0.000016   0.000045
     5  C   -0.000009  -0.000063  -0.000174   0.000164   0.000013  -0.000009
     6  H   -0.000272  -0.000495  -0.006729   0.000426  -0.000176  -0.000311
     7  H   -0.008377   0.000303  -0.000218   0.000557   0.000169  -0.001175
     8  H   -0.000023  -0.000004   0.000003  -0.000016  -0.000002  -0.000039
     9  H    0.000016  -0.000004  -0.000013  -0.000008   0.000000   0.000001
    10  O   -0.000021   0.003638   0.003345   0.009596  -0.000165   0.000065
    11  O    0.000000   0.000007  -0.000028  -0.000138  -0.000001   0.000001
    12  C    0.002146   0.386657   0.404890  -0.043829  -0.034923  -0.034799
    13  C    0.000151  -0.036728  -0.042748   0.385271   0.391273   0.384109
    14  C    0.387302   0.003144  -0.000493   0.000219  -0.000041   0.000299
    15  O   -0.000020   0.000000   0.000004   0.000003   0.000000  -0.000032
    16  Si  -0.000009  -0.000003   0.000001  -0.000001   0.000000  -0.000014
    17  C    0.000000   0.000000   0.000000   0.000000   0.000000   0.000000
    18  C    0.000000   0.000000   0.000000   0.000000   0.000000   0.000000
    19  C   -0.000003   0.000000   0.000000   0.000000   0.000000   0.000000
    20  H    0.000002   0.000000   0.000000   0.000000   0.000000   0.000000
    21  H    0.000004   0.000000   0.000000   0.000000   0.000000   0.000000
    22  H    0.000000   0.000000   0.000000   0.000000   0.000000   0.000000
    23  H    0.000000   0.000000   0.000000   0.000000   0.000000   0.000000
    24  H   -0.000002   0.000000   0.000000   0.000000   0.000000   0.000000
    25  H   -0.000001   0.000000   0.000000   0.000000   0.000000   0.000000
    26  H    0.000000   0.000000   0.000000   0.000000   0.000000   0.000000
    27  H    0.000000   0.000000   0.000000   0.000000   0.000000   0.000000
    28  H    0.000000   0.000000   0.000000   0.000000   0.000000   0.000000
    29  H   -0.025973   0.000390  -0.000213   0.000002   0.000015  -0.000134
    30  H   -0.024609   0.000313   0.000033   0.000024  -0.000005  -0.000044
    31  H    0.462461  -0.001460   0.000216  -0.000142  -0.000047   0.002601
    32  H   -0.001460   0.475761  -0.026057   0.007059  -0.003657  -0.005560
    33  H    0.000216  -0.026057   0.469257  -0.003274  -0.005786   0.006202
    34  H   -0.000142   0.007059  -0.003274   0.468381  -0.025866  -0.027876
    35  H   -0.000047  -0.003657  -0.005786  -0.025866   0.464368  -0.027449
    36  H    0.002601  -0.005560   0.006202  -0.027876  -0.027449   0.478484
    37  C   -0.000486   0.000020  -0.000030   0.000015   0.000001  -0.000029
    38  C    0.000538  -0.000009   0.000006  -0.000001   0.000000   0.000002
    39  C    0.000175   0.000005   0.000000   0.000000   0.000000   0.000000
    40  H    0.000025   0.000000  -0.000002   0.000000   0.000000   0.000000
    41  H    0.000001  -0.000031  -0.000013  -0.000007   0.000001   0.000002
    42  H    0.000109  -0.000001   0.000000   0.000000   0.000000   0.000000
    43  H   -0.000005   0.000000   0.000000   0.000000   0.000000   0.000000
    44  H    0.000005   0.000002  -0.000002   0.000000   0.000000   0.000000
              37         38         39         40         41         42
     1  C    0.003130  -0.002287  -0.000638  -0.000338  -0.000408   0.000086
     2  C   -0.088747  -0.005512   0.001433   0.007607  -0.003070  -0.000668
     3  C    0.298909  -0.051590  -0.000056  -0.047151  -0.021229  -0.001591
     4  C   -0.111442   0.007951  -0.000034  -0.003564  -0.007757  -0.000116
     5  C    0.002527  -0.000438  -0.000030  -0.000439   0.003262  -0.000009
     6  H    0.006526   0.000644   0.002165   0.000531  -0.003595  -0.000043
     7  H    0.010029  -0.000568  -0.000063  -0.000123  -0.000509  -0.000107
     8  H    0.007503  -0.000227   0.000002  -0.000185   0.000219   0.000021
     9  H   -0.006652   0.000046  -0.000004   0.003505  -0.000016   0.000009
    10  O   -0.004673   0.000320  -0.000011  -0.000141   0.003109   0.000001
    11  O    0.000087  -0.000001   0.000000  -0.000025  -0.000227   0.000000
    12  C   -0.000915   0.000048   0.000015   0.000004   0.000671   0.000015
    13  C    0.000021  -0.000006   0.000000   0.000001  -0.000022   0.000000
    14  C   -0.002712  -0.014263  -0.003541  -0.000420   0.000429  -0.000170
    15  O   -0.061251   0.004389   0.000623  -0.003875   0.003870   0.003879
    16  Si  -0.009024  -0.001948   0.000473   0.005830   0.001404   0.000611
    17  C   -0.000910   0.000089   0.000001   0.000574  -0.000048   0.000036
    18  C   -0.000147  -0.000050  -0.000001   0.000009   0.000011  -0.000076
    19  C    0.001784  -0.003466  -0.000188   0.000670  -0.000011  -0.001091
    20  H   -0.000018   0.000002   0.000000   0.000002   0.000001   0.000001
    21  H   -0.000028  -0.000002   0.000000   0.000007   0.000000  -0.000020
    22  H    0.000009  -0.000001   0.000000   0.000008   0.000000   0.000000
    23  H   -0.000014   0.000168   0.000004   0.000029  -0.000001   0.000309
    24  H    0.000229  -0.000413  -0.000073  -0.000087  -0.000019   0.001376
    25  H    0.001135   0.000657   0.000329   0.001066  -0.000037  -0.001646
    26  H    0.000108   0.000028   0.000000   0.001716  -0.000043   0.000007
    27  H    0.000050   0.000007   0.000000  -0.000119   0.000006   0.000000
    28  H    0.000032  -0.000004   0.000000   0.000008  -0.000001   0.000001
    29  H    0.001885   0.003691   0.001822   0.000231  -0.000422  -0.001283
    30  H    0.000372   0.000084   0.000171  -0.000078  -0.000087   0.000283
    31  H   -0.000486   0.000538   0.000175   0.000025   0.000001   0.000109
    32  H    0.000020  -0.000009   0.000005   0.000000  -0.000031  -0.000001
    33  H   -0.000030   0.000006   0.000000  -0.000002  -0.000013   0.000000
    34  H    0.000015  -0.000001   0.000000   0.000000  -0.000007   0.000000
    35  H    0.000001   0.000000   0.000000   0.000000   0.000001   0.000000
    36  H   -0.000029   0.000002   0.000000   0.000000   0.000002   0.000000
    37  C    5.497000   0.314153  -0.058289   0.389592   0.380675  -0.050409
    38  C    0.314153   5.069546   0.623645  -0.038441  -0.045446   0.395865
    39  C   -0.058289   0.623645   5.144628  -0.004458   0.002416  -0.037452
    40  H    0.389592  -0.038441  -0.004458   0.459589  -0.026157  -0.000516
    41  H    0.380675  -0.045446   0.002416  -0.026157   0.452910   0.004733
    42  H   -0.050409   0.395865  -0.037452  -0.000516   0.004733   0.455742
    43  H    0.006360  -0.038743   0.393531  -0.000348   0.000111  -0.007832
    44  H   -0.009216  -0.041736   0.389192   0.000267   0.004567   0.006041
              43         44
     1  C    0.000015   0.000158
     2  C   -0.000015  -0.000078
     3  C   -0.000273   0.000166
     4  C    0.000014  -0.000038
     5  C    0.000000  -0.000013
     6  H    0.000023   0.000504
     7  H   -0.000002   0.000003
     8  H   -0.000001   0.000002
     9  H    0.000000   0.000004
    10  O    0.000000  -0.000029
    11  O    0.000000   0.000000
    12  C   -0.000001  -0.000001
    13  C    0.000000   0.000000
    14  C    0.000057   0.000058
    15  O    0.000015  -0.000001
    16  Si   0.000032  -0.000011
    17  C    0.000000   0.000000
    18  C    0.000000   0.000000
    19  C    0.000015  -0.000006
    20  H    0.000000   0.000000
    21  H    0.000000   0.000000
    22  H    0.000000   0.000000
    23  H   -0.000002   0.000001
    24  H   -0.000011   0.000000
    25  H    0.000015  -0.000011
    26  H    0.000000   0.000000
    27  H    0.000000   0.000000
    28  H    0.000000   0.000000
    29  H    0.000049  -0.000060
    30  H   -0.000003  -0.000011
    31  H   -0.000005   0.000005
    32  H    0.000000   0.000002
    33  H    0.000000  -0.000002
    34  H    0.000000   0.000000
    35  H    0.000000   0.000000
    36  H    0.000000   0.000000
    37  C    0.006360  -0.009216
    38  C   -0.038743  -0.041736
    39  C    0.393531   0.389192
    40  H   -0.000348   0.000267
    41  H    0.000111   0.004567
    42  H   -0.007832   0.006041
    43  H    0.453939  -0.033784
    44  H   -0.033784   0.461900
 Mulliken charges:
               1
     1  C   -0.031691
     2  C   -0.306709
     3  C    0.197442
     4  C   -0.629178
     5  C    0.484178
     6  H    0.253808
     7  H    0.253575
     8  H    0.288487
     9  H    0.274672
    10  O   -0.328429
    11  O   -0.384504
    12  C   -0.446472
    13  C   -0.678963
    14  C   -0.693401
    15  O   -0.631514
    16  Si   1.407723
    17  C   -1.073984
    18  C   -1.039965
    19  C   -1.067034
    20  H    0.239681
    21  H    0.241402
    22  H    0.232113
    23  H    0.240800
    24  H    0.243724
    25  H    0.249696
    26  H    0.246394
    27  H    0.249042
    28  H    0.243720
    29  H    0.242757
    30  H    0.259517
    31  H    0.239709
    32  H    0.241364
    33  H    0.241535
    34  H    0.237247
    35  H    0.234695
    36  H    0.229411
    37  C   -0.517162
    38  C   -0.176726
    39  C   -0.455792
    40  H    0.255198
    41  H    0.250757
    42  H    0.233907
    43  H    0.226844
    44  H    0.222126
 Sum of Mulliken charges =   0.00000
 Mulliken charges with hydrogens summed into heavy atoms:
               1
     1  C    0.222117
     2  C   -0.053134
     3  C    0.197442
     4  C   -0.066019
     5  C    0.484178
    10  O   -0.328429
    11  O   -0.384504
    12  C    0.036428
    13  C    0.022390
    14  C    0.048582
    15  O   -0.631514
    16  Si   1.407723
    17  C   -0.334828
    18  C   -0.326770
    19  C   -0.332813
    37  C   -0.011207
    38  C    0.057181
    39  C   -0.006822
 Electronic spatial extent (au):  <R**2>=           5543.3204
 Charge=              0.0000 electrons
 Dipole moment (field-independent basis, Debye):
    X=             -2.6984    Y=              3.1853    Z=              2.6889  Tot=              4.9657
 Quadrupole moment (field-independent basis, Debye-Ang):
   XX=           -118.0072   YY=           -124.6891   ZZ=           -125.2720
   XY=             11.7938   XZ=              9.5862   YZ=             -8.5574
 Traceless Quadrupole moment (field-independent basis, Debye-Ang):
   XX=              4.6489   YY=             -2.0330   ZZ=             -2.6159
   XY=             11.7938   XZ=              9.5862   YZ=             -8.5574
 Octapole moment (field-independent basis, Debye-Ang**2):
  XXX=            -15.2743  YYY=             20.0855  ZZZ=              7.2410  XYY=            -14.0667
  XXY=             15.7150  XXZ=             26.3970  XZZ=             -3.0077  YZZ=             18.1221
  YYZ=             23.6465  XYZ=            -25.5593
 Hexadecapole moment (field-independent basis, Debye-Ang**3):
 XXXX=          -4299.2862 YYYY=          -1760.5387 ZZZZ=          -1351.0990 XXXY=             86.3106
 XXXZ=             50.3034 YYYX=             27.1523 YYYZ=            -60.2720 ZZZX=             22.5300
 ZZZY=            -11.0186 XXYY=          -1093.1014 XXZZ=          -1000.3758 YYZZ=           -572.2670
 XXYZ=            -26.6297 YYXZ=             17.9574 ZZXY=             46.2781
 N-N= 1.624363926991D+03 E-N=-5.743837535854D+03  KE= 1.060531967537D+03
 1\1\GINC-CPU-E-609\SP\RmPW1PW91\6-311G(d)\C14H26O3Si1\KE291\06-Feb-201
 9\0\\# mPW1PW91/6-311g(d) geom=checkpoint nmr=giao scrf=(solvent=chlor
 oform)\\P_ng_correct1ginp011\\0,1\C,0,1.1977840008,-0.1346434351,1.061
 7485803\C,0,-0.2784076226,-0.3376301444,0.7021369453\C,0,-1.1254647129
 ,0.8731769327,1.1884769218\C,0,-0.5793538648,2.0893316845,0.4177697243
 \C,0,0.9275167696,2.2674167003,0.4674462833\H,0,1.3060545461,-0.195223
 725,2.1515484292\H,0,-0.3725486616,-0.3132702817,-0.3908962459\H,0,-0.
 8474269964,1.9763821003,-0.6395444075\H,0,-1.0189356592,3.0282625376,0
 .7593671877\O,0,1.7052821926,1.1896013023,0.6941852694\O,0,1.460534189
 8,3.338531942,0.2627870066\C,0,2.1786891277,-1.1320787315,0.4342663316
 \C,0,2.1586105814,-1.1956943936,-1.0958661704\C,0,-0.7771799181,-1.713
 0510724,1.1688874213\O,0,-2.4657179194,0.6067329462,0.7871479432\Si,0,
 -3.9482111523,1.4056533415,0.8177029057\C,0,-3.8137471992,3.2475478748
 ,0.426233512\C,0,-4.9495788535,0.5360459145,-0.516095058\C,0,-4.796835
 9368,1.1968473112,2.4900505053\H,0,-4.4965937257,0.6733089619,-1.50347
 7202\H,0,-5.0147031704,-0.5399820271,-0.3238840887\H,0,-5.9708992087,0
 .9308131369,-0.5569912175\H,0,-5.7982303074,1.6420702605,2.4561692971\
 H,0,-4.9144714039,0.1397291895,2.7509240393\H,0,-4.2479593839,1.684331
 731,3.3020462971\H,0,-3.2724645542,3.8049187305,1.1979445415\H,0,-3.32
 23920405,3.4320732268,-0.5342691726\H,0,-4.8225652608,3.6734666867,0.3
 678805616\H,0,-0.5388178537,-1.904526772,2.2176211656\H,0,-1.860340061
 4,-1.7708324652,1.0473245186\H,0,-0.3300330567,-2.5092643754,0.5668479
 242\H,0,1.9774273009,-2.1207964863,0.8602383083\H,0,3.1807100389,-0.84
 946194,0.7757024304\H,0,2.3228589502,-0.2055903203,-1.5314006291\H,0,2
 .9525637125,-1.8555910513,-1.4578257486\H,0,1.2100053845,-1.5833056591
 ,-1.4804415088\C,0,-1.0517646342,1.1777154535,2.709845196\C,0,-1.51059
 33451,0.1014621414,3.6561385122\C,0,-0.8625070944,-0.2506795107,4.7681
 563166\H,0,-1.6750447336,2.0705814505,2.8652052183\H,0,-0.0330698062,1
 .484438662,2.974941813\H,0,-2.4561580467,-0.3795741008,3.4161037445\H,
 0,-1.2556370482,-1.0074536865,5.4405986376\H,0,0.0826294372,0.20816995
 96,5.0501519601\\Version=ES64L-G09RevD.01\State=1-A\HF=-1064.3819766\R
 MSD=9.442e-09\Dipole=-1.3715176,-1.3196911,0.440575\Quadrupole=-1.6752
 947,-2.273737,3.9490317,-12.3791235,2.9669178,1.8256975\PG=C01 [X(C14H
 26O3Si1)]\\@


 VIRTUE IS LEARNED AT YOUR MOTHER'S KNEE,
 VICES ARE PICKED UP AT SOME OTHER JOINT.
 Job cpu time:       0 days  0 hours 19 minutes 36.7 seconds.
 File lengths (MBytes):  RWF=    233 Int=      0 D2E=      0 Chk=     19 Scr=      1
 Normal termination of Gaussian 09 at Wed Feb  6 11:36:50 2019.
