 Entering Gaussian System, Link 0=/usr/local/Cluster-Apps/gaussian/g09/g09
 Initial command:
 /usr/local/Cluster-Apps/gaussian/g09/l1.exe "/home/ke291/rds/hpc-work/06Feb0927IP1/Gau-376571.inp" -scrdir="/home/ke291/rds/hpc-work/06Feb0927IP1/"
 Entering Link 1 = /usr/local/Cluster-Apps/gaussian/g09/l1.exe PID=    376576.
  
 Copyright (c) 1988,1990,1992,1993,1995,1998,2003,2009,2013,
            Gaussian, Inc.  All Rights Reserved.
  
 This is part of the Gaussian(R) 09 program.  It is based on
 the Gaussian(R) 03 system (copyright 2003, Gaussian, Inc.),
 the Gaussian(R) 98 system (copyright 1998, Gaussian, Inc.),
 the Gaussian(R) 94 system (copyright 1995, Gaussian, Inc.),
 the Gaussian 92(TM) system (copyright 1992, Gaussian, Inc.),
 the Gaussian 90(TM) system (copyright 1990, Gaussian, Inc.),
 the Gaussian 88(TM) system (copyright 1988, Gaussian, Inc.),
 the Gaussian 86(TM) system (copyright 1986, Carnegie Mellon
 University), and the Gaussian 82(TM) system (copyright 1983,
 Carnegie Mellon University). Gaussian is a federally registered
 trademark of Gaussian, Inc.
  
 This software contains proprietary and confidential information,
 including trade secrets, belonging to Gaussian, Inc.
  
 This software is provided under written license and may be
 used, copied, transmitted, or stored only in accord with that
 written license.
  
 The following legend is applicable only to US Government
 contracts under FAR:
  
                    RESTRICTED RIGHTS LEGEND
  
 Use, reproduction and disclosure by the US Government is
 subject to restrictions as set forth in subparagraphs (a)
 and (c) of the Commercial Computer Software - Restricted
 Rights clause in FAR 52.227-19.
  
 Gaussian, Inc.
 340 Quinnipiac St., Bldg. 40, Wallingford CT 06492
  
  
 ---------------------------------------------------------------
 Warning -- This program may not be used in any manner that
 competes with the business of Gaussian, Inc. or will provide
 assistance to any competitor of Gaussian, Inc.  The licensee
 of this program is prohibited from giving any competitor of
 Gaussian, Inc. access to this program.  By using this program,
 the user acknowledges that Gaussian, Inc. is engaged in the
 business of creating and licensing software in the field of
 computational chemistry and represents and warrants to the
 licensee that it is not a competitor of Gaussian, Inc. and that
 it will not use this program in any manner prohibited above.
 ---------------------------------------------------------------
  

 Cite this work as:
 Gaussian 09, Revision D.01,
 M. J. Frisch, G. W. Trucks, H. B. Schlegel, G. E. Scuseria, 
 M. A. Robb, J. R. Cheeseman, G. Scalmani, V. Barone, B. Mennucci, 
 G. A. Petersson, H. Nakatsuji, M. Caricato, X. Li, H. P. Hratchian, 
 A. F. Izmaylov, J. Bloino, G. Zheng, J. L. Sonnenberg, M. Hada, 
 M. Ehara, K. Toyota, R. Fukuda, J. Hasegawa, M. Ishida, T. Nakajima, 
 Y. Honda, O. Kitao, H. Nakai, T. Vreven, J. A. Montgomery, Jr., 
 J. E. Peralta, F. Ogliaro, M. Bearpark, J. J. Heyd, E. Brothers, 
 K. N. Kudin, V. N. Staroverov, T. Keith, R. Kobayashi, J. Normand, 
 K. Raghavachari, A. Rendell, J. C. Burant, S. S. Iyengar, J. Tomasi, 
 M. Cossi, N. Rega, J. M. Millam, M. Klene, J. E. Knox, J. B. Cross, 
 V. Bakken, C. Adamo, J. Jaramillo, R. Gomperts, R. E. Stratmann, 
 O. Yazyev, A. J. Austin, R. Cammi, C. Pomelli, J. W. Ochterski, 
 R. L. Martin, K. Morokuma, V. G. Zakrzewski, G. A. Voth, 
 P. Salvador, J. J. Dannenberg, S. Dapprich, A. D. Daniels, 
 O. Farkas, J. B. Foresman, J. V. Ortiz, J. Cioslowski, 
 and D. J. Fox, Gaussian, Inc., Wallingford CT, 2013.
 
 ******************************************
 Gaussian 09:  ES64L-G09RevD.01 24-Apr-2013
                 6-Feb-2019 
 ******************************************
 %nprocshared=2
 Will use up to    2 processors via shared memory.
 %mem=6000MB
 %chk=/home/ke291/rds/hpc-work/06Feb0927IP1/P_ng_correct1ginp012.chk
 ----------------------------------------------------------------------
 # mPW1PW91/6-311g(d) geom=checkpoint nmr=giao scrf=(solvent=chloroform
 )
 ----------------------------------------------------------------------
 1/29=2,38=1/1;
 2/12=2,40=1/2;
 3/5=4,6=6,7=1,11=2,14=-4,16=1,25=1,30=1,70=2201,72=7,74=-7/1,2,8,3;
 4//1;
 5/5=2,38=5,53=7/2;
 8/6=1,10=90,11=11/1;
 10/13=100,45=16/2;
 6/7=2,8=2,9=2,10=2,28=1/1;
 99/9=1/99;
 --------------------
 P_ng_correct1ginp012
 --------------------
 Structure from the checkpoint file:  "/home/ke291/rds/hpc-work/06Feb0927IP1/P_ng_correct1ginp012.chk"
 Charge =  0 Multiplicity = 1
 Redundant internal coordinates found in file.
 C,0,0.8886029846,-0.2055500727,0.6544168992
 C,0,-0.6447883833,-0.2522540878,0.7465700093
 C,0,-1.1849386612,1.0089452166,1.4801010342
 C,0,-0.7608610368,2.2091689657,0.6168964064
 C,0,0.7210945273,2.2601636027,0.2953397779
 H,0,1.3116243236,-0.3963464723,1.6490620768
 H,0,-1.0388304695,-0.1820618838,-0.2769733632
 H,0,-1.2757010466,2.1637392587,-0.3503967902
 H,0,-1.0292508575,3.1611839563,1.0802203708
 O,0,1.4140922977,1.1043605307,0.262485688
 O,0,1.2940436953,3.2933235732,0.0190069923
 C,0,1.4856807701,-1.2039344081,-0.3397308956
 C,0,3.0169546617,-1.1950749069,-0.3778351588
 C,0,-1.1253188619,-1.5889026549,1.3326339285
 O,0,-2.6008470479,0.932484536,1.6044532248
 Si,0,-3.9336209514,1.3020306081,0.6437846319
 C,0,-5.3731248008,0.5369181682,1.5812735256
 C,0,-4.180670515,3.168150735,0.5094408952
 C,0,-3.8090934918,0.5456896163,-1.0823670913
 H,0,-4.2064349753,3.6340215678,1.5003449298
 H,0,-3.3936344477,3.6579957082,-0.0721380968
 H,0,-5.1360544516,3.3841845781,0.016940842
 H,0,-4.7494787973,0.7108164722,-1.6216201752
 H,0,-3.0093373295,0.9865874027,-1.6869522555
 H,0,-3.64123031,-0.5354677669,-1.0363709209
 H,0,-5.2632103053,-0.5492645312,1.6645227492
 H,0,-5.4430839864,0.9457679649,2.5945784667
 H,0,-6.3220028777,0.7399452781,1.0724076782
 H,0,-0.9768606164,-2.4030504577,0.6185766128
 H,0,-0.6013128772,-1.8428000443,2.2569615767
 H,0,-2.1922362984,-1.5325583559,1.5569346514
 H,0,1.0798768686,-0.9849637809,-1.3355488395
 H,0,1.1349886649,-2.2045357556,-0.0672121954
 H,0,3.3874114036,-1.9317270866,-1.0970037748
 H,0,3.3993237813,-0.2134422517,-0.6671757748
 H,0,3.4372292516,-1.4455407442,0.6026790578
 C,0,-0.640098338,1.2303084685,2.9186245748
 C,0,-1.0196142379,0.2079131894,3.9543738241
 C,0,-0.1783944087,-0.3150886385,4.8483136155
 H,0,-1.0509301035,2.2003332461,3.2319847529
 H,0,0.4488739983,1.3508961631,2.8959234746
 H,0,-2.0712841389,-0.0699973815,3.9776624617
 H,0,-0.5161644354,-1.01786261,5.6044107769
 H,0,0.8780728303,-0.0557469152,4.8621398261
 Recover connectivity data from disk.
                          Input orientation:                          
 ---------------------------------------------------------------------
 Center     Atomic      Atomic             Coordinates (Angstroms)
 Number     Number       Type             X           Y           Z
 ---------------------------------------------------------------------
      1          6           0        0.888603   -0.205550    0.654417
      2          6           0       -0.644788   -0.252254    0.746570
      3          6           0       -1.184939    1.008945    1.480101
      4          6           0       -0.760861    2.209169    0.616896
      5          6           0        0.721095    2.260164    0.295340
      6          1           0        1.311624   -0.396346    1.649062
      7          1           0       -1.038830   -0.182062   -0.276973
      8          1           0       -1.275701    2.163739   -0.350397
      9          1           0       -1.029251    3.161184    1.080220
     10          8           0        1.414092    1.104361    0.262486
     11          8           0        1.294044    3.293324    0.019007
     12          6           0        1.485681   -1.203934   -0.339731
     13          6           0        3.016955   -1.195075   -0.377835
     14          6           0       -1.125319   -1.588903    1.332634
     15          8           0       -2.600847    0.932485    1.604453
     16         14           0       -3.933621    1.302031    0.643785
     17          6           0       -5.373125    0.536918    1.581274
     18          6           0       -4.180671    3.168151    0.509441
     19          6           0       -3.809093    0.545690   -1.082367
     20          1           0       -4.206435    3.634022    1.500345
     21          1           0       -3.393634    3.657996   -0.072138
     22          1           0       -5.136054    3.384185    0.016941
     23          1           0       -4.749479    0.710816   -1.621620
     24          1           0       -3.009337    0.986587   -1.686952
     25          1           0       -3.641230   -0.535468   -1.036371
     26          1           0       -5.263210   -0.549265    1.664523
     27          1           0       -5.443084    0.945768    2.594578
     28          1           0       -6.322003    0.739945    1.072408
     29          1           0       -0.976861   -2.403050    0.618577
     30          1           0       -0.601313   -1.842800    2.256962
     31          1           0       -2.192236   -1.532558    1.556935
     32          1           0        1.079877   -0.984964   -1.335549
     33          1           0        1.134989   -2.204536   -0.067212
     34          1           0        3.387411   -1.931727   -1.097004
     35          1           0        3.399324   -0.213442   -0.667176
     36          1           0        3.437229   -1.445541    0.602679
     37          6           0       -0.640098    1.230308    2.918625
     38          6           0       -1.019614    0.207913    3.954374
     39          6           0       -0.178394   -0.315089    4.848314
     40          1           0       -1.050930    2.200333    3.231985
     41          1           0        0.448874    1.350896    2.895923
     42          1           0       -2.071284   -0.069997    3.977662
     43          1           0       -0.516164   -1.017863    5.604411
     44          1           0        0.878073   -0.055747    4.862140
 ---------------------------------------------------------------------
                    Distance matrix (angstroms):
                    1          2          3          4          5
     1  C    0.000000
     2  C    1.536868   0.000000
     3  C    2.540931   1.555781   0.000000
     4  C    2.924553   2.467568   1.538019   0.000000
     5  C    2.497346   2.895080   2.569469   1.517297   0.000000
     6  H    1.097574   2.159353   2.869881   3.485581   3.039463
     7  H    2.140803   1.099016   2.127711   2.567928   3.064204
     8  H    3.362647   2.727345   2.166220   1.096713   2.100825
     9  H    3.897996   3.451187   2.194601   1.092261   2.119336
    10  O    1.464792   2.512714   2.871699   2.465082   1.348038
    11  O    3.579140   4.106037   3.674035   2.399062   1.213281
    12  C    1.530230   2.573838   3.916737   4.196589   3.603870
    13  C    2.564095   3.944814   5.095639   5.181724   4.202715
    14  C    2.535651   1.536558   2.602713   3.882069   4.393237
    15  O    3.791300   2.442485   1.423414   2.447599   3.809436
    16  Si   5.052401   3.639064   2.888006   3.300004   4.765061
    17  C    6.373347   4.865870   4.215916   4.999942   6.462407
    18  C    6.091011   4.925227   3.818214   3.553349   4.989748
    19  C    5.064497   3.740929   3.696896   3.866055   5.035881
    20  H    6.435629   5.325095   4.002609   3.831797   5.255480
    21  H    5.813125   4.849380   3.782228   3.083077   4.361189
    22  H    7.041951   5.824733   4.836726   4.569784   5.970521
    23  H    6.148824   4.835733   4.734501   4.813012   6.000199
    24  H    4.700760   3.612181   3.655018   3.443555   4.412210
    25  H    4.846339   3.498250   3.840731   4.308463   5.349662
    26  H    6.243658   4.718122   4.369706   5.383087   6.751256
    27  H    6.721608   5.279586   4.402028   5.237425   6.709041
    28  H    7.284334   5.772469   5.160233   5.769957   7.247077
    29  H    2.882750   2.180041   3.525228   4.617275   4.973238
    30  H    2.732871   2.193857   3.012737   4.374211   4.736141
    31  H    3.473767   2.165748   2.734921   4.114976   4.946095
    32  H    2.145702   2.801170   4.127099   4.171671   3.649572
    33  H    2.139486   2.764281   4.254727   4.852117   4.498477
    34  H    3.505881   4.741100   6.016262   6.106770   5.159439
    35  H    2.837321   4.284277   5.207734   4.982472   3.770686
    36  H    2.834740   4.255291   5.306487   5.566064   4.604790
    37  C    3.086301   2.629797   1.554092   2.504137   3.129708
    38  C    3.834314   3.262247   2.605957   3.900094   4.542062
    39  C    4.328886   4.128653   3.756468   4.961455   5.307596
    40  H    4.024167   3.515313   2.122843   2.631141   3.430384
    41  H    2.764098   2.895843   2.188796   2.719201   2.768376
    42  H    4.452333   3.536674   2.861388   4.266914   5.175570
    43  H    5.209190   4.919483   4.643828   5.945495   6.361014
    44  H    4.210402   4.392680   4.102167   5.083113   5.122865
                    6          7          8          9         10
     6  H    0.000000
     7  H    3.046337   0.000000
     8  H    4.152846   2.358873   0.000000
     9  H    4.296429   3.608235   1.761334   0.000000
    10  O    2.045780   2.821831   2.955147   3.296838   0.000000
    11  O    4.033739   4.196214   2.831256   2.557603   2.205732
    12  C    2.153553   2.724210   4.355062   5.234062   2.386633
    13  C    2.766664   4.181598   5.450622   6.121658   2.875166
    14  C    2.731485   2.139513   4.115523   4.757758   3.853244
    15  O    4.132217   2.687355   2.663351   2.777019   4.236762
    16  Si   5.604254   3.380849   2.965717   3.475959   5.364932
    17  C    6.749922   4.770338   4.813188   5.099712   6.937399
    18  C    6.646027   4.659778   3.191710   3.202699   5.968382
    19  C    5.879616   2.975338   3.093856   4.386926   5.422399
    20  H    6.834834   5.268308   3.765126   3.239534   6.286637
    21  H    6.445128   4.509224   2.606889   2.676763   5.454105
    22  H    7.650412   5.439829   4.065311   4.248073   6.939907
    23  H    6.975682   4.046507   3.974182   5.210023   6.457115
    24  H    5.631359   2.690108   2.485470   4.038175   4.835381
    25  H    5.635750   2.733874   3.654040   4.996762   5.471047
    26  H    6.576631   4.663650   5.226904   5.659969   7.020438
    27  H    6.951356   5.377291   5.246276   5.165585   7.244631
    28  H    7.739248   5.530175   5.432930   5.820282   7.786908
    29  H    3.213398   2.395546   4.678011   5.583598   4.259740
    30  H    2.474085   3.061094   4.827574   5.158266   4.089688
    31  H    3.684631   2.552921   4.259174   4.859116   4.651295
    32  H    3.050915   2.500831   4.053838   5.241651   2.651545
    33  H    2.499269   2.976557   4.997344   5.898430   3.336974
    34  H    3.769239   4.829637   6.250991   7.084134   3.867820
    35  H    3.123604   4.455385   5.254255   5.835561   2.557737
    36  H    2.591124   4.733421   6.012235   6.434237   3.272738
    37  C    2.840249   3.516479   3.458581   2.694337   3.360154
    38  C    3.333806   4.249323   4.735175   4.121002   4.511827
    39  C    3.530151   5.198713   5.863042   5.196822   5.057733
    40  H    3.850981   4.241313   3.589613   2.356649   4.011909
    41  H    2.313408   3.824984   3.764767   2.959522   2.815568
    42  H    4.119824   4.379548   4.935041   4.463355   5.227763
    43  H    4.401349   5.963424   6.794058   6.180290   6.063488
    44  H    3.260037   5.486434   6.060973   5.318782   4.773886
                   11         12         13         14         15
    11  O    0.000000
    12  C    4.515611   0.000000
    13  C    4.824067   1.531774   0.000000
    14  C    5.604914   3.124472   4.498804   0.000000
    15  O    4.822590   5.004383   6.325794   2.934018   0.000000
    16  Si   5.628861   6.051115   7.455853   4.088835   1.683964
    17  C    7.381706   7.332397   8.788136   4.756552   2.800452
    18  C    5.498062   7.207202   8.463498   5.713351   2.948406
    19  C    5.899536   5.625596   7.079658   4.194206   2.971275
    20  H    5.706637   7.693626   8.889606   6.066328   3.144369
    21  H    4.702725   6.893307   8.046204   5.886305   3.296647
    22  H    6.430740   8.063835   9.359328   6.522932   3.867597
    23  H    6.773859   6.647310   8.093016   5.210649   3.882435
    24  H    5.172081   5.178666   6.541379   4.393242   3.317098
    25  H    6.334856   5.217027   6.723108   3.612716   3.195502
    26  H    7.776296   7.070584   8.552744   4.279386   3.047518
    27  H    7.585082   7.825546   9.219040   5.163347   3.009790
    28  H    8.101454   8.169010   9.646950   5.700594   3.763927
    29  H    6.161588   2.901783   4.289825   1.093048   3.838630
    30  H    5.914439   3.392124   4.522561   1.092441   3.482256
    31  H    6.148862   4.151194   5.567127   1.091695   2.499131
    32  H    4.492709   1.097396   2.171090   3.513806   5.086054
    33  H    5.500835   1.094739   2.158076   2.729022   5.156727
    34  H    5.738364   2.172493   1.094120   5.136672   7.166646
    35  H    4.147343   2.179524   1.092487   5.134542   6.517323
    36  H    5.233618   2.180608   1.095797   4.622795   6.566348
    37  C    4.050274   4.589265   5.488458   3.270895   2.379134
    38  C    5.509980   5.168090   6.085253   3.180132   2.923598
    39  C    6.205716   5.520417   6.188478   3.857366   4.236431
    40  H    4.125137   5.548025   6.411496   4.239266   2.580415
    41  H    3.572672   4.251069   4.877961   3.682984   3.338227
    42  H    6.189371   5.707688   6.791637   3.193446   2.630120
    43  H    7.284224   6.274936   6.949935   4.352612   4.914206
    44  H    5.902986   5.361621   5.773233   4.338382   4.867444
                   16         17         18         19         20
    16  Si   0.000000
    17  C    1.880546   0.000000
    18  C    1.887190   3.081259   0.000000
    19  C    1.888692   3.088892   3.090182   0.000000
    20  H    2.499261   3.310553   1.095258   4.045501   0.000000
    21  H    2.520853   4.048861   1.094353   3.298427   1.770289
    22  H    2.484783   3.257340   1.096351   3.320596   1.768360
    23  H    2.479358   3.267675   3.302038   1.096533   4.311228
    24  H    2.527081   4.058447   3.309892   1.095228   4.312866
    25  H    2.506953   3.316856   4.049360   1.095078   4.913148
    26  H    2.497400   1.094899   4.040456   3.295267   4.317825
    27  H    2.492187   1.094915   3.298556   4.043503   3.154894
    28  H    2.490788   1.095689   3.286095   3.315947   3.610323
    29  H    4.740326   5.375625   6.427643   4.428298   6.903181
    30  H    4.857631   5.374923   6.401192   5.210168   6.600375
    31  H    3.449806   3.794915   5.210353   3.728171   5.545606
    32  H    5.855191   7.243287   6.951669   5.129233   7.571157
    33  H    6.204219   7.251801   7.579876   5.747889   8.067019
    34  H    8.190546   9.487590   9.266352   7.611011   9.766795
    35  H    7.601799   9.087047   8.383073   7.260161   8.794810
    36  H    7.866401   9.083509   8.906584   7.701531   9.221353
    37  C    4.003415   4.966975   4.700537   5.149676   4.528588
    38  C    4.544065   4.969195   5.533791   5.767499   5.283588
    39  C    5.864714   6.195538   6.853976   7.006846   6.559686
    40  H    3.976887   4.916621   4.259600   5.381351   3.874435
    41  H    4.927553   6.023831   5.516375   5.882639   5.369563
    42  H    4.057770   4.124703   5.192656   5.385439   4.941227
    43  H    6.455132   6.495617   7.543874   7.615844   7.218135
    44  H    6.541443   7.084688   7.411504   7.593972   7.125186
                   21         22         23         24         25
    21  H    0.000000
    22  H    1.766051   0.000000
    23  H    3.595146   3.159307   0.000000
    24  H    3.145112   3.629690   1.763068   0.000000
    25  H    4.310010   4.325233   1.767472   1.771778   0.000000
    26  H    4.920604   4.266464   3.556748   4.321015   3.150529
    27  H    4.320625   3.561511   4.279325   4.925068   4.315615
    28  H    4.289562   3.084232   3.119530   4.318409   3.641451
    29  H    6.561567   7.152129   5.380269   4.575595   3.650422
    30  H    6.593976   7.273441   6.226687   5.418346   4.668646
    31  H    5.571273   5.933971   4.655688   4.187667   3.133529
    32  H    6.570052   7.717285   6.077738   4.553259   4.751885
    33  H    7.407950   8.400408   6.748512   5.475606   5.151439
    34  H    8.847482  10.106892   8.571303   7.055706   7.166242
    35  H    7.841325   9.287821   8.256404   6.599315   7.057578
    36  H    8.553488   9.857511   8.753261   7.260570   7.322521
    37  C    4.735007   5.768238   6.145787   5.184981   5.269416
    38  C    5.809633   6.522052   6.727296   6.032403   5.686213
    39  C    7.094647   7.848897   7.987949   7.240048   6.831494
    40  H    4.304680   5.331628   6.281354   5.431803   5.693252
    41  H    5.375590   6.604107   6.916703   5.752799   5.979152
    42  H    5.661045   6.083708   6.255746   5.838165   5.274649
    43  H    7.897258   8.481817   8.551304   7.962268   7.355183
    44  H    7.509092   8.454514   8.619519   7.686939   7.446252
                   26         27         28         29         30
    26  H    0.000000
    27  H    1.769881   0.000000
    28  H    1.770227   1.769708   0.000000
    29  H    4.785741   5.921682   6.217309   0.000000
    30  H    4.874167   5.597575   6.387491   1.771785   0.000000
    31  H    3.226348   4.217442   4.738566   1.765053   1.765595
    32  H    7.030293   7.856376   7.972540   3.171710   4.058129
    33  H    6.831967   7.764057   8.097865   2.229265   2.923590
    34  H    9.185341   9.994269  10.301306   4.712985   5.212189
    35  H    8.977143   9.495840   9.921658   5.059499   5.216367
    36  H    8.810702   9.409888  10.011973   4.516776   4.382270
    37  C    5.110070   4.822307   5.994415   4.313343   3.143771
    38  C    4.881070   4.686209   6.058392   4.236331   2.694737
    39  C    6.003892   5.863961   7.287969   4.784120   3.037741
    40  H    5.268826   4.612075   5.880537   5.294009   4.183271
    41  H    6.144499   5.913553   7.038696   4.616399   3.422113
    42  H    3.970983   3.783350   5.212017   4.233717   2.874797
    43  H    6.186820   6.098317   7.572100   5.195145   3.448650
    44  H    6.941446   6.789837   8.175346   5.192152   3.488423
                   31         32         33         34         35
    31  H    0.000000
    32  H    4.401482   0.000000
    33  H    3.762955   1.760418   0.000000
    34  H    6.191542   2.505590   2.491647   0.000000
    35  H    6.160542   2.534127   3.074349   1.771270   0.000000
    36  H    5.710434   3.086417   2.514983   1.768553   1.769756
    37  C    3.449169   5.095462   4.885111   6.507271   5.591003
    38  C    3.186220   5.814989   5.160947   7.036786   6.408063
    39  C    4.046105   6.346033   5.427465   7.118658   6.575030
    40  H    4.247688   5.962283   5.921639   7.450701   6.390190
    41  H    4.133118   4.874399   4.678891   5.945930   4.883440
    42  H    2.830837   6.244773   5.585468   7.682163   7.177928
    43  H    4.410917   7.121199   6.025098   7.809098   7.437132
    44  H    4.746804   6.270208   5.383476   6.732568   6.079055
                   36         37         38         39         40
    36  H    0.000000
    37  C    5.398923   0.000000
    38  C    5.816461   1.504028   0.000000
    39  C    5.689997   2.514980   1.334283   0.000000
    40  H    6.352104   1.099057   2.119567   3.114673   0.000000
    41  H    4.691407   1.095864   2.140837   2.642120   1.756102
    42  H    6.605025   2.204688   1.088019   2.097888   2.598376
    43  H    6.389800   3.504723   2.116273   1.086123   4.033753
    44  H    5.159827   2.781373   2.120088   1.087921   3.386496
                   41         42         43         44
    41  H    0.000000
    42  H    3.088737   0.000000
    43  H    3.725348   2.441957   0.000000
    44  H    2.455374   3.079157   1.849468   0.000000
 Stoichiometry    C14H26O3Si
 Framework group  C1[X(C14H26O3Si)]
 Deg. of freedom   126
 Full point group                 C1      NOp   1
 Largest Abelian subgroup         C1      NOp   1
 Largest concise Abelian subgroup C1      NOp   1
                         Standard orientation:                         
 ---------------------------------------------------------------------
 Center     Atomic      Atomic             Coordinates (Angstroms)
 Number     Number       Type             X           Y           Z
 ---------------------------------------------------------------------
      1          6           0        2.203326   -0.037948    0.495328
      2          6           0        0.722800    0.171546    0.850456
      3          6           0       -0.140716    0.253465   -0.441087
      4          6           0        0.029223   -1.103326   -1.145175
      5          6           0        1.470910   -1.512529   -1.382415
      6          1           0        2.606784    0.895853    0.083131
      7          1           0        0.377764   -0.732331    1.371795
      8          1           0       -0.408287   -1.894550   -0.524426
      9          1           0       -0.482738   -1.130450   -2.109641
     10          8           0        2.420627   -1.040461   -0.550312
     11          8           0        1.794247   -2.285472   -2.259946
     12          6           0        3.072975   -0.477282    1.675286
     13          6           0        4.557645   -0.621238    1.326917
     14          6           0        0.545273    1.353939    1.815568
     15          8           0       -1.501912    0.497183   -0.103667
     16         14           0       -2.831977   -0.428552    0.354240
     17          6           0       -4.094332    0.857231    0.892455
     18          6           0       -3.510137   -1.415657   -1.104256
     19          6           0       -2.439857   -1.592190    1.789282
     20          1           0       -3.698470   -0.765893   -1.965608
     21          1           0       -2.833409   -2.213165   -1.426169
     22          1           0       -4.462218   -1.883979   -0.828211
     23          1           0       -3.362779   -2.078386    2.127235
     24          1           0       -1.737896   -2.387514    1.516821
     25          1           0       -2.021302   -1.049946    2.643670
     26          1           0       -3.732725    1.438566    1.746911
     27          1           0       -4.313078    1.556799    0.079070
     28          1           0       -5.036138    0.380279    1.185799
     29          1           0        0.921198    1.103949    2.811028
     30          1           0        1.065415    2.249016    1.466689
     31          1           0       -0.514500    1.598021    1.910986
     32          1           0        2.679545   -1.426690    2.060143
     33          1           0        2.957571    0.261419    2.474947
     34          1           0        5.130590   -0.927936    2.207126
     35          1           0        4.709179   -1.367885    0.543920
     36          1           0        4.973432    0.328700    0.972644
     37          6           0        0.259095    1.372421   -1.442731
     38          6           0        0.080825    2.793013   -0.982036
     39          6           0        0.974416    3.767232   -1.162875
     40          1           0       -0.387402    1.215078   -2.317495
     41          1           0        1.287399    1.219617   -1.789370
     42          1           0       -0.873768    3.018472   -0.511179
     43          1           0        0.774993    4.787783   -0.849235
     44          1           0        1.936144    3.582819   -1.636840
 ---------------------------------------------------------------------
 Rotational constants (GHZ):      0.4806601      0.2595593      0.2353956
 Standard basis: 6-311G(d) (5D, 7F)
 There are   428 symmetry adapted cartesian basis functions of A   symmetry.
 There are   410 symmetry adapted basis functions of A   symmetry.
   410 basis functions,   720 primitive gaussians,   428 cartesian basis functions
    74 alpha electrons       74 beta electrons
       nuclear repulsion energy      1621.7754173330 Hartrees.
 NAtoms=   44 NActive=   44 NUniq=   44 SFac= 1.00D+00 NAtFMM=   60 NAOKFM=F Big=F
 Integral buffers will be    131072 words long.
 Raffenetti 2 integral format.
 Two-electron integral symmetry is turned on.
 ------------------------------------------------------------------------------
 Polarizable Continuum Model (PCM)
 =================================
 Model                : PCM (using non-symmetric T matrix).
 Atomic radii         : UFF (Universal Force Field).
 Polarization charges : Total charges.
 Charge compensation  : None.
 Solution method      : On-the-fly selection.
 Cavity type          : Scaled VdW (van der Waals Surface) (Alpha=1.100).
 Cavity algorithm     : GePol (No added spheres)
                        Default sphere list used, NSphG=   44.
                        Lebedev-Laikov grids with approx.  5.0 points / Ang**2.
                        Smoothing algorithm: Karplus/York (Gamma=1.0000).
                        Polarization charges: spherical gaussians, with
                                              point-specific exponents (IZeta= 3).
                        Self-potential: point-specific (ISelfS= 7).
                        Self-field    : sphere-specific E.n sum rule (ISelfD= 2).
 Solvent              : Chloroform, Eps=   4.711300 Eps(inf)=   2.090627
 ------------------------------------------------------------------------------
 One-electron integrals computed using PRISM.
 NBasis=   410 RedAO= T EigKep=  1.14D-03  NBF=   410
 NBsUse=   410 1.00D-06 EigRej= -1.00D+00 NBFU=   410
 ExpMin= 6.54D-02 ExpMax= 6.94D+04 ExpMxC= 2.33D+03 IAcc=2 IRadAn=         4 AccDes= 0.00D+00
 Harris functional with IExCor=  908 and IRadAn=       4 diagonalized for initial guess.
 HarFok:  IExCor=  908 AccDes= 0.00D+00 IRadAn=         4 IDoV= 1 UseB2=F ITyADJ=14
 ICtDFT=  3500011 ScaDFX=  1.000000  1.000000  1.000000  1.000000
 FoFCou: FMM=F IPFlag=           0 FMFlag=      100000 FMFlg1=           0
         NFxFlg=           0 DoJE=T BraDBF=F KetDBF=T FulRan=T
         wScrn=  0.000000 ICntrl=     500 IOpCl=  0 I1Cent=   200000004 NGrid=           0
         NMat0=    1 NMatS0=      1 NMatT0=    0 NMatD0=    1 NMtDS0=    0 NMtDT0=    0
 Petite list used in FoFCou.
 Requested convergence on RMS density matrix=1.00D-08 within 128 cycles.
 Requested convergence on MAX density matrix=1.00D-06.
 Requested convergence on             energy=1.00D-06.
 No special actions if energy rises.
 Inv3:  Mode=1 IEnd=    25491675.
 Iteration    1 A*A^-1 deviation from unit magnitude is 5.00D-15 for   2903.
 Iteration    1 A*A^-1 deviation from orthogonality  is 4.57D-15 for   2902   2682.
 Iteration    1 A^-1*A deviation from unit magnitude is 5.66D-15 for   2903.
 Iteration    1 A^-1*A deviation from orthogonality  is 1.21D-12 for   2578   2531.
 Error on total polarization charges =  0.01138
 SCF Done:  E(RmPW1PW91) =  -1064.38265843     A.U. after   13 cycles
            NFock= 13  Conv=0.32D-08     -V/T= 2.0036
 DoSCS=F DFT=T ScalE2(SS,OS)=  1.000000  1.000000
 Range of M.O.s used for correlation:     1   410
 NBasis=   410 NAE=    74 NBE=    74 NFC=     0 NFV=     0
 NROrb=    410 NOA=    74 NOB=    74 NVA=   336 NVB=   336
 NEqPCM:  Using equilibrium solvation (IEInf=0, Eps=   4.7113, EpsInf=   2.0906)
          Differentiating once with respect to magnetic field using GIAOs.
          Electric field/nuclear overlap derivatives assumed to be zero.
 FoFJK:  IHMeth= 1 ICntrl=    6127 DoSepK=F KAlg= 0 I1Cent=   0 FoldK=F
 IRaf=         1 NMat=   1 IRICut=       1 DoRegI=T DoRafI=F ISym2E= 0.
          There are     3 degrees of freedom in the 1st order CPHF.  IDoFFX=0 NUNeed=     3.
      3 vectors produced by pass  0 Test12= 8.29D-13 3.33D-08 XBig12= 3.36D+01 1.00D+00.
 AX will form     3 AO Fock derivatives at one time.
      3 vectors produced by pass  1 Test12= 8.29D-13 3.33D-08 XBig12= 7.56D-02 8.89D-02.
      3 vectors produced by pass  2 Test12= 8.29D-13 3.33D-08 XBig12= 5.38D-04 9.42D-03.
      3 vectors produced by pass  3 Test12= 8.29D-13 3.33D-08 XBig12= 3.09D-06 7.52D-04.
      3 vectors produced by pass  4 Test12= 8.29D-13 3.33D-08 XBig12= 1.46D-08 5.28D-05.
      3 vectors produced by pass  5 Test12= 8.29D-13 3.33D-08 XBig12= 5.12D-11 1.78D-06.
      2 vectors produced by pass  6 Test12= 8.29D-13 3.33D-08 XBig12= 1.58D-13 9.00D-08.
 InvSVY:  IOpt=1 It=  1 EMax= 3.55D-15
 Solved reduced A of dimension    20 with     3 vectors.
 Calculating GIAO nuclear magnetic shielding tensors.
 SCF GIAO Magnetic shielding tensor (ppm):
      1  C    Isotropic =   100.1301   Anisotropy =    50.5988
   XX=    91.7605   YX=   -15.1656   ZX=    -4.3037
   XY=    -3.5648   YY=   106.5553   ZY=    30.2024
   XZ=     5.1531   YZ=    26.6159   ZZ=   102.0744
   Eigenvalues:    73.3084    93.2193   133.8627
      2  C    Isotropic =   139.0414   Anisotropy =    21.8750
   XX=   145.7288   YX=     1.7241   ZX=    12.1016
   XY=    -0.5235   YY=   134.0718   ZY=    -2.8699
   XZ=     9.4078   YZ=   -10.1213   ZZ=   137.3236
   Eigenvalues:   125.8425   137.6570   153.6248
      3  C    Isotropic =   108.3329   Anisotropy =    56.0262
   XX=   142.7989   YX=    -4.9966   ZX=   -13.1409
   XY=    -0.4835   YY=    85.3636   ZY=    -2.0084
   XZ=   -10.2388   YZ=    -1.7300   ZZ=    96.8361
   Eigenvalues:    84.6398    94.6751   145.6837
      4  C    Isotropic =   137.3171   Anisotropy =    30.9413
   XX=   136.5178   YX=   -14.2975   ZX=    -4.4072
   XY=    -6.9480   YY=   144.4356   ZY=     8.3743
   XZ=    -2.6398   YZ=    17.6165   ZZ=   130.9979
   Eigenvalues:   122.4602   131.5465   157.9446
      5  C    Isotropic =    13.7164   Anisotropy =    86.5020
   XX=   -54.1916   YX=   -11.7057   ZX=   -43.7490
   XY=   -18.7070   YY=    58.6004   ZY=   -20.5953
   XZ=   -53.2484   YZ=   -17.5423   ZZ=    36.7405
   Eigenvalues:   -78.6067    48.3715    71.3844
      6  H    Isotropic =    28.0190   Anisotropy =     1.9014
   XX=    28.8328   YX=    -0.2288   ZX=     0.8672
   XY=     0.2552   YY=    29.0133   ZY=    -1.0097
   XZ=     0.6976   YZ=    -0.4089   ZZ=    26.2109
   Eigenvalues:    25.8456    28.9248    29.2866
      7  H    Isotropic =    30.2393   Anisotropy =     4.4409
   XX=    31.4436   YX=     1.7945   ZX=     0.5433
   XY=     2.3260   YY=    30.3216   ZY=    -1.6762
   XZ=     0.4043   YZ=    -2.1928   ZZ=    28.9527
   Eigenvalues:    26.9718    30.5462    33.1999
      8  H    Isotropic =    29.6352   Anisotropy =     4.5705
   XX=    31.2772   YX=     0.9001   ZX=    -1.7069
   XY=     1.8651   YY=    30.7918   ZY=     0.0814
   XZ=    -2.1343   YZ=     1.0862   ZZ=    26.8366
   Eigenvalues:    25.8956    30.3278    32.6822
      9  H    Isotropic =    29.5498   Anisotropy =     4.7502
   XX=    29.9193   YX=     0.1208   ZX=     1.0310
   XY=    -0.5758   YY=    27.8748   ZY=     2.9017
   XZ=     0.1610   YZ=     2.9797   ZZ=    30.8554
   Eigenvalues:    26.0026    29.9303    32.7166
     10  O    Isotropic =    99.2467   Anisotropy =   185.3134
   XX=   148.0869   YX=    69.3933   ZX=    67.4306
   XY=    71.9370   YY=    96.8965   ZY=  -131.9001
   XZ=    73.2553   YZ=  -157.7542   ZZ=    52.7567
   Eigenvalues:  -109.9886   184.9398   222.7890
     11  O    Isotropic =  -105.0504   Anisotropy =   558.4708
   XX=  -208.8778   YX=    12.4894   ZX=   -93.5660
   XY=    15.3169   YY=    29.6007   ZY=  -289.2488
   XZ=   -72.8776   YZ=  -313.1671   ZZ=  -135.8739
   Eigenvalues:  -385.0835  -197.3311   267.2635
     12  C    Isotropic =   156.5324   Anisotropy =    23.9404
   XX=   160.0981   YX=    -2.2843   ZX=    10.4185
   XY=    -3.9009   YY=   148.6602   ZY=    -9.4929
   XZ=     8.2696   YZ=    -6.4647   ZZ=   160.8388
   Eigenvalues:   144.5394   152.5651   172.4927
     13  C    Isotropic =   175.7205   Anisotropy =    21.6778
   XX=   189.8977   YX=    -0.4085   ZX=    -0.8595
   XY=    -0.9194   YY=   169.0766   ZY=    -6.6225
   XZ=    -4.0548   YZ=    -5.0900   ZZ=   168.1871
   Eigenvalues:   162.5721   174.4170   190.1723
     14  C    Isotropic =   175.1503   Anisotropy =    14.5827
   XX=   168.3276   YX=     1.3426   ZX=     2.5123
   XY=    -2.0330   YY=   182.9127   ZY=     3.9673
   XZ=    -0.3613   YZ=     5.1720   ZZ=   174.2105
   Eigenvalues:   168.0276   172.5511   184.8721
     15  O    Isotropic =   248.9026   Anisotropy =    17.2859
   XX=   245.7661   YX=    -2.8037   ZX=     2.6809
   XY=    14.6507   YY=   247.2693   ZY=   -12.1701
   XZ=     5.7378   YZ=    -6.6835   ZZ=   253.6722
   Eigenvalues:   235.4141   250.8671   260.4265
     16  Si   Isotropic =   333.2058   Anisotropy =    40.5853
   XX=   347.9801   YX=    22.7532   ZX=   -15.3917
   XY=     4.4929   YY=   331.1918   ZY=     1.2949
   XZ=   -14.2307   YZ=    -3.4563   ZZ=   320.4455
   Eigenvalues:   312.6310   326.7237   360.2627
     17  C    Isotropic =   187.0701   Anisotropy =    12.3322
   XX=   190.3793   YX=    -3.1101   ZX=    -4.6979
   XY=    -2.7194   YY=   191.5313   ZY=     2.3222
   XZ=    -4.2628   YZ=     2.1951   ZZ=   179.2998
   Eigenvalues:   177.6123   188.3064   195.2916
     18  C    Isotropic =   184.9299   Anisotropy =    13.0476
   XX=   184.8966   YX=     5.7606   ZX=     2.3072
   XY=     5.6446   YY=   181.0196   ZY=     5.7400
   XZ=     0.8080   YZ=     4.8389   ZZ=   188.8734
   Eigenvalues:   175.9332   185.2282   193.6282
     19  C    Isotropic =   186.1198   Anisotropy =     9.4612
   XX=   186.7847   YX=     1.2906   ZX=     1.1807
   XY=     1.1832   YY=   184.2067   ZY=    -6.7943
   XZ=     3.2243   YZ=    -5.7272   ZZ=   187.3679
   Eigenvalues:   178.6568   187.2753   192.4272
     20  H    Isotropic =    31.8637   Anisotropy =     8.2114
   XX=    30.2399   YX=    -0.4062   ZX=     2.8562
   XY=    -0.3384   YY=    30.0094   ZY=    -2.0663
   XZ=     2.5678   YZ=    -2.9470   ZZ=    35.3417
   Eigenvalues:    28.5043    29.7488    37.3379
     21  H    Isotropic =    31.8721   Anisotropy =     6.9275
   XX=    32.8287   YX=    -1.5848   ZX=    -0.3150
   XY=    -2.1912   YY=    32.8953   ZY=     3.6273
   XZ=    -1.2348   YZ=     3.7878   ZZ=    29.8923
   Eigenvalues:    27.3595    31.7663    36.4905
     22  H    Isotropic =    32.2094   Anisotropy =    10.3152
   XX=    36.5751   YX=     4.5408   ZX=    -0.1408
   XY=     4.5684   YY=    30.8250   ZY=     0.6063
   XZ=    -0.4284   YZ=     0.4386   ZZ=    29.2279
   Eigenvalues:    28.0208    29.5211    39.0861
     23  H    Isotropic =    32.1458   Anisotropy =    10.6222
   XX=    34.5083   YX=     3.9143   ZX=    -3.2541
   XY=     3.8598   YY=    31.3195   ZY=    -3.0751
   XZ=    -2.9118   YZ=    -2.9950   ZZ=    30.6094
   Eigenvalues:    27.8788    29.3313    39.2272
     24  H    Isotropic =    31.9688   Anisotropy =     6.5199
   XX=    32.6610   YX=    -2.7669   ZX=    -1.6994
   XY=    -2.9740   YY=    34.0376   ZY=    -0.4105
   XZ=    -1.0163   YZ=    -0.9400   ZZ=    29.2079
   Eigenvalues:    28.1954    31.3957    36.3155
     25  H    Isotropic =    31.9326   Anisotropy =     7.1167
   XX=    30.7885   YX=     2.1764   ZX=     1.8107
   XY=     1.9644   YY=    29.6016   ZY=     1.0025
   XZ=     1.9619   YZ=     1.7803   ZZ=    35.4078
   Eigenvalues:    28.0412    31.0796    36.6771
     26  H    Isotropic =    31.8525   Anisotropy =     8.1334
   XX=    30.7089   YX=    -0.4577   ZX=     0.4012
   XY=     0.2951   YY=    31.8169   ZY=     4.9701
   XZ=     0.7091   YZ=     4.6139   ZZ=    33.0317
   Eigenvalues:    27.5359    30.7468    37.2748
     27  H    Isotropic =    31.8302   Anisotropy =     8.5619
   XX=    30.9189   YX=    -3.2213   ZX=     1.2704
   XY=    -2.8727   YY=    33.1371   ZY=    -3.9880
   XZ=     1.1492   YZ=    -3.2979   ZZ=    31.4346
   Eigenvalues:    28.0116    29.9408    37.5381
     28  H    Isotropic =    32.3194   Anisotropy =    10.2728
   XX=    37.8913   YX=     1.5024   ZX=    -3.0193
   XY=     1.9269   YY=    29.9062   ZY=    -0.4453
   XZ=    -3.0311   YZ=    -0.3167   ZZ=    29.1607
   Eigenvalues:    28.1995    29.5908    39.1679
     29  H    Isotropic =    31.3655   Anisotropy =     9.4621
   XX=    29.1018   YX=    -1.6257   ZX=     2.1811
   XY=    -1.3408   YY=    27.9362   ZY=     1.0239
   XZ=     2.2899   YZ=     0.8523   ZZ=    37.0585
   Eigenvalues:    26.5140    29.9089    37.6735
     30  H    Isotropic =    31.1556   Anisotropy =     8.3184
   XX=    27.7413   YX=     2.6870   ZX=     0.7084
   XY=     3.0064   YY=    35.7227   ZY=    -1.0016
   XZ=     0.4316   YZ=    -0.7649   ZZ=    30.0028
   Eigenvalues:    26.6317    30.1339    36.7012
     31  H    Isotropic =    30.5251   Anisotropy =     6.2004
   XX=    34.0976   YX=    -1.0168   ZX=     0.1205
   XY=    -1.5567   YY=    28.0722   ZY=     2.9392
   XZ=    -1.1013   YZ=     3.1879   ZZ=    29.4055
   Eigenvalues:    25.5457    31.3708    34.6587
     32  H    Isotropic =    30.6796   Anisotropy =     5.3090
   XX=    32.3614   YX=     0.4048   ZX=     0.1667
   XY=     0.4118   YY=    30.6406   ZY=    -4.0549
   XZ=     0.1222   YZ=    -4.5032   ZZ=    29.0368
   Eigenvalues:    25.4651    32.3548    34.2190
     33  H    Isotropic =    30.3065   Anisotropy =     5.5208
   XX=    32.2881   YX=    -2.8127   ZX=     1.1345
   XY=    -2.5797   YY=    26.9005   ZY=     4.0250
   XZ=     1.5207   YZ=     3.8884   ZZ=    31.7309
   Eigenvalues:    23.6386    33.2938    33.9871
     34  H    Isotropic =    31.0147   Anisotropy =    11.4262
   XX=    34.4875   YX=    -2.3016   ZX=     4.7786
   XY=    -2.4360   YY=    27.0319   ZY=    -2.3993
   XZ=     4.1969   YZ=    -2.0699   ZZ=    31.5248
   Eigenvalues:    26.0582    28.3538    38.6322
     35  H    Isotropic =    30.5142   Anisotropy =     7.8580
   XX=    32.5283   YX=    -3.0149   ZX=    -1.2127
   XY=    -2.9581   YY=    29.3703   ZY=     3.9052
   XZ=    -0.1648   YZ=     4.1058   ZZ=    29.6440
   Eigenvalues:    25.0814    30.7084    35.7529
     36  H    Isotropic =    31.1921   Anisotropy =     9.1488
   XX=    34.2594   YX=     3.9415   ZX=    -1.3145
   XY=     3.3089   YY=    31.9322   ZY=    -1.5922
   XZ=    -0.6986   YZ=    -2.2631   ZZ=    27.3845
   Eigenvalues:    26.6598    29.6251    37.2912
     37  C    Isotropic =   140.6939   Anisotropy =    31.2465
   XX=   124.9565   YX=     1.8683   ZX=    -4.9369
   XY=     5.9220   YY=   159.0628   ZY=    -7.9105
   XZ=    -2.7931   YZ=    -5.0060   ZZ=   138.0624
   Eigenvalues:   123.7688   136.7880   161.5249
     38  C    Isotropic =    42.8525   Anisotropy =   185.9328
   XX=     4.4884   YX=    39.7646   ZX=    79.8813
   XY=    44.0026   YY=     5.4606   ZY=   -59.0346
   XZ=    78.5577   YZ=   -57.6264   ZZ=   118.6084
   Eigenvalues:   -84.0344    45.7841   166.8076
     39  C    Isotropic =    68.9678   Anisotropy =   137.5678
   XX=    49.3873   YX=    44.8016   ZX=    59.5435
   XY=    47.7026   YY=    36.7457   ZY=   -50.1741
   XZ=    58.4341   YZ=   -59.0241   ZZ=   120.7705
   Eigenvalues:   -42.7993    89.0230   160.6797
     40  H    Isotropic =    29.6372   Anisotropy =     5.3581
   XX=    26.8291   YX=     1.4455   ZX=     1.4464
   XY=     0.8087   YY=    29.6763   ZY=    -1.5750
   XZ=     2.9168   YZ=    -0.0679   ZZ=    32.4063
   Eigenvalues:    25.6348    30.0676    33.2093
     41  H    Isotropic =    29.6693   Anisotropy =     5.5148
   XX=    29.9071   YX=     1.5150   ZX=    -2.0080
   XY=    -0.1726   YY=    30.0404   ZY=    -1.9156
   XZ=    -2.3677   YZ=    -3.2917   ZZ=    29.0603
   Eigenvalues:    26.3609    29.3011    33.3458
     42  H    Isotropic =    25.4772   Anisotropy =     8.0677
   XX=    23.5631   YX=     1.2610   ZX=     0.6505
   XY=     2.4214   YY=    29.8744   ZY=    -2.2271
   XZ=     1.1430   YZ=    -2.2271   ZZ=    22.9942
   Eigenvalues:    21.3594    24.2165    30.8557
     43  H    Isotropic =    26.9287   Anisotropy =     6.9065
   XX=    25.7653   YX=     3.7063   ZX=     0.4866
   XY=     1.5578   YY=    29.9937   ZY=    -0.8389
   XZ=     0.1836   YZ=    -2.4296   ZZ=    25.0272
   Eigenvalues:    23.6304    25.6227    31.5331
     44  H    Isotropic =    26.8357   Anisotropy =     7.0241
   XX=    26.3740   YX=     1.8680   ZX=    -0.2399
   XY=     4.7060   YY=    28.4954   ZY=    -2.9606
   XZ=     0.3622   YZ=    -1.7763   ZZ=    25.6376
   Eigenvalues:    23.0201    25.9685    31.5184
 End of Minotr F.D. properties file   721 does not exist.
 End of Minotr F.D. properties file   722 does not exist.
 End of Minotr F.D. properties file   788 does not exist.

 **********************************************************************

            Population analysis using the SCF density.

 **********************************************************************

 Orbital symmetries:
       Occupied  (A) (A) (A) (A) (A) (A) (A) (A) (A) (A) (A) (A)
                 (A) (A) (A) (A) (A) (A) (A) (A) (A) (A) (A) (A)
                 (A) (A) (A) (A) (A) (A) (A) (A) (A) (A) (A) (A)
                 (A) (A) (A) (A) (A) (A) (A) (A) (A) (A) (A) (A)
                 (A) (A) (A) (A) (A) (A) (A) (A) (A) (A) (A) (A)
                 (A) (A) (A) (A) (A) (A) (A) (A) (A) (A) (A) (A)
                 (A) (A)
       Virtual   (A) (A) (A) (A) (A) (A) (A) (A) (A) (A) (A) (A)
                 (A) (A) (A) (A) (A) (A) (A) (A) (A) (A) (A) (A)
                 (A) (A) (A) (A) (A) (A) (A) (A) (A) (A) (A) (A)
                 (A) (A) (A) (A) (A) (A) (A) (A) (A) (A) (A) (A)
                 (A) (A) (A) (A) (A) (A) (A) (A) (A) (A) (A) (A)
                 (A) (A) (A) (A) (A) (A) (A) (A) (A) (A) (A) (A)
                 (A) (A) (A) (A) (A) (A) (A) (A) (A) (A) (A) (A)
                 (A) (A) (A) (A) (A) (A) (A) (A) (A) (A) (A) (A)
                 (A) (A) (A) (A) (A) (A) (A) (A) (A) (A) (A) (A)
                 (A) (A) (A) (A) (A) (A) (A) (A) (A) (A) (A) (A)
                 (A) (A) (A) (A) (A) (A) (A) (A) (A) (A) (A) (A)
                 (A) (A) (A) (A) (A) (A) (A) (A) (A) (A) (A) (A)
                 (A) (A) (A) (A) (A) (A) (A) (A) (A) (A) (A) (A)
                 (A) (A) (A) (A) (A) (A) (A) (A) (A) (A) (A) (A)
                 (A) (A) (A) (A) (A) (A) (A) (A) (A) (A) (A) (A)
                 (A) (A) (A) (A) (A) (A) (A) (A) (A) (A) (A) (A)
                 (A) (A) (A) (A) (A) (A) (A) (A) (A) (A) (A) (A)
                 (A) (A) (A) (A) (A) (A) (A) (A) (A) (A) (A) (A)
                 (A) (A) (A) (A) (A) (A) (A) (A) (A) (A) (A) (A)
                 (A) (A) (A) (A) (A) (A) (A) (A) (A) (A) (A) (A)
                 (A) (A) (A) (A) (A) (A) (A) (A) (A) (A) (A) (A)
                 (A) (A) (A) (A) (A) (A) (A) (A) (A) (A) (A) (A)
                 (A) (A) (A) (A) (A) (A) (A) (A) (A) (A) (A) (A)
                 (A) (A) (A) (A) (A) (A) (A) (A) (A) (A) (A) (A)
                 (A) (A) (A) (A) (A) (A) (A) (A) (A) (A) (A) (A)
                 (A) (A) (A) (A) (A) (A) (A) (A) (A) (A) (A) (A)
                 (A) (A) (A) (A) (A) (A) (A) (A) (A) (A) (A) (A)
                 (A) (A) (A) (A) (A) (A) (A) (A) (A) (A) (A) (A)
 The electronic state is 1-A.
 Alpha  occ. eigenvalues --  -66.27547 -19.25976 -19.20804 -19.19658 -10.37118
 Alpha  occ. eigenvalues --  -10.31817 -10.30641 -10.25381 -10.25368 -10.24211
 Alpha  occ. eigenvalues --  -10.24025 -10.23838 -10.22590 -10.22400 -10.22056
 Alpha  occ. eigenvalues --  -10.21181 -10.20869 -10.20755  -5.33280  -3.67170
 Alpha  occ. eigenvalues --   -3.66872  -3.66858  -1.13260  -1.04882  -1.04153
 Alpha  occ. eigenvalues --   -0.85920  -0.83161  -0.80723  -0.77832  -0.74184
 Alpha  occ. eigenvalues --   -0.72571  -0.71721  -0.70480  -0.70227  -0.66488
 Alpha  occ. eigenvalues --   -0.63843  -0.61982  -0.58571  -0.56633  -0.53246
 Alpha  occ. eigenvalues --   -0.52545  -0.50631  -0.49131  -0.48176  -0.47296
 Alpha  occ. eigenvalues --   -0.46693  -0.45040  -0.44814  -0.44237  -0.43553
 Alpha  occ. eigenvalues --   -0.42762  -0.42513  -0.41816  -0.41473  -0.41213
 Alpha  occ. eigenvalues --   -0.41005  -0.40767  -0.40142  -0.39803  -0.38894
 Alpha  occ. eigenvalues --   -0.38519  -0.37856  -0.37100  -0.36663  -0.35954
 Alpha  occ. eigenvalues --   -0.35596  -0.34317  -0.33362  -0.32618  -0.31120
 Alpha  occ. eigenvalues --   -0.30729  -0.29015  -0.28277  -0.26855
 Alpha virt. eigenvalues --    0.00395   0.01163   0.03753   0.05551   0.05961
 Alpha virt. eigenvalues --    0.06467   0.07577   0.07838   0.08495   0.08926
 Alpha virt. eigenvalues --    0.09574   0.10042   0.10387   0.10422   0.11127
 Alpha virt. eigenvalues --    0.11566   0.12871   0.13238   0.13715   0.14034
 Alpha virt. eigenvalues --    0.14281   0.14392   0.14586   0.15026   0.15481
 Alpha virt. eigenvalues --    0.15900   0.16082   0.16877   0.17278   0.17720
 Alpha virt. eigenvalues --    0.17850   0.18950   0.19668   0.20140   0.21227
 Alpha virt. eigenvalues --    0.22245   0.22841   0.23371   0.24034   0.24640
 Alpha virt. eigenvalues --    0.24936   0.25814   0.26204   0.27033   0.28268
 Alpha virt. eigenvalues --    0.28746   0.29903   0.31786   0.32081   0.32476
 Alpha virt. eigenvalues --    0.33126   0.33769   0.34224   0.35379   0.35903
 Alpha virt. eigenvalues --    0.37233   0.37825   0.39021   0.39592   0.40431
 Alpha virt. eigenvalues --    0.41788   0.42023   0.42979   0.43110   0.44476
 Alpha virt. eigenvalues --    0.44905   0.46091   0.46694   0.47185   0.47800
 Alpha virt. eigenvalues --    0.49508   0.50120   0.51162   0.51409   0.52667
 Alpha virt. eigenvalues --    0.53654   0.53987   0.54826   0.55520   0.56333
 Alpha virt. eigenvalues --    0.56998   0.57599   0.57769   0.58127   0.58899
 Alpha virt. eigenvalues --    0.59852   0.60160   0.60437   0.60623   0.60999
 Alpha virt. eigenvalues --    0.61280   0.61818   0.62530   0.62887   0.63121
 Alpha virt. eigenvalues --    0.63688   0.63751   0.65048   0.65443   0.66030
 Alpha virt. eigenvalues --    0.66257   0.67082   0.67467   0.67962   0.68343
 Alpha virt. eigenvalues --    0.68726   0.69061   0.69338   0.70084   0.71437
 Alpha virt. eigenvalues --    0.72108   0.72360   0.73115   0.73625   0.74696
 Alpha virt. eigenvalues --    0.76482   0.76740   0.77691   0.79226   0.81364
 Alpha virt. eigenvalues --    0.81508   0.84050   0.86018   0.86964   0.88619
 Alpha virt. eigenvalues --    0.89803   0.90820   0.91185   0.93042   0.94107
 Alpha virt. eigenvalues --    0.94292   0.96303   0.97170   0.98969   1.00835
 Alpha virt. eigenvalues --    1.00905   1.03695   1.05194   1.06403   1.10907
 Alpha virt. eigenvalues --    1.11849   1.15183   1.17844   1.18188   1.19777
 Alpha virt. eigenvalues --    1.21129   1.23243   1.25518   1.26884   1.27550
 Alpha virt. eigenvalues --    1.27968   1.29439   1.31380   1.31688   1.33661
 Alpha virt. eigenvalues --    1.33979   1.37941   1.39137   1.39802   1.41542
 Alpha virt. eigenvalues --    1.42374   1.44016   1.46005   1.47712   1.48243
 Alpha virt. eigenvalues --    1.50326   1.51019   1.51875   1.52494   1.52884
 Alpha virt. eigenvalues --    1.54123   1.54984   1.56064   1.56978   1.58081
 Alpha virt. eigenvalues --    1.58652   1.59255   1.59554   1.60215   1.60479
 Alpha virt. eigenvalues --    1.61059   1.61131   1.61676   1.63519   1.63829
 Alpha virt. eigenvalues --    1.64882   1.65601   1.67174   1.67466   1.68399
 Alpha virt. eigenvalues --    1.69792   1.70291   1.71203   1.73511   1.73887
 Alpha virt. eigenvalues --    1.75812   1.76524   1.78014   1.79957   1.80768
 Alpha virt. eigenvalues --    1.81771   1.82102   1.82444   1.85780   1.87726
 Alpha virt. eigenvalues --    1.88789   1.89895   1.93685   1.94509   1.98363
 Alpha virt. eigenvalues --    1.98877   2.03877   2.08121   2.09874   2.10889
 Alpha virt. eigenvalues --    2.14542   2.17509   2.21805   2.23453   2.25596
 Alpha virt. eigenvalues --    2.28701   2.30841   2.34348   2.35291   2.40562
 Alpha virt. eigenvalues --    2.41205   2.41716   2.42111   2.42360   2.43377
 Alpha virt. eigenvalues --    2.44424   2.44740   2.45793   2.46242   2.47377
 Alpha virt. eigenvalues --    2.47572   2.47923   2.50441   2.51003   2.51784
 Alpha virt. eigenvalues --    2.53361   2.55342   2.56622   2.57482   2.59284
 Alpha virt. eigenvalues --    2.60482   2.63472   2.67983   2.73098   2.80313
 Alpha virt. eigenvalues --    2.83251   2.86542   2.88326   2.90695   2.90987
 Alpha virt. eigenvalues --    2.92397   2.93312   2.95854   2.97057   2.97217
 Alpha virt. eigenvalues --    2.98844   2.99598   3.00949   3.03045   3.03695
 Alpha virt. eigenvalues --    3.08696   3.10377   3.12602   3.13496   3.14609
 Alpha virt. eigenvalues --    3.15845   3.17087   3.17471   3.19147   3.20290
 Alpha virt. eigenvalues --    3.22099   3.22239   3.23171   3.23643   3.24605
 Alpha virt. eigenvalues --    3.25550   3.27033   3.28331   3.29097   3.30164
 Alpha virt. eigenvalues --    3.32260   3.35166   3.36394   3.38201   3.38921
 Alpha virt. eigenvalues --    3.43227   3.50785   3.58229   3.61076   3.65086
 Alpha virt. eigenvalues --    3.78395   3.87803   3.88466   3.97468   4.04834
 Alpha virt. eigenvalues --    4.09571   4.14398   4.18961   4.22414   4.26353
 Alpha virt. eigenvalues --    4.93554   5.00497   5.01896   5.10255   5.15790
 Alpha virt. eigenvalues --    5.23675   5.51930   5.56770   5.76623   5.85258
 Alpha virt. eigenvalues --   11.52386  11.53048  11.56556  23.41154  23.48720
 Alpha virt. eigenvalues --   23.53853  23.54608  23.57027  23.61727  23.72454
 Alpha virt. eigenvalues --   23.72992  23.78134  23.79954  23.82153  23.87943
 Alpha virt. eigenvalues --   23.88738  24.28995  49.98392  50.05768  50.13205
 Alpha virt. eigenvalues --  141.27285
          Condensed to atoms (all electrons):
               1          2          3          4          5          6
     1  C    5.205177   0.289712  -0.050573  -0.002754  -0.048420   0.378848
     2  C    0.289712   5.529523   0.284485  -0.091357  -0.011321  -0.037983
     3  C   -0.050573   0.284485   5.184369   0.255419  -0.020451  -0.017716
     4  C   -0.002754  -0.091357   0.255419   5.863292   0.241378   0.002678
     5  C   -0.048420  -0.011321  -0.020451   0.241378   4.385275  -0.001209
     6  H    0.378848  -0.037983  -0.017716   0.002678  -0.001209   0.485319
     7  H   -0.052618   0.405135  -0.058618  -0.006551   0.000778   0.007954
     8  H    0.001215  -0.008427  -0.028748   0.360468  -0.025251  -0.000029
     9  H   -0.000769   0.008176  -0.032037   0.368935  -0.025587   0.000160
    10  O    0.211009  -0.032999   0.008549  -0.110094   0.346600  -0.033815
    11  O    0.002475  -0.000342   0.003837  -0.093128   0.669195  -0.000137
    12  C    0.327540  -0.070010   0.009133  -0.002439   0.002113  -0.047967
    13  C   -0.070372   0.007163  -0.000111   0.000055  -0.000022  -0.005870
    14  C   -0.060911   0.286670  -0.051850   0.006926   0.000159  -0.001246
    15  O    0.003915  -0.053407   0.219745  -0.018674   0.002101  -0.000083
    16  Si   0.002282  -0.012667  -0.045289  -0.002470   0.001506  -0.000188
    17  C   -0.000002  -0.000195   0.002093  -0.000027   0.000002   0.000000
    18  C    0.000005  -0.000306   0.000534  -0.001937  -0.000013   0.000001
    19  C   -0.000075  -0.000262   0.000516  -0.002902  -0.000030  -0.000003
    20  H    0.000002  -0.000043   0.000527  -0.000139  -0.000030   0.000000
    21  H    0.000004  -0.000032   0.000029   0.000881  -0.000001   0.000000
    22  H    0.000000   0.000003  -0.000048   0.000125   0.000002   0.000000
    23  H   -0.000002   0.000170  -0.000088   0.000076   0.000002   0.000000
    24  H   -0.000082  -0.000118   0.000457  -0.000146   0.000015  -0.000002
    25  H   -0.000069   0.000152   0.000045   0.000147   0.000008  -0.000002
    26  H   -0.000001   0.000029  -0.000096  -0.000015   0.000000   0.000000
    27  H    0.000001  -0.000028  -0.000111  -0.000030   0.000000   0.000000
    28  H    0.000000   0.000000  -0.000058   0.000000   0.000000   0.000000
    29  H   -0.006322  -0.033422   0.006332  -0.000355  -0.000005  -0.000427
    30  H   -0.005692  -0.040862  -0.006433  -0.000116  -0.000007   0.005799
    31  H    0.006121  -0.035402  -0.008899   0.000539  -0.000090  -0.000159
    32  H   -0.045712  -0.005741  -0.000777   0.000149   0.000020   0.008045
    33  H   -0.042702  -0.006625  -0.000285   0.000124   0.000006  -0.000551
    34  H    0.008046  -0.000232   0.000011  -0.000001   0.000001  -0.000255
    35  H   -0.011743   0.000429  -0.000078   0.000391   0.000867   0.000233
    36  H   -0.003786  -0.000082  -0.000002  -0.000006  -0.000091   0.004762
    37  C   -0.001353  -0.086580   0.282108  -0.112450   0.000904   0.007335
    38  C   -0.001030  -0.004318  -0.044753   0.007885  -0.000407  -0.000050
    39  C   -0.000438   0.001733   0.000046  -0.000020  -0.000030   0.001743
    40  H   -0.000649   0.009529  -0.049164  -0.004134  -0.000577   0.000331
    41  H    0.001193  -0.005159  -0.022672  -0.008009   0.004545  -0.003842
    42  H    0.000086  -0.000242  -0.002911  -0.000080  -0.000015  -0.000018
    43  H    0.000012  -0.000015  -0.000271   0.000014   0.000000   0.000007
    44  H    0.000115  -0.000058   0.000104  -0.000040  -0.000012   0.000520
               7          8          9         10         11         12
     1  C   -0.052618   0.001215  -0.000769   0.211009   0.002475   0.327540
     2  C    0.405135  -0.008427   0.008176  -0.032999  -0.000342  -0.070010
     3  C   -0.058618  -0.028748  -0.032037   0.008549   0.003837   0.009133
     4  C   -0.006551   0.360468   0.368935  -0.110094  -0.093128  -0.002439
     5  C    0.000778  -0.025251  -0.025587   0.346600   0.669195   0.002113
     6  H    0.007954  -0.000029   0.000160  -0.033815  -0.000137  -0.047967
     7  H    0.489544   0.001875   0.000387   0.002034  -0.000177  -0.008260
     8  H    0.001875   0.414261  -0.013587   0.002432   0.002296  -0.000002
     9  H    0.000387  -0.013587   0.406838   0.003932   0.008304   0.000053
    10  O    0.002034   0.002432   0.003932   8.047777  -0.077741  -0.054257
    11  O   -0.000177   0.002296   0.008304  -0.077741   7.869390  -0.000137
    12  C   -0.008260  -0.000002   0.000053  -0.054257  -0.000137   5.311348
    13  C   -0.000287   0.000004  -0.000003  -0.006173  -0.000020   0.318298
    14  C   -0.036801   0.000262  -0.000149   0.003243   0.000004  -0.005002
    15  O   -0.001321  -0.004598  -0.000299  -0.000019  -0.000019  -0.000078
    16  Si  -0.001715   0.003957  -0.002735  -0.000432  -0.000502  -0.000233
    17  C   -0.000032  -0.000014  -0.000033   0.000000   0.000000   0.000000
    18  C   -0.000144  -0.000017  -0.001574  -0.000001   0.000001   0.000000
    19  C   -0.002253   0.003018   0.000202   0.000002   0.000002   0.000000
    20  H    0.000003   0.000005   0.000151   0.000000   0.000001   0.000000
    21  H   -0.000035   0.001195  -0.000245   0.000000  -0.000024   0.000000
    22  H    0.000004  -0.000027   0.000123   0.000000   0.000000   0.000000
    23  H    0.000328  -0.000061  -0.000002   0.000000   0.000000   0.000000
    24  H   -0.000250   0.004588   0.000004  -0.000003   0.000001   0.000023
    25  H   -0.000765  -0.000394   0.000007  -0.000002   0.000000   0.000032
    26  H   -0.000017  -0.000006  -0.000003   0.000000   0.000000   0.000000
    27  H    0.000000   0.000001  -0.000013   0.000000   0.000000   0.000000
    28  H   -0.000003   0.000007  -0.000002   0.000000   0.000000   0.000000
    29  H   -0.008514  -0.000020   0.000015  -0.000020   0.000000   0.001825
    30  H    0.007245  -0.000019   0.000024   0.000031   0.000001  -0.000833
    31  H   -0.003193   0.000033  -0.000034  -0.000106   0.000000   0.000153
    32  H    0.006718   0.000048   0.000009   0.002649  -0.000121   0.387439
    33  H    0.000229  -0.000021  -0.000001   0.003768   0.000007   0.388575
    34  H   -0.000026   0.000000   0.000000  -0.000152   0.000000  -0.037815
    35  H    0.000021  -0.000022  -0.000007   0.013254   0.000279  -0.038787
    36  H    0.000023   0.000000   0.000000  -0.000372  -0.000003  -0.040802
    37  C    0.009134   0.006758  -0.004685  -0.004671   0.000252  -0.000506
    38  C   -0.000605  -0.000187   0.000003   0.000330  -0.000001   0.000015
    39  C   -0.000046   0.000004  -0.000010  -0.000011   0.000000   0.000013
    40  H   -0.000218  -0.000213   0.004871  -0.000112  -0.000092   0.000021
    41  H   -0.000338   0.000239  -0.000263   0.003496  -0.000318   0.000731
    42  H   -0.000089   0.000033   0.000016   0.000000   0.000000   0.000011
    43  H   -0.000001  -0.000001   0.000000   0.000000   0.000000   0.000000
    44  H    0.000005   0.000001   0.000003  -0.000025   0.000000   0.000002
              13         14         15         16         17         18
     1  C   -0.070372  -0.060911   0.003915   0.002282  -0.000002   0.000005
     2  C    0.007163   0.286670  -0.053407  -0.012667  -0.000195  -0.000306
     3  C   -0.000111  -0.051850   0.219745  -0.045289   0.002093   0.000534
     4  C    0.000055   0.006926  -0.018674  -0.002470  -0.000027  -0.001937
     5  C   -0.000022   0.000159   0.002101   0.001506   0.000002  -0.000013
     6  H   -0.005870  -0.001246  -0.000083  -0.000188   0.000000   0.000001
     7  H   -0.000287  -0.036801  -0.001321  -0.001715  -0.000032  -0.000144
     8  H    0.000004   0.000262  -0.004598   0.003957  -0.000014  -0.000017
     9  H   -0.000003  -0.000149  -0.000299  -0.002735  -0.000033  -0.001574
    10  O   -0.006173   0.003243  -0.000019  -0.000432   0.000000  -0.000001
    11  O   -0.000020   0.000004  -0.000019  -0.000502   0.000000   0.000001
    12  C    0.318298  -0.005002  -0.000078  -0.000233   0.000000   0.000000
    13  C    5.337397  -0.000291   0.000001   0.000012   0.000000   0.000000
    14  C   -0.000291   5.417944  -0.007309  -0.000854  -0.000228   0.000006
    15  O    0.000001  -0.007309   8.285321   0.347929  -0.029722  -0.024707
    16  Si   0.000012  -0.000854   0.347929  11.516249   0.334583   0.319733
    17  C    0.000000  -0.000228  -0.029722   0.334583   5.720873  -0.045989
    18  C    0.000000   0.000006  -0.024707   0.319733  -0.045989   5.760847
    19  C    0.000000   0.000645  -0.024116   0.306348  -0.043060  -0.055482
    20  H    0.000000   0.000000  -0.002301  -0.024600  -0.000401   0.370714
    21  H    0.000000   0.000001  -0.001282  -0.026857   0.002295   0.371161
    22  H    0.000000   0.000000   0.000965  -0.012184  -0.000134   0.362191
    23  H    0.000000  -0.000021   0.000837  -0.010817  -0.000479   0.000228
    24  H   -0.000001   0.000149  -0.001316  -0.029260   0.002368  -0.001071
    25  H    0.000000   0.000461  -0.002354  -0.028376  -0.000295   0.002058
    26  H    0.000000   0.000127  -0.001592  -0.025909   0.370342   0.002092
    27  H    0.000000  -0.000012  -0.001821  -0.022987   0.369681  -0.000578
    28  H    0.000000  -0.000003   0.001200  -0.014412   0.361038   0.000659
    29  H    0.000115   0.388642   0.000013  -0.000438   0.000000   0.000001
    30  H   -0.000145   0.384507  -0.000176  -0.000129   0.000005   0.000000
    31  H    0.000015   0.384648   0.008615   0.003569   0.000355   0.000053
    32  H   -0.040617   0.000877  -0.000005  -0.000070   0.000000   0.000000
    33  H   -0.036820   0.002267  -0.000005  -0.000012   0.000000   0.000000
    34  H    0.392347  -0.000003   0.000000   0.000000   0.000000   0.000000
    35  H    0.384340  -0.000069   0.000000   0.000003   0.000000   0.000000
    36  H    0.384856   0.000030   0.000000   0.000000   0.000000   0.000000
    37  C   -0.000030  -0.002677  -0.077062   0.000311   0.000116  -0.000049
    38  C    0.000005  -0.014688   0.003437  -0.000364  -0.000041   0.000009
    39  C   -0.000001  -0.003787   0.000802   0.000134  -0.000001   0.000000
    40  H   -0.000002  -0.000488   0.001336   0.000942  -0.000037   0.000027
    41  H   -0.000005   0.000342   0.003669   0.000231   0.000005  -0.000008
    42  H    0.000000  -0.000033   0.008054   0.000506   0.000084  -0.000004
    43  H    0.000000   0.000033   0.000003   0.000004   0.000000   0.000000
    44  H   -0.000001   0.000076  -0.000001  -0.000002   0.000000   0.000000
              19         20         21         22         23         24
     1  C   -0.000075   0.000002   0.000004   0.000000  -0.000002  -0.000082
     2  C   -0.000262  -0.000043  -0.000032   0.000003   0.000170  -0.000118
     3  C    0.000516   0.000527   0.000029  -0.000048  -0.000088   0.000457
     4  C   -0.002902  -0.000139   0.000881   0.000125   0.000076  -0.000146
     5  C   -0.000030  -0.000030  -0.000001   0.000002   0.000002   0.000015
     6  H   -0.000003   0.000000   0.000000   0.000000   0.000000  -0.000002
     7  H   -0.002253   0.000003  -0.000035   0.000004   0.000328  -0.000250
     8  H    0.003018   0.000005   0.001195  -0.000027  -0.000061   0.004588
     9  H    0.000202   0.000151  -0.000245   0.000123  -0.000002   0.000004
    10  O    0.000002   0.000000   0.000000   0.000000   0.000000  -0.000003
    11  O    0.000002   0.000001  -0.000024   0.000000   0.000000   0.000001
    12  C    0.000000   0.000000   0.000000   0.000000   0.000000   0.000023
    13  C    0.000000   0.000000   0.000000   0.000000   0.000000  -0.000001
    14  C    0.000645   0.000000   0.000001   0.000000  -0.000021   0.000149
    15  O   -0.024116  -0.002301  -0.001282   0.000965   0.000837  -0.001316
    16  Si   0.306348  -0.024600  -0.026857  -0.012184  -0.010817  -0.029260
    17  C   -0.043060  -0.000401   0.002295  -0.000134  -0.000479   0.002368
    18  C   -0.055482   0.370714   0.371161   0.362191   0.000228  -0.001071
    19  C    5.789047   0.001986  -0.001330   0.000549   0.362988   0.369182
    20  H    0.001986   0.449398  -0.019438  -0.021225  -0.000047  -0.000034
    21  H   -0.001330  -0.019438   0.450007  -0.022306   0.000020   0.000782
    22  H    0.000549  -0.021225  -0.022306   0.454058   0.000484   0.000067
    23  H    0.362988  -0.000047   0.000020   0.000484   0.444203  -0.021152
    24  H    0.369182  -0.000034   0.000782   0.000067  -0.021152   0.448261
    25  H    0.371517  -0.000091  -0.000038  -0.000049  -0.021458  -0.019243
    26  H   -0.000517  -0.000086  -0.000093  -0.000054  -0.000084  -0.000063
    27  H    0.002079   0.001140  -0.000077  -0.000115  -0.000053  -0.000089
    28  H    0.000221  -0.000005  -0.000059   0.000715   0.000603  -0.000078
    29  H    0.000138   0.000000   0.000000   0.000000  -0.000005   0.000023
    30  H    0.000018   0.000000   0.000000   0.000000   0.000000  -0.000005
    31  H   -0.000190   0.000003   0.000001   0.000000   0.000011  -0.000043
    32  H    0.000022   0.000000   0.000000   0.000000  -0.000001   0.000020
    33  H   -0.000002   0.000000   0.000000   0.000000   0.000000   0.000001
    34  H    0.000000   0.000000   0.000000   0.000000   0.000000   0.000000
    35  H    0.000000   0.000000   0.000000   0.000000   0.000000   0.000000
    36  H    0.000000   0.000000   0.000000   0.000000   0.000000   0.000000
    37  C   -0.000256   0.000172  -0.000025   0.000006   0.000004  -0.000050
    38  C    0.000008  -0.000002   0.000001   0.000000   0.000000   0.000000
    39  C    0.000000   0.000000   0.000000   0.000000   0.000000   0.000000
    40  H    0.000034   0.000084  -0.000041  -0.000001   0.000000   0.000005
    41  H    0.000014  -0.000009  -0.000002   0.000000   0.000000   0.000004
    42  H    0.000025  -0.000008   0.000000  -0.000001   0.000000   0.000002
    43  H    0.000000   0.000000   0.000000   0.000000   0.000000   0.000000
    44  H    0.000000   0.000000   0.000000   0.000000   0.000000   0.000000
              25         26         27         28         29         30
     1  C   -0.000069  -0.000001   0.000001   0.000000  -0.006322  -0.005692
     2  C    0.000152   0.000029  -0.000028   0.000000  -0.033422  -0.040862
     3  C    0.000045  -0.000096  -0.000111  -0.000058   0.006332  -0.006433
     4  C    0.000147  -0.000015  -0.000030   0.000000  -0.000355  -0.000116
     5  C    0.000008   0.000000   0.000000   0.000000  -0.000005  -0.000007
     6  H   -0.000002   0.000000   0.000000   0.000000  -0.000427   0.005799
     7  H   -0.000765  -0.000017   0.000000  -0.000003  -0.008514   0.007245
     8  H   -0.000394  -0.000006   0.000001   0.000007  -0.000020  -0.000019
     9  H    0.000007  -0.000003  -0.000013  -0.000002   0.000015   0.000024
    10  O   -0.000002   0.000000   0.000000   0.000000  -0.000020   0.000031
    11  O    0.000000   0.000000   0.000000   0.000000   0.000000   0.000001
    12  C    0.000032   0.000000   0.000000   0.000000   0.001825  -0.000833
    13  C    0.000000   0.000000   0.000000   0.000000   0.000115  -0.000145
    14  C    0.000461   0.000127  -0.000012  -0.000003   0.388642   0.384507
    15  O   -0.002354  -0.001592  -0.001821   0.001200   0.000013  -0.000176
    16  Si  -0.028376  -0.025909  -0.022987  -0.014412  -0.000438  -0.000129
    17  C   -0.000295   0.370342   0.369681   0.361038   0.000000   0.000005
    18  C    0.002058   0.002092  -0.000578   0.000659   0.000001   0.000000
    19  C    0.371517  -0.000517   0.002079   0.000221   0.000138   0.000018
    20  H   -0.000091  -0.000086   0.001140  -0.000005   0.000000   0.000000
    21  H   -0.000038  -0.000093  -0.000077  -0.000059   0.000000   0.000000
    22  H   -0.000049  -0.000054  -0.000115   0.000715   0.000000   0.000000
    23  H   -0.021458  -0.000084  -0.000053   0.000603  -0.000005   0.000000
    24  H   -0.019243  -0.000063  -0.000089  -0.000078   0.000023  -0.000005
    25  H    0.448980   0.001144  -0.000072  -0.000053   0.000293  -0.000005
    26  H    0.001144   0.453372  -0.019162  -0.021635   0.000000  -0.000014
    27  H   -0.000072  -0.019162   0.451487  -0.021421  -0.000001   0.000001
    28  H   -0.000053  -0.021635  -0.021421   0.460086   0.000000   0.000000
    29  H    0.000293   0.000000  -0.000001   0.000000   0.462679  -0.025491
    30  H   -0.000005  -0.000014   0.000001   0.000000  -0.025491   0.453874
    31  H    0.000341   0.001071  -0.000051  -0.000008  -0.024060  -0.024259
    32  H    0.000007   0.000000   0.000000   0.000000   0.000218   0.000093
    33  H   -0.000002   0.000000   0.000000   0.000000   0.000290   0.000222
    34  H    0.000000   0.000000   0.000000   0.000000   0.000006   0.000004
    35  H    0.000000   0.000000   0.000000   0.000000  -0.000022  -0.000002
    36  H    0.000000   0.000000   0.000000   0.000000   0.000031  -0.000009
    37  C   -0.000075  -0.000004   0.000107   0.000000  -0.000501   0.002175
    38  C    0.000003   0.000006   0.000011   0.000001   0.000541   0.003137
    39  C    0.000000  -0.000001  -0.000003   0.000000   0.000180   0.002328
    40  H    0.000005   0.000006  -0.000012   0.000000   0.000029   0.000201
    41  H    0.000003   0.000001  -0.000001   0.000000  -0.000004  -0.000568
    42  H    0.000005   0.000038   0.000161   0.000002   0.000062  -0.000856
    43  H    0.000000   0.000000  -0.000001   0.000000  -0.000005   0.000015
    44  H    0.000000   0.000000   0.000000   0.000000   0.000004  -0.000046
              31         32         33         34         35         36
     1  C    0.006121  -0.045712  -0.042702   0.008046  -0.011743  -0.003786
     2  C   -0.035402  -0.005741  -0.006625  -0.000232   0.000429  -0.000082
     3  C   -0.008899  -0.000777  -0.000285   0.000011  -0.000078  -0.000002
     4  C    0.000539   0.000149   0.000124  -0.000001   0.000391  -0.000006
     5  C   -0.000090   0.000020   0.000006   0.000001   0.000867  -0.000091
     6  H   -0.000159   0.008045  -0.000551  -0.000255   0.000233   0.004762
     7  H   -0.003193   0.006718   0.000229  -0.000026   0.000021   0.000023
     8  H    0.000033   0.000048  -0.000021   0.000000  -0.000022   0.000000
     9  H   -0.000034   0.000009  -0.000001   0.000000  -0.000007   0.000000
    10  O   -0.000106   0.002649   0.003768  -0.000152   0.013254  -0.000372
    11  O    0.000000  -0.000121   0.000007   0.000000   0.000279  -0.000003
    12  C    0.000153   0.387439   0.388575  -0.037815  -0.038787  -0.040802
    13  C    0.000015  -0.040617  -0.036820   0.392347   0.384340   0.384856
    14  C    0.384648   0.000877   0.002267  -0.000003  -0.000069   0.000030
    15  O    0.008615  -0.000005  -0.000005   0.000000   0.000000   0.000000
    16  Si   0.003569  -0.000070  -0.000012   0.000000   0.000003   0.000000
    17  C    0.000355   0.000000   0.000000   0.000000   0.000000   0.000000
    18  C    0.000053   0.000000   0.000000   0.000000   0.000000   0.000000
    19  C   -0.000190   0.000022  -0.000002   0.000000   0.000000   0.000000
    20  H    0.000003   0.000000   0.000000   0.000000   0.000000   0.000000
    21  H    0.000001   0.000000   0.000000   0.000000   0.000000   0.000000
    22  H    0.000000   0.000000   0.000000   0.000000   0.000000   0.000000
    23  H    0.000011  -0.000001   0.000000   0.000000   0.000000   0.000000
    24  H   -0.000043   0.000020   0.000001   0.000000   0.000000   0.000000
    25  H    0.000341   0.000007  -0.000002   0.000000   0.000000   0.000000
    26  H    0.001071   0.000000   0.000000   0.000000   0.000000   0.000000
    27  H   -0.000051   0.000000   0.000000   0.000000   0.000000   0.000000
    28  H   -0.000008   0.000000   0.000000   0.000000   0.000000   0.000000
    29  H   -0.024060   0.000218   0.000290   0.000006  -0.000022   0.000031
    30  H   -0.024259   0.000093   0.000222   0.000004  -0.000002  -0.000009
    31  H    0.432636  -0.000115   0.000439  -0.000001   0.000005  -0.000005
    32  H   -0.000115   0.486396  -0.025934  -0.004845  -0.004105   0.006912
    33  H    0.000439  -0.025934   0.475951  -0.004677   0.006982  -0.004730
    34  H   -0.000001  -0.004845  -0.004677   0.471389  -0.025544  -0.027462
    35  H    0.000005  -0.004105   0.006982  -0.025544   0.460477  -0.027420
    36  H   -0.000005   0.006912  -0.004730  -0.027462  -0.027420   0.485429
    37  C   -0.000625   0.000051   0.000019   0.000000  -0.000004  -0.000007
    38  C    0.000747  -0.000010  -0.000010   0.000000  -0.000001  -0.000003
    39  C    0.000302  -0.000001   0.000002   0.000000   0.000000  -0.000004
    40  H   -0.000100   0.000001   0.000001   0.000000   0.000000   0.000000
    41  H   -0.000005  -0.000041  -0.000032   0.000002  -0.000001  -0.000010
    42  H    0.000324   0.000000   0.000000   0.000000   0.000000   0.000000
    43  H    0.000000   0.000000   0.000000   0.000000   0.000000   0.000000
    44  H   -0.000010   0.000001   0.000002   0.000000   0.000000   0.000004
              37         38         39         40         41         42
     1  C   -0.001353  -0.001030  -0.000438  -0.000649   0.001193   0.000086
     2  C   -0.086580  -0.004318   0.001733   0.009529  -0.005159  -0.000242
     3  C    0.282108  -0.044753   0.000046  -0.049164  -0.022672  -0.002911
     4  C   -0.112450   0.007885  -0.000020  -0.004134  -0.008009  -0.000080
     5  C    0.000904  -0.000407  -0.000030  -0.000577   0.004545  -0.000015
     6  H    0.007335  -0.000050   0.001743   0.000331  -0.003842  -0.000018
     7  H    0.009134  -0.000605  -0.000046  -0.000218  -0.000338  -0.000089
     8  H    0.006758  -0.000187   0.000004  -0.000213   0.000239   0.000033
     9  H   -0.004685   0.000003  -0.000010   0.004871  -0.000263   0.000016
    10  O   -0.004671   0.000330  -0.000011  -0.000112   0.003496   0.000000
    11  O    0.000252  -0.000001   0.000000  -0.000092  -0.000318   0.000000
    12  C   -0.000506   0.000015   0.000013   0.000021   0.000731   0.000011
    13  C   -0.000030   0.000005  -0.000001  -0.000002  -0.000005   0.000000
    14  C   -0.002677  -0.014688  -0.003787  -0.000488   0.000342  -0.000033
    15  O   -0.077062   0.003437   0.000802   0.001336   0.003669   0.008054
    16  Si   0.000311  -0.000364   0.000134   0.000942   0.000231   0.000506
    17  C    0.000116  -0.000041  -0.000001  -0.000037   0.000005   0.000084
    18  C   -0.000049   0.000009   0.000000   0.000027  -0.000008  -0.000004
    19  C   -0.000256   0.000008   0.000000   0.000034   0.000014   0.000025
    20  H    0.000172  -0.000002   0.000000   0.000084  -0.000009  -0.000008
    21  H   -0.000025   0.000001   0.000000  -0.000041  -0.000002   0.000000
    22  H    0.000006   0.000000   0.000000  -0.000001   0.000000  -0.000001
    23  H    0.000004   0.000000   0.000000   0.000000   0.000000   0.000000
    24  H   -0.000050   0.000000   0.000000   0.000005   0.000004   0.000002
    25  H   -0.000075   0.000003   0.000000   0.000005   0.000003   0.000005
    26  H   -0.000004   0.000006  -0.000001   0.000006   0.000001   0.000038
    27  H    0.000107   0.000011  -0.000003  -0.000012  -0.000001   0.000161
    28  H    0.000000   0.000001   0.000000   0.000000   0.000000   0.000002
    29  H   -0.000501   0.000541   0.000180   0.000029  -0.000004   0.000062
    30  H    0.002175   0.003137   0.002328   0.000201  -0.000568  -0.000856
    31  H   -0.000625   0.000747   0.000302  -0.000100  -0.000005   0.000324
    32  H    0.000051  -0.000010  -0.000001   0.000001  -0.000041   0.000000
    33  H    0.000019  -0.000010   0.000002   0.000001  -0.000032   0.000000
    34  H    0.000000   0.000000   0.000000   0.000000   0.000002   0.000000
    35  H   -0.000004  -0.000001   0.000000   0.000000  -0.000001   0.000000
    36  H   -0.000007  -0.000003  -0.000004   0.000000  -0.000010   0.000000
    37  C    5.488375   0.320462  -0.061588   0.385704   0.378011  -0.050655
    38  C    0.320462   5.054960   0.617523  -0.036903  -0.044227   0.396864
    39  C   -0.061588   0.617523   5.159892  -0.003330   0.002306  -0.038531
    40  H    0.385704  -0.036903  -0.003330   0.461445  -0.023147  -0.000386
    41  H    0.378011  -0.044227   0.002306  -0.023147   0.459444   0.005153
    42  H   -0.050655   0.396864  -0.038531  -0.000386   0.005153   0.457388
    43  H    0.006416  -0.039135   0.393319  -0.000351   0.000084  -0.007820
    44  H   -0.008911  -0.040236   0.387653   0.000297   0.004500   0.005880
              43         44
     1  C    0.000012   0.000115
     2  C   -0.000015  -0.000058
     3  C   -0.000271   0.000104
     4  C    0.000014  -0.000040
     5  C    0.000000  -0.000012
     6  H    0.000007   0.000520
     7  H   -0.000001   0.000005
     8  H   -0.000001   0.000001
     9  H    0.000000   0.000003
    10  O    0.000000  -0.000025
    11  O    0.000000   0.000000
    12  C    0.000000   0.000002
    13  C    0.000000  -0.000001
    14  C    0.000033   0.000076
    15  O    0.000003  -0.000001
    16  Si   0.000004  -0.000002
    17  C    0.000000   0.000000
    18  C    0.000000   0.000000
    19  C    0.000000   0.000000
    20  H    0.000000   0.000000
    21  H    0.000000   0.000000
    22  H    0.000000   0.000000
    23  H    0.000000   0.000000
    24  H    0.000000   0.000000
    25  H    0.000000   0.000000
    26  H    0.000000   0.000000
    27  H   -0.000001   0.000000
    28  H    0.000000   0.000000
    29  H   -0.000005   0.000004
    30  H    0.000015  -0.000046
    31  H    0.000000  -0.000010
    32  H    0.000000   0.000001
    33  H    0.000000   0.000002
    34  H    0.000000   0.000000
    35  H    0.000000   0.000000
    36  H    0.000000   0.000004
    37  C    0.006416  -0.008911
    38  C   -0.039135  -0.040236
    39  C    0.393319   0.387653
    40  H   -0.000351   0.000297
    41  H    0.000084   0.004500
    42  H   -0.007820   0.005880
    43  H    0.456686  -0.034218
    44  H   -0.034218   0.464630
 Mulliken charges:
               1
     1  C   -0.031684
     2  C   -0.284678
     3  C    0.183700
     4  C   -0.651608
     5  C    0.478091
     6  H    0.247818
     7  H    0.251452
     8  H    0.278944
     9  H    0.279825
    10  O   -0.328100
    11  O   -0.383284
    12  C   -0.440199
    13  C   -0.663839
    14  C   -0.691599
    15  O   -0.635676
    16  Si   1.425205
    17  C   -1.043150
    18  C   -1.058439
    19  C   -1.078082
    20  H    0.244272
    21  H    0.245510
    22  H    0.236853
    23  H    0.244317
    24  H    0.247053
    25  H    0.248135
    26  H    0.241125
    27  H    0.241970
    28  H    0.233205
    29  H    0.238174
    30  H    0.245988
    31  H    0.257372
    32  H    0.228420
    33  H    0.243524
    34  H    0.229209
    35  H    0.240523
    36  H    0.222746
    37  C   -0.475658
    38  C   -0.178978
    39  C   -0.460180
    40  H    0.255090
    41  H    0.244689
    42  H    0.226956
    43  H    0.225225
    44  H    0.219765
 Sum of Mulliken charges =   0.00000
 Mulliken charges with hydrogens summed into heavy atoms:
               1
     1  C    0.216134
     2  C   -0.033226
     3  C    0.183700
     4  C   -0.092839
     5  C    0.478091
    10  O   -0.328100
    11  O   -0.383284
    12  C    0.031744
    13  C    0.028639
    14  C    0.049935
    15  O   -0.635676
    16  Si   1.425205
    17  C   -0.326850
    18  C   -0.331804
    19  C   -0.338578
    37  C    0.024121
    38  C    0.047978
    39  C   -0.015189
 Electronic spatial extent (au):  <R**2>=           5560.9202
 Charge=              0.0000 electrons
 Dipole moment (field-independent basis, Debye):
    X=             -2.5344    Y=              2.0607    Z=              3.8911  Tot=              5.0804
 Quadrupole moment (field-independent basis, Debye-Ang):
   XX=           -119.0344   YY=           -125.7189   ZZ=           -124.3702
   XY=             11.7356   XZ=              8.0162   YZ=             -8.3760
 Traceless Quadrupole moment (field-independent basis, Debye-Ang):
   XX=              4.0068   YY=             -2.6777   ZZ=             -1.3291
   XY=             11.7356   XZ=              8.0162   YZ=             -8.3760
 Octapole moment (field-independent basis, Debye-Ang**2):
  XXX=            -18.5966  YYY=             13.8694  ZZZ=             16.1643  XYY=            -12.0008
  XXY=             10.3883  XXZ=             22.5084  XZZ=             -8.3117  YZZ=             15.2537
  YYZ=             22.9894  XYZ=            -19.4816
 Hexadecapole moment (field-independent basis, Debye-Ang**3):
 XXXX=          -4319.0729 YYYY=          -1853.4512 ZZZZ=          -1368.4489 XXXY=             71.8971
 XXXZ=             19.0320 YYYX=             27.7998 YYYZ=            -18.8898 ZZZX=             40.7578
 ZZZY=            -14.5144 XXYY=          -1065.6344 XXZZ=           -959.8390 YYZZ=           -618.5654
 XXYZ=            -64.0319 YYXZ=             26.9918 ZZXY=             27.1955
 N-N= 1.621775417333D+03 E-N=-5.738583000858D+03  KE= 1.060533205446D+03
 1\1\GINC-CPU-E-532\SP\RmPW1PW91\6-311G(d)\C14H26O3Si1\KE291\06-Feb-201
 9\0\\# mPW1PW91/6-311g(d) geom=checkpoint nmr=giao scrf=(solvent=chlor
 oform)\\P_ng_correct1ginp012\\0,1\C,0,0.8886029846,-0.2055500727,0.654
 4168992\C,0,-0.6447883833,-0.2522540878,0.7465700093\C,0,-1.1849386612
 ,1.0089452166,1.4801010342\C,0,-0.7608610368,2.2091689657,0.6168964064
 \C,0,0.7210945273,2.2601636027,0.2953397779\H,0,1.3116243236,-0.396346
 4723,1.6490620768\H,0,-1.0388304695,-0.1820618838,-0.2769733632\H,0,-1
 .2757010466,2.1637392587,-0.3503967902\H,0,-1.0292508575,3.1611839563,
 1.0802203708\O,0,1.4140922977,1.1043605307,0.262485688\O,0,1.294043695
 3,3.2933235732,0.0190069923\C,0,1.4856807701,-1.2039344081,-0.33973089
 56\C,0,3.0169546617,-1.1950749069,-0.3778351588\C,0,-1.1253188619,-1.5
 889026549,1.3326339285\O,0,-2.6008470479,0.932484536,1.6044532248\Si,0
 ,-3.9336209514,1.3020306081,0.6437846319\C,0,-5.3731248008,0.536918168
 2,1.5812735256\C,0,-4.180670515,3.168150735,0.5094408952\C,0,-3.809093
 4918,0.5456896163,-1.0823670913\H,0,-4.2064349753,3.6340215678,1.50034
 49298\H,0,-3.3936344477,3.6579957082,-0.0721380968\H,0,-5.1360544516,3
 .3841845781,0.016940842\H,0,-4.7494787973,0.7108164722,-1.6216201752\H
 ,0,-3.0093373295,0.9865874027,-1.6869522555\H,0,-3.64123031,-0.5354677
 669,-1.0363709209\H,0,-5.2632103053,-0.5492645312,1.6645227492\H,0,-5.
 4430839864,0.9457679649,2.5945784667\H,0,-6.3220028777,0.7399452781,1.
 0724076782\H,0,-0.9768606164,-2.4030504577,0.6185766128\H,0,-0.6013128
 772,-1.8428000443,2.2569615767\H,0,-2.1922362984,-1.5325583559,1.55693
 46514\H,0,1.0798768686,-0.9849637809,-1.3355488395\H,0,1.1349886649,-2
 .2045357556,-0.0672121954\H,0,3.3874114036,-1.9317270866,-1.0970037748
 \H,0,3.3993237813,-0.2134422517,-0.6671757748\H,0,3.4372292516,-1.4455
 407442,0.6026790578\C,0,-0.640098338,1.2303084685,2.9186245748\C,0,-1.
 0196142379,0.2079131894,3.9543738241\C,0,-0.1783944087,-0.3150886385,4
 .8483136155\H,0,-1.0509301035,2.2003332461,3.2319847529\H,0,0.44887399
 83,1.3508961631,2.8959234746\H,0,-2.0712841389,-0.0699973815,3.9776624
 617\H,0,-0.5161644354,-1.01786261,5.6044107769\H,0,0.8780728303,-0.055
 7469152,4.8621398261\\Version=ES64L-G09RevD.01\State=1-A\HF=-1064.3826
 584\RMSD=3.177e-09\Dipole=-1.3820765,-1.4435842,0.0331625\Quadrupole=-
 1.350791,-1.6080222,2.9588131,-10.4462254,5.7029805,3.0174317\PG=C01 [
 X(C14H26O3Si1)]\\@


 The hours that make us happy make us wise.
                         -- John Masefield
 Job cpu time:       0 days  0 hours 20 minutes 30.9 seconds.
 File lengths (MBytes):  RWF=    240 Int=      0 D2E=      0 Chk=     19 Scr=      1
 Normal termination of Gaussian 09 at Wed Feb  6 11:28:24 2019.
