 Entering Gaussian System, Link 0=/usr/local/Cluster-Apps/gaussian/g09/g09
 Initial command:
 /usr/local/Cluster-Apps/gaussian/g09/l1.exe "/home/ke291/rds/hpc-work/06Feb0927IP1/Gau-319057.inp" -scrdir="/home/ke291/rds/hpc-work/06Feb0927IP1/"
 Entering Link 1 = /usr/local/Cluster-Apps/gaussian/g09/l1.exe PID=    319062.
  
 Copyright (c) 1988,1990,1992,1993,1995,1998,2003,2009,2013,
            Gaussian, Inc.  All Rights Reserved.
  
 This is part of the Gaussian(R) 09 program.  It is based on
 the Gaussian(R) 03 system (copyright 2003, Gaussian, Inc.),
 the Gaussian(R) 98 system (copyright 1998, Gaussian, Inc.),
 the Gaussian(R) 94 system (copyright 1995, Gaussian, Inc.),
 the Gaussian 92(TM) system (copyright 1992, Gaussian, Inc.),
 the Gaussian 90(TM) system (copyright 1990, Gaussian, Inc.),
 the Gaussian 88(TM) system (copyright 1988, Gaussian, Inc.),
 the Gaussian 86(TM) system (copyright 1986, Carnegie Mellon
 University), and the Gaussian 82(TM) system (copyright 1983,
 Carnegie Mellon University). Gaussian is a federally registered
 trademark of Gaussian, Inc.
  
 This software contains proprietary and confidential information,
 including trade secrets, belonging to Gaussian, Inc.
  
 This software is provided under written license and may be
 used, copied, transmitted, or stored only in accord with that
 written license.
  
 The following legend is applicable only to US Government
 contracts under FAR:
  
                    RESTRICTED RIGHTS LEGEND
  
 Use, reproduction and disclosure by the US Government is
 subject to restrictions as set forth in subparagraphs (a)
 and (c) of the Commercial Computer Software - Restricted
 Rights clause in FAR 52.227-19.
  
 Gaussian, Inc.
 340 Quinnipiac St., Bldg. 40, Wallingford CT 06492
  
  
 ---------------------------------------------------------------
 Warning -- This program may not be used in any manner that
 competes with the business of Gaussian, Inc. or will provide
 assistance to any competitor of Gaussian, Inc.  The licensee
 of this program is prohibited from giving any competitor of
 Gaussian, Inc. access to this program.  By using this program,
 the user acknowledges that Gaussian, Inc. is engaged in the
 business of creating and licensing software in the field of
 computational chemistry and represents and warrants to the
 licensee that it is not a competitor of Gaussian, Inc. and that
 it will not use this program in any manner prohibited above.
 ---------------------------------------------------------------
  

 Cite this work as:
 Gaussian 09, Revision D.01,
 M. J. Frisch, G. W. Trucks, H. B. Schlegel, G. E. Scuseria, 
 M. A. Robb, J. R. Cheeseman, G. Scalmani, V. Barone, B. Mennucci, 
 G. A. Petersson, H. Nakatsuji, M. Caricato, X. Li, H. P. Hratchian, 
 A. F. Izmaylov, J. Bloino, G. Zheng, J. L. Sonnenberg, M. Hada, 
 M. Ehara, K. Toyota, R. Fukuda, J. Hasegawa, M. Ishida, T. Nakajima, 
 Y. Honda, O. Kitao, H. Nakai, T. Vreven, J. A. Montgomery, Jr., 
 J. E. Peralta, F. Ogliaro, M. Bearpark, J. J. Heyd, E. Brothers, 
 K. N. Kudin, V. N. Staroverov, T. Keith, R. Kobayashi, J. Normand, 
 K. Raghavachari, A. Rendell, J. C. Burant, S. S. Iyengar, J. Tomasi, 
 M. Cossi, N. Rega, J. M. Millam, M. Klene, J. E. Knox, J. B. Cross, 
 V. Bakken, C. Adamo, J. Jaramillo, R. Gomperts, R. E. Stratmann, 
 O. Yazyev, A. J. Austin, R. Cammi, C. Pomelli, J. W. Ochterski, 
 R. L. Martin, K. Morokuma, V. G. Zakrzewski, G. A. Voth, 
 P. Salvador, J. J. Dannenberg, S. Dapprich, A. D. Daniels, 
 O. Farkas, J. B. Foresman, J. V. Ortiz, J. Cioslowski, 
 and D. J. Fox, Gaussian, Inc., Wallingford CT, 2013.
 
 ******************************************
 Gaussian 09:  ES64L-G09RevD.01 24-Apr-2013
                 6-Feb-2019 
 ******************************************
 %nprocshared=2
 Will use up to    2 processors via shared memory.
 %mem=6000MB
 %chk=/home/ke291/rds/hpc-work/06Feb0927IP1/P_ng_3ginp002.chk
 ----------------------------------------------------------------------
 # mPW1PW91/6-311g(d) geom=checkpoint nmr=giao scrf=(solvent=chloroform
 )
 ----------------------------------------------------------------------
 1/29=2,38=1/1;
 2/12=2,40=1/2;
 3/5=4,6=6,7=1,11=2,14=-4,16=1,25=1,30=1,70=2201,72=7,74=-7/1,2,8,3;
 4//1;
 5/5=2,38=5,53=7/2;
 8/6=1,10=90,11=11/1;
 10/13=100,45=16/2;
 6/7=2,8=2,9=2,10=2,28=1/1;
 99/9=1/99;
 -------------
 P_ng_3ginp002
 -------------
 Structure from the checkpoint file:  "/home/ke291/rds/hpc-work/06Feb0927IP1/P_ng_3ginp002.chk"
 Charge =  0 Multiplicity = 1
 Redundant internal coordinates found in file.
 C,0,-0.1513051729,0.5270624139,-0.1862149028
 C,0,-1.4831339071,0.0918023152,0.4415359991
 C,0,-1.7279825802,0.9191205637,1.7339650767
 C,0,-1.7894251145,2.4029283877,1.3375163129
 C,0,-0.7015071828,2.8768075707,0.3861528845
 H,0,0.6613208096,0.2927669376,0.5099537022
 H,0,-1.3527509366,-0.9494706877,0.756994714
 H,0,-2.7363443225,2.5980856716,0.822623354
 H,0,-1.7622134318,3.0628038672,2.2088709745
 O,0,-0.0853606581,1.9746538319,-0.405860225
 O,0,-0.4241651243,4.0515951211,0.2608726571
 C,0,0.1975537076,-0.0985283149,-1.5368617104
 C,0,0.3827230255,-1.6181035023,-1.4718448652
 C,0,-2.6641236087,0.1563547504,-0.5402132972
 O,0,-2.9591099329,0.468499632,2.2944275582
 Si,0,-4.1402981244,1.126455876,3.2984275346
 C,0,-3.4123166534,1.9796530359,4.81744028
 C,0,-5.231553559,2.3448491342,2.3555058398
 C,0,-5.1586069917,-0.3659190527,3.8206741609
 H,0,-6.0948495274,2.625255313,2.9705276416
 H,0,-4.7047070434,3.2677532039,2.0927902438
 H,0,-5.6152398721,1.9001645886,1.4310508622
 H,0,-5.9937025921,-0.0616407002,4.4614408948
 H,0,-5.576262053,-0.883961422,2.9510936022
 H,0,-4.5515391634,-1.0853834246,4.3798959689
 H,0,-4.2267303218,2.3239490881,5.4658837918
 H,0,-2.7880325437,1.2989854525,5.4055752636
 H,0,-2.8094006314,2.8574060559,4.5617620356
 H,0,-3.6003757608,-0.0267808649,-0.0110568662
 H,0,-2.736067036,1.1273883128,-1.0405523307
 H,0,-2.564454691,-0.6042062544,-1.3188870289
 H,0,1.127325722,0.3709343658,-1.8764502518
 H,0,-0.568961897,0.1647467341,-2.27298065
 H,0,0.7303568911,-2.000593928,-2.4357325724
 H,0,1.1248199995,-1.89672295,-0.7156552583
 H,0,-0.5500664007,-2.1364567348,-1.2288519529
 C,0,-0.6096050828,0.7083612488,2.7944087012
 C,0,-0.3814644614,-0.7268546638,3.1803018274
 C,0,0.8085874058,-1.3294124396,3.2138519033
 H,0,-0.918975902,1.2785924088,3.6794010739
 H,0,0.3310601612,1.1598956491,2.45909555
 H,0,-1.2722983898,-1.287845126,3.4587625308
 H,0,0.9135048165,-2.3664533382,3.5190770593
 H,0,1.724376132,-0.8054681264,2.9485989132
 Recover connectivity data from disk.
                          Input orientation:                          
 ---------------------------------------------------------------------
 Center     Atomic      Atomic             Coordinates (Angstroms)
 Number     Number       Type             X           Y           Z
 ---------------------------------------------------------------------
      1          6           0       -0.151305    0.527062   -0.186215
      2          6           0       -1.483134    0.091802    0.441536
      3          6           0       -1.727983    0.919121    1.733965
      4          6           0       -1.789425    2.402928    1.337516
      5          6           0       -0.701507    2.876808    0.386153
      6          1           0        0.661321    0.292767    0.509954
      7          1           0       -1.352751   -0.949471    0.756995
      8          1           0       -2.736344    2.598086    0.822623
      9          1           0       -1.762213    3.062804    2.208871
     10          8           0       -0.085361    1.974654   -0.405860
     11          8           0       -0.424165    4.051595    0.260873
     12          6           0        0.197554   -0.098528   -1.536862
     13          6           0        0.382723   -1.618104   -1.471845
     14          6           0       -2.664124    0.156355   -0.540213
     15          8           0       -2.959110    0.468500    2.294428
     16         14           0       -4.140298    1.126456    3.298428
     17          6           0       -3.412317    1.979653    4.817440
     18          6           0       -5.231554    2.344849    2.355506
     19          6           0       -5.158607   -0.365919    3.820674
     20          1           0       -6.094850    2.625255    2.970528
     21          1           0       -4.704707    3.267753    2.092790
     22          1           0       -5.615240    1.900165    1.431051
     23          1           0       -5.993703   -0.061641    4.461441
     24          1           0       -5.576262   -0.883961    2.951094
     25          1           0       -4.551539   -1.085383    4.379896
     26          1           0       -4.226730    2.323949    5.465884
     27          1           0       -2.788033    1.298985    5.405575
     28          1           0       -2.809401    2.857406    4.561762
     29          1           0       -3.600376   -0.026781   -0.011057
     30          1           0       -2.736067    1.127388   -1.040552
     31          1           0       -2.564455   -0.604206   -1.318887
     32          1           0        1.127326    0.370934   -1.876450
     33          1           0       -0.568962    0.164747   -2.272981
     34          1           0        0.730357   -2.000594   -2.435733
     35          1           0        1.124820   -1.896723   -0.715655
     36          1           0       -0.550066   -2.136457   -1.228852
     37          6           0       -0.609605    0.708361    2.794409
     38          6           0       -0.381464   -0.726855    3.180302
     39          6           0        0.808587   -1.329412    3.213852
     40          1           0       -0.918976    1.278592    3.679401
     41          1           0        0.331060    1.159896    2.459096
     42          1           0       -1.272298   -1.287845    3.458763
     43          1           0        0.913505   -2.366453    3.519077
     44          1           0        1.724376   -0.805468    2.948599
 ---------------------------------------------------------------------
                    Distance matrix (angstroms):
                    1          2          3          4          5
     1  C    0.000000
     2  C    1.535347   0.000000
     3  C    2.515296   1.553956   0.000000
     4  C    2.919600   2.497579   1.537086   0.000000
     5  C    2.480248   2.893140   2.588974   1.520927   0.000000
     6  H    1.095402   2.154937   2.756682   3.338233   2.924020
     7  H    2.124445   1.095793   2.141706   3.430200   3.898980
     8  H    3.462560   2.827936   2.160153   1.095380   2.099703
     9  H    3.842063   3.468171   2.195925   1.093360   2.117072
    10  O    1.465644   2.493387   2.896758   2.475200   1.349371
    11  O    3.563239   4.102927   3.698964   2.396080   1.213565
    12  C    1.528827   2.602882   3.929581   4.297374   3.654986
    13  C    2.557297   3.172732   4.601065   5.364647   4.983165
    14  C    2.564565   1.537119   2.574890   3.055824   3.480069
    15  O    3.747103   2.398669   1.425781   2.454762   3.812903
    16  Si   5.330485   4.036441   2.882672   3.316799   4.834290
    17  C    6.146607   5.141426   3.670086   3.863005   5.271592
    18  C    5.964362   4.773903   3.833279   3.589976   4.968164
    19  C    6.475002   5.013700   4.216025   5.018364   6.494378
    20  H    7.049337   5.837988   4.848661   4.610080   5.985851
    21  H    5.782622   4.815790   3.808637   3.133246   4.369332
    22  H    5.861360   4.617750   4.020569   3.859842   5.117657
    23  H    7.488717   6.043874   5.157265   5.788692   7.297245
    24  H    6.423694   4.899356   4.420606   5.267581   6.669748
    25  H    6.543043   5.129479   4.357919   5.390145   6.817015
    26  H    7.196118   6.144418   4.705794   4.794801   6.207779
    27  H    6.230274   5.272735   3.840407   4.331860   5.660187
    28  H    5.919397   5.136517   3.594837   3.412134   4.677532
    29  H    3.497644   2.168321   2.728679   3.316878   4.122140
    30  H    2.787701   2.199742   2.959317   2.859780   3.038978
    31  H    2.895860   2.180085   3.512850   4.086564   4.300604
    32  H    2.125128   3.502210   4.635557   4.792287   3.839714
    33  H    2.158773   2.865246   4.238870   4.419805   3.800504
    34  H    3.496670   4.190028   5.652835   6.322793   5.813976
    35  H    2.789899   3.477750   4.697669   5.585279   5.228388
    36  H    2.887981   2.936997   4.416144   5.359876   5.269155
    37  C    3.021097   2.584416   1.555548   2.527067   3.241960
    38  C    3.599822   3.063448   2.571816   3.895350   4.571223
    39  C    3.991033   3.867502   3.698669   4.919418   5.288530
    40  H    4.012119   3.494355   2.137389   2.739751   3.667024
    41  H    2.762394   2.915934   2.196234   2.701764   2.882893
    42  H    4.223313   3.324385   2.837829   4.288230   5.206829
    43  H    4.820316   4.610657   4.578108   5.900173   6.317853
    44  H    3.888557   4.168762   4.045778   5.023564   5.100019
                    6          7          8          9         10
     6  H    0.000000
     7  H    2.379216   0.000000
     8  H    4.117813   3.808385   0.000000
     9  H    4.053757   4.286485   1.756866   0.000000
    10  O    2.055479   3.392494   2.987566   3.291311   0.000000
    11  O    3.920346   5.110682   2.788266   2.561792   2.207489
    12  C    2.134864   2.896433   4.631053   5.278752   2.378506
    13  C    2.767050   2.902872   5.724458   6.329243   3.776683
    14  C    3.489991   2.150650   2.797247   4.101019   3.158208
    15  O    4.040142   2.637182   2.598263   2.858373   4.221195
    16  Si   5.614817   4.305667   3.204120   3.254514   5.557311
    17  C    6.163972   5.413760   4.098531   3.271191   6.192861
    18  C    6.507155   5.334125   2.939375   3.545882   5.851964
    19  C    6.728023   4.920488   4.862200   5.088176   7.005691
    20  H    7.559151   6.337657   3.986701   4.420781   6.923672
    21  H    6.336416   5.550220   2.436438   2.951906   5.408671
    22  H    6.544262   5.171420   3.024123   4.099091   5.827466
    23  H    7.747851   6.004132   5.561072   5.722039   7.921213
    24  H    6.800830   4.759875   4.971938   5.538485   7.042075
    25  H    6.636992   4.834887   5.432961   5.449876   7.225928
    26  H    7.251206   6.414723   4.884288   4.150648   7.193770
    27  H    6.072695   5.359561   4.763799   3.792397   6.444668
    28  H    5.919496   5.575876   3.748832   2.583580   5.733840
    29  H    4.305301   2.548152   2.886433   4.225216   4.064104
    30  H    3.826605   3.075400   2.373684   3.905506   2.854284
    31  H    3.815082   2.428316   3.856201   5.151275   3.691889
    32  H    2.432734   3.850881   5.212787   5.682028   2.491016
    33  H    3.045441   3.322131   4.494602   5.468965   2.644952
    34  H    3.733810   3.954454   6.616854   7.309121   4.537441
    35  H    2.551630   3.033866   6.121944   6.440863   4.067932
    36  H    3.223667   2.448842   5.603950   6.349768   4.218352
    37  C    2.647018   2.729785   3.461505   2.686031   3.481386
    38  C    3.042661   2.620186   4.707370   4.148693   4.499598
    39  C    3.156615   3.294220   5.806010   5.187540   4.981798
    40  H    3.676219   3.700390   3.633878   2.461081   4.227147
    41  H    2.158735   3.190892   3.762367   2.839976   3.007525
    42  H    3.864284   2.724063   4.918650   4.553064   5.195000
    43  H    4.023664   3.843547   6.725988   6.192975   5.937009
    44  H    2.878054   3.780552   6.000165   5.259946   4.717692
                   11         12         13         14         15
    11  O    0.000000
    12  C    4.565294   0.000000
    13  C    5.983215   1.532196   0.000000
    14  C    4.564214   3.040965   3.646905   0.000000
    15  O    4.837341   4.996481   5.450373   2.866991   0.000000
    16  Si   5.620749   6.610414   7.123610   4.225559   1.684081
    17  C    5.829606   7.597839   8.179321   5.708648   2.975664
    18  C    5.514658   7.113074   7.865984   4.445941   2.947612
    19  C    7.389287   7.580445   7.764346   5.050996   2.804188
    20  H    6.444636   8.205480   8.927470   5.494602   3.865433
    21  H    4.721585   6.966949   7.903174   4.558233   3.305085
    22  H    5.739793   6.825822   7.535289   3.954218   3.138489
    23  H    8.098347   8.620478   8.847896   6.012501   3.766397
    24  H    7.625032   7.354971   7.457268   4.663907   3.018252
    25  H    7.771108   7.650868   7.672914   5.414031   3.049518
    26  H    6.673560   8.630245   9.215146   6.573691   3.886861
    27  H    6.295450   7.685324   8.115541   6.055853   3.224626
    28  H    5.060937   7.414346   8.162368   5.774681   3.296982
    29  H    5.176428   4.093592   4.531146   1.090923   2.443723
    30  H    3.948365   3.217969   4.177390   1.094724   3.406754
    31  H    5.362179   2.816365   3.120455   1.093032   3.789788
    32  H    4.530181   1.095533   2.162038   4.025750   5.839923
    33  H    4.642087   1.094866   2.173954   2.718870   5.163941
    34  H    6.725592   2.170185   1.093722   4.446113   6.487141
    35  H    6.223781   2.183508   1.095518   4.313004   5.597621
    36  H    6.366091   2.192478   1.094455   3.193814   5.000279
    37  C    4.198858   4.479116   4.959644   3.955434   2.414060
    38  C    5.599864   4.793922   4.797997   4.453406   2.976223
    39  C    6.260592   4.945474   4.713858   5.325433   4.274737
    40  H    4.429528   5.509310   6.051496   4.702138   2.595486
    41  H    3.710051   4.191555   4.813755   4.355924   3.366060
    42  H    6.281357   5.341461   5.211435   4.473779   2.699214
    43  H    7.320970   5.587360   5.074550   5.970077   4.953168
    44  H    5.952408   4.790648   4.690494   5.688220   4.897548
                   16         17         18         19         20
    16  Si   0.000000
    17  C    1.888201   0.000000
    18  C    1.887968   3.082874   0.000000
    19  C    1.880659   3.089463   3.082256   0.000000
    20  H    2.484792   3.320222   1.096430   3.247526   0.000000
    21  H    2.521363   3.279206   1.094687   4.049096   1.765141
    22  H    2.502234   4.040646   1.095252   3.324748   1.767985
    23  H    2.489836   3.310161   3.287404   1.095697   3.074486
    24  H    2.494877   4.045516   3.301328   1.094977   3.547381
    25  H    2.496182   3.299049   4.040677   1.094938   4.258752
    26  H    2.477767   1.096489   3.268724   3.287932   3.131686
    27  H    2.509673   1.094962   4.045683   3.302036   4.315494
    28  H    2.522596   1.095139   3.316188   4.056822   3.657881
    29  H    3.546006   5.232163   3.726391   4.150333   4.705905
    30  H    4.560550   5.958166   4.386670   5.632956   5.441855
    31  H    5.176685   6.711908   5.414010   5.762074   6.425900
    32  H    7.422805   8.246484   7.889305   8.515464   8.985264
    33  H    6.687295   7.851918   6.922102   7.647161   8.005243
    34  H    8.147534   9.252709   8.796773   8.746124   9.859492
    35  H    7.278320   8.138000   8.235681   7.899563   9.282234
    36  H    6.635708   7.854456   7.405812   7.061952   8.429313
    37  C    3.590910   3.682938   4.922716   4.785469   5.813210
    38  C    4.192558   4.380807   5.799915   4.833368   6.627474
    39  C    5.525388   5.597985   7.121816   6.074863   7.959651
    40  H    3.247338   2.829022   4.635507   4.549599   5.394967
    41  H    4.549576   4.499629   5.688367   5.858195   6.610685
    42  H    3.752330   4.135484   5.485376   4.010526   6.229585
    43  H    6.147359   6.267944   7.830199   6.400284   8.621780
    44  H    6.184587   6.134744   7.659061   6.951919   8.538772
                   21         22         23         24         25
    21  H    0.000000
    22  H    1.771233   0.000000
    23  H    4.284493   3.629763   0.000000
    24  H    4.328167   3.172287   1.769638   0.000000
    25  H    4.919767   4.329047   1.770462   1.769775   0.000000
    26  H    3.535108   4.288057   3.134029   4.293727   3.592829
    27  H    4.303979   4.914404   3.608187   4.308592   3.138023
    28  H    3.139489   4.311658   4.320958   4.924186   4.314361
    29  H    4.061979   3.138865   5.072718   3.662406   4.615823
    30  H    4.274873   3.872421   6.503684   5.295798   6.129727
    31  H    5.586796   4.810543   6.742871   5.232779   6.054433
    32  H    7.626207   7.664222   9.542800   8.355719   8.573928
    33  H    6.767052   6.495879   8.650520   7.311894   7.853949
    34  H    8.820596   8.392528   9.825656   8.368883   8.671149
    35  H    8.279044   8.028269   8.991286   7.705533   7.670982
    36  H    7.582864   7.001812   8.143554   6.656075   6.969548
    37  C    4.879817   5.323112   5.688621   5.218019   4.611956
    38  C    5.985817   6.111752   5.794915   5.202225   4.353974
    39  C    7.265475   7.407706   7.030994   6.405761   5.490917
    40  H    4.561344   5.243694   5.306662   5.186269   4.390284
    41  H    5.471398   6.079750   6.745677   6.270237   5.707060
    42  H    5.865218   5.756402   4.980020   4.352580   3.412169
    43  H    8.083494   8.073933   7.342324   6.681127   5.678808
    44  H    7.658763   7.968272   7.900045   7.301061   6.443142
                   26         27         28         29         30
    26  H    0.000000
    27  H    1.767495   0.000000
    28  H    1.763756   1.772330   0.000000
    29  H    5.992923   5.635376   5.463959   0.000000
    30  H    6.781412   6.448621   5.863810   1.771721   0.000000
    31  H    7.574323   6.992176   6.828235   1.765495   1.762198
    32  H    9.294625   8.319808   7.945498   5.097944   4.024519
    33  H    8.827879   8.072855   7.680084   3.787143   2.672434
    34  H   10.281533   9.206106   9.224694   5.341370   4.873079
    35  H    9.201336   7.936777   8.119789   5.130362   4.915003
    36  H    8.844917   7.799127   7.973360   3.903607   3.932778
    37  C    4.778127   3.451460   3.546975   4.166027   4.405037
    38  C    5.414551   3.853238   4.544253   4.586531   5.176677
    39  C    6.616126   4.964655   5.695274   5.615678   6.058086
    40  H    3.901991   2.544301   2.616280   4.744827   5.059905
    41  H    5.582943   4.292998   4.143096   4.792290   4.653586
    42  H    5.079593   3.574804   4.556578   4.364616   5.312232
    43  H    7.225784   5.540370   6.498917   6.189591   6.805624
    44  H    7.179529   5.552233   6.047650   6.141571   6.288467
                   31         32         33         34         35
    31  H    0.000000
    32  H    3.858888   0.000000
    33  H    2.341703   1.754178   0.000000
    34  H    3.748737   2.468710   2.530498   0.000000
    35  H    3.955406   2.547493   3.089307   1.767783   0.000000
    36  H    2.532520   3.085456   2.527073   1.764796   1.768075
    37  C    4.739565   4.994768   5.096627   6.040556   4.702685
    38  C    5.002318   5.390021   5.528870   5.865015   4.337737
    39  C    5.696408   5.376239   5.851110   5.689851   3.982822
    40  H    5.588865   5.989881   6.065807   7.132196   5.794502
    41  H    5.076339   4.478109   4.918628   5.840160   4.477948
    42  H    4.996295   6.080645   5.954627   6.266076   4.852079
    43  H    6.213503   6.053984   6.492504   5.968849   4.265942
    44  H    6.053595   5.002149   5.784947   5.604233   3.870021
                   36         37         38         39         40
    36  H    0.000000
    37  C    4.927795   0.000000
    38  C    4.632067   1.503598   0.000000
    39  C    4.715387   2.517881   1.334326   0.000000
    40  H    5.990793   1.097308   2.135377   3.162736   0.000000
    41  H    5.024269   1.095979   2.141882   2.644682   1.750950
    42  H    4.818246   2.205758   1.088961   2.095661   2.600023
    43  H    4.973708   3.507063   2.116601   1.086105   4.082897
    44  H    4.939202   2.786202   2.120007   1.087909   3.444516
                   41         42         43         44
    41  H    0.000000
    42  H    3.092172   0.000000
    43  H    3.727994   2.438190   0.000000
    44  H    2.458373   3.077826   1.849225   0.000000
 Stoichiometry    C14H26O3Si
 Framework group  C1[X(C14H26O3Si)]
 Deg. of freedom   126
 Full point group                 C1      NOp   1
 Largest Abelian subgroup         C1      NOp   1
 Largest concise Abelian subgroup C1      NOp   1
                         Standard orientation:                         
 ---------------------------------------------------------------------
 Center     Atomic      Atomic             Coordinates (Angstroms)
 Number     Number       Type             X           Y           Z
 ---------------------------------------------------------------------
      1          6           0        2.429946   -0.110986    0.063173
      2          6           0        1.116690    0.244628    0.774643
      3          6           0       -0.065283    0.043257   -0.213875
      4          6           0       -0.076339   -1.433985   -0.638452
      5          6           0        1.274510   -2.021260   -1.017313
      6          1           0        2.580006    0.583482   -0.770555
      7          1           0        1.161965    1.317432    0.993289
      8          1           0       -0.439429   -2.044513    0.195381
      9          1           0       -0.751189   -1.615061   -1.479418
     10          8           0        2.396527   -1.449862   -0.532148
     11          8           0        1.372424   -3.033965   -1.678812
     12          6           0        3.694109   -0.087052    0.922608
     13          6           0        4.024111    1.302445    1.477605
     14          6           0        0.922053   -0.511842    2.098503
     15          8           0       -1.258171    0.405111    0.478175
     16         14           0       -2.891128    0.012215    0.354839
     17          6           0       -3.531279    0.107767   -1.418965
     18          6           0       -3.230467   -1.708416    1.053909
     19          6           0       -3.740015    1.309355    1.419590
     20          1           0       -4.311772   -1.874113    1.127965
     21          1           0       -2.820244   -2.507099    0.427681
     22          1           0       -2.810033   -1.817920    2.059305
     23          1           0       -4.822259    1.140680    1.448722
     24          1           0       -3.369511    1.280158    2.449565
     25          1           0       -3.568102    2.318059    1.029907
     26          1           0       -4.610197   -0.087588   -1.426781
     27          1           0       -3.372712    1.099466   -1.855234
     28          1           0       -3.063981   -0.631476   -2.078117
     29          1           0       -0.080086   -0.329605    2.489168
     30          1           0        1.055062   -1.592324    1.983228
     31          1           0        1.641337   -0.173778    2.848879
     32          1           0        4.517885   -0.435401    0.289964
     33          1           0        3.599641   -0.813967    1.735874
     34          1           0        4.987067    1.286230    1.995948
     35          1           0        4.089874    2.046060    0.675812
     36          1           0        3.271301    1.649808    2.192061
     37          6           0        0.054260    0.947356   -1.474050
     38          6           0        0.184583    2.415296   -1.175764
     39          6           0        1.112839    3.221223   -1.694657
     40          1           0       -0.857553    0.774316   -2.059490
     41          1           0        0.885814    0.618915   -2.107938
     42          1           0       -0.555316    2.824814   -0.489703
     43          1           0        1.146064    4.280088   -1.455234
     44          1           0        1.867609    2.855327   -2.387469
 ---------------------------------------------------------------------
 Rotational constants (GHZ):      0.5016596      0.2619131      0.2332664
 Standard basis: 6-311G(d) (5D, 7F)
 There are   428 symmetry adapted cartesian basis functions of A   symmetry.
 There are   410 symmetry adapted basis functions of A   symmetry.
   410 basis functions,   720 primitive gaussians,   428 cartesian basis functions
    74 alpha electrons       74 beta electrons
       nuclear repulsion energy      1626.5293479521 Hartrees.
 NAtoms=   44 NActive=   44 NUniq=   44 SFac= 1.00D+00 NAtFMM=   60 NAOKFM=F Big=F
 Integral buffers will be    131072 words long.
 Raffenetti 2 integral format.
 Two-electron integral symmetry is turned on.
 ------------------------------------------------------------------------------
 Polarizable Continuum Model (PCM)
 =================================
 Model                : PCM (using non-symmetric T matrix).
 Atomic radii         : UFF (Universal Force Field).
 Polarization charges : Total charges.
 Charge compensation  : None.
 Solution method      : On-the-fly selection.
 Cavity type          : Scaled VdW (van der Waals Surface) (Alpha=1.100).
 Cavity algorithm     : GePol (No added spheres)
                        Default sphere list used, NSphG=   44.
                        Lebedev-Laikov grids with approx.  5.0 points / Ang**2.
                        Smoothing algorithm: Karplus/York (Gamma=1.0000).
                        Polarization charges: spherical gaussians, with
                                              point-specific exponents (IZeta= 3).
                        Self-potential: point-specific (ISelfS= 7).
                        Self-field    : sphere-specific E.n sum rule (ISelfD= 2).
 Solvent              : Chloroform, Eps=   4.711300 Eps(inf)=   2.090627
 ------------------------------------------------------------------------------
 One-electron integrals computed using PRISM.
 NBasis=   410 RedAO= T EigKep=  1.06D-03  NBF=   410
 NBsUse=   410 1.00D-06 EigRej= -1.00D+00 NBFU=   410
 ExpMin= 6.54D-02 ExpMax= 6.94D+04 ExpMxC= 2.33D+03 IAcc=2 IRadAn=         4 AccDes= 0.00D+00
 Harris functional with IExCor=  908 and IRadAn=       4 diagonalized for initial guess.
 HarFok:  IExCor=  908 AccDes= 0.00D+00 IRadAn=         4 IDoV= 1 UseB2=F ITyADJ=14
 ICtDFT=  3500011 ScaDFX=  1.000000  1.000000  1.000000  1.000000
 FoFCou: FMM=F IPFlag=           0 FMFlag=      100000 FMFlg1=           0
         NFxFlg=           0 DoJE=T BraDBF=F KetDBF=T FulRan=T
         wScrn=  0.000000 ICntrl=     500 IOpCl=  0 I1Cent=   200000004 NGrid=           0
         NMat0=    1 NMatS0=      1 NMatT0=    0 NMatD0=    1 NMtDS0=    0 NMtDT0=    0
 Petite list used in FoFCou.
 Requested convergence on RMS density matrix=1.00D-08 within 128 cycles.
 Requested convergence on MAX density matrix=1.00D-06.
 Requested convergence on             energy=1.00D-06.
 No special actions if energy rises.
 Inv3:  Mode=1 IEnd=    24986988.
 Iteration    1 A*A^-1 deviation from unit magnitude is 7.66D-15 for   2883.
 Iteration    1 A*A^-1 deviation from orthogonality  is 4.17D-15 for   2883   1513.
 Iteration    1 A^-1*A deviation from unit magnitude is 7.55D-15 for   2883.
 Iteration    1 A^-1*A deviation from orthogonality  is 5.81D-10 for   2373   2360.
 Iteration    2 A*A^-1 deviation from unit magnitude is 2.89D-15 for    845.
 Iteration    2 A*A^-1 deviation from orthogonality  is 3.69D-15 for   2360    427.
 Iteration    2 A^-1*A deviation from unit magnitude is 8.88D-16 for    748.
 Iteration    2 A^-1*A deviation from orthogonality  is 4.68D-16 for   2512   1329.
 Error on total polarization charges =  0.01112
 SCF Done:  E(RmPW1PW91) =  -1064.38445528     A.U. after   12 cycles
            NFock= 12  Conv=0.92D-08     -V/T= 2.0036
 DoSCS=F DFT=T ScalE2(SS,OS)=  1.000000  1.000000
 Range of M.O.s used for correlation:     1   410
 NBasis=   410 NAE=    74 NBE=    74 NFC=     0 NFV=     0
 NROrb=    410 NOA=    74 NOB=    74 NVA=   336 NVB=   336
 NEqPCM:  Using equilibrium solvation (IEInf=0, Eps=   4.7113, EpsInf=   2.0906)
          Differentiating once with respect to magnetic field using GIAOs.
          Electric field/nuclear overlap derivatives assumed to be zero.
 FoFJK:  IHMeth= 1 ICntrl=    6127 DoSepK=F KAlg= 0 I1Cent=   0 FoldK=F
 IRaf=         1 NMat=   1 IRICut=       1 DoRegI=T DoRafI=F ISym2E= 0.
          There are     3 degrees of freedom in the 1st order CPHF.  IDoFFX=0 NUNeed=     3.
      3 vectors produced by pass  0 Test12= 8.29D-13 3.33D-08 XBig12= 3.74D+01 1.01D+00.
 AX will form     3 AO Fock derivatives at one time.
      3 vectors produced by pass  1 Test12= 8.29D-13 3.33D-08 XBig12= 7.36D-02 1.03D-01.
      3 vectors produced by pass  2 Test12= 8.29D-13 3.33D-08 XBig12= 8.26D-04 1.23D-02.
      3 vectors produced by pass  3 Test12= 8.29D-13 3.33D-08 XBig12= 5.32D-06 6.68D-04.
      3 vectors produced by pass  4 Test12= 8.29D-13 3.33D-08 XBig12= 3.30D-08 4.59D-05.
      3 vectors produced by pass  5 Test12= 8.29D-13 3.33D-08 XBig12= 7.50D-11 1.67D-06.
      2 vectors produced by pass  6 Test12= 8.29D-13 3.33D-08 XBig12= 2.13D-13 1.03D-07.
 InvSVY:  IOpt=1 It=  1 EMax= 8.88D-16
 Solved reduced A of dimension    20 with     3 vectors.
 Calculating GIAO nuclear magnetic shielding tensors.
 SCF GIAO Magnetic shielding tensor (ppm):
      1  C    Isotropic =   104.5053   Anisotropy =    63.0969
   XX=    95.0667   YX=    12.4399   ZX=     9.5178
   XY=     3.2382   YY=   132.9467   ZY=    25.4209
   XZ=     7.3486   YZ=    26.4878   ZZ=    85.5024
   Eigenvalues:    73.0479    93.8980   146.5699
      2  C    Isotropic =   149.0752   Anisotropy =    15.6300
   XX=   159.3075   YX=     1.2720   ZX=    -2.0957
   XY=     0.6660   YY=   137.9350   ZY=    -3.7659
   XZ=     4.7673   YZ=   -10.4021   ZZ=   149.9829
   Eigenvalues:   134.5760   153.1543   159.4951
      3  C    Isotropic =   107.9134   Anisotropy =    55.4188
   XX=   134.3258   YX=   -11.0639   ZX=   -20.5088
   XY=    -5.9698   YY=    85.5108   ZY=     2.7719
   XZ=   -17.5147   YZ=     3.8173   ZZ=   103.9037
   Eigenvalues:    84.0671    94.8139   144.8593
      4  C    Isotropic =   144.3713   Anisotropy =    37.6160
   XX=   150.3845   YX=   -14.9012   ZX=    -4.5109
   XY=   -12.0497   YY=   153.1629   ZY=     4.6781
   XZ=   -10.1889   YZ=    16.5839   ZZ=   129.5665
   Eigenvalues:   125.2532   138.4121   169.4487
      5  C    Isotropic =    13.2793   Anisotropy =    88.1294
   XX=   -71.3234   YX=   -13.6788   ZX=   -16.7752
   XY=   -23.5045   YY=    49.8008   ZY=   -15.8439
   XZ=   -25.5062   YZ=   -14.1120   ZZ=    61.3604
   Eigenvalues:   -77.9810    45.7866    72.0322
      6  H    Isotropic =    27.8831   Anisotropy =     2.7485
   XX=    29.1445   YX=     0.4431   ZX=    -0.0827
   XY=     0.9710   YY=    27.4405   ZY=    -2.2793
   XZ=     0.5456   YZ=    -2.0774   ZZ=    27.0641
   Eigenvalues:    24.9646    28.9692    29.7154
      7  H    Isotropic =    30.1050   Anisotropy =     4.5062
   XX=    29.3622   YX=     0.7989   ZX=     2.5710
   XY=     0.2376   YY=    32.8639   ZY=    -0.8907
   XZ=     1.9256   YZ=    -1.3276   ZZ=    28.0889
   Eigenvalues:    26.1742    31.0318    33.1091
      8  H    Isotropic =    29.3967   Anisotropy =     4.4520
   XX=    30.4994   YX=     1.1336   ZX=    -1.5130
   XY=     1.6674   YY=    30.6223   ZY=    -0.8997
   XZ=    -1.6177   YZ=    -0.0673   ZZ=    27.0685
   Eigenvalues:    26.4608    29.3647    32.3647
      9  H    Isotropic =    29.7269   Anisotropy =     3.9742
   XX=    30.8452   YX=    -0.2608   ZX=     2.0403
   XY=    -1.3107   YY=    29.7411   ZY=     2.9268
   XZ=     1.2242   YZ=     3.0180   ZZ=    28.5945
   Eigenvalues:    25.5528    31.2516    32.3764
     10  O    Isotropic =   104.0839   Anisotropy =   179.4924
   XX=   197.7667   YX=    45.4026   ZX=    37.0231
   XY=    57.0054   YY=   -23.9292   ZY=  -119.5811
   XZ=    47.3977   YZ=  -145.9634   ZZ=   138.4143
   Eigenvalues:  -112.1568   200.6630   223.7455
     11  O    Isotropic =  -105.7423   Anisotropy =   569.3208
   XX=  -248.2100   YX=   -58.0868   ZX=   -66.2133
   XY=   -50.2906   YY=  -138.2509   ZY=  -270.8881
   XZ=   -58.7194   YZ=  -308.1401   ZZ=    69.2341
   Eigenvalues:  -388.2527  -202.7790   273.8049
     12  C    Isotropic =   159.6249   Anisotropy =    24.6335
   XX=   166.0073   YX=     2.4709   ZX=    13.8056
   XY=    -0.9886   YY=   161.3266   ZY=     6.4161
   XZ=    13.3608   YZ=    10.5411   ZZ=   151.5408
   Eigenvalues:   140.9657   161.8617   176.0472
     13  C    Isotropic =   178.2408   Anisotropy =    16.8616
   XX=   174.9067   YX=     3.8821   ZX=     3.2915
   XY=     6.0661   YY=   185.6432   ZY=     4.7647
   XZ=     3.5865   YZ=     4.0312   ZZ=   174.1725
   Eigenvalues:   171.0807   174.1598   189.4819
     14  C    Isotropic =   181.1938   Anisotropy =    12.2492
   XX=   178.9635   YX=     2.8221   ZX=     0.7980
   XY=     2.3382   YY=   179.9285   ZY=    -7.1185
   XZ=     0.7832   YZ=    -6.0068   ZZ=   184.6893
   Eigenvalues:   173.9910   180.2304   189.3599
     15  O    Isotropic =   245.4450   Anisotropy =    20.6324
   XX=   237.7989   YX=   -10.4257   ZX=     7.4056
   XY=   -10.9783   YY=   252.7245   ZY=     7.2948
   XZ=    13.0359   YZ=     9.1111   ZZ=   245.8117
   Eigenvalues:   224.4190   252.7161   259.2000
     16  Si   Isotropic =   332.8314   Anisotropy =    42.4672
   XX=   360.9454   YX=     9.3329   ZX=     6.9564
   XY=    -3.9547   YY=   322.8288   ZY=     5.4124
   XZ=    -6.3273   YZ=     3.6236   ZZ=   314.7200
   Eigenvalues:   312.6902   324.6611   361.1428
     17  C    Isotropic =   185.6752   Anisotropy =     9.2778
   XX=   187.1803   YX=     0.4221   ZX=     3.1525
   XY=     1.8124   YY=   179.2980   ZY=    -2.0207
   XZ=     1.5081   YZ=    -1.8331   ZZ=   190.5474
   Eigenvalues:   178.7051   186.4601   191.8604
     18  C    Isotropic =   185.2285   Anisotropy =    11.8336
   XX=   186.6996   YX=     2.7477   ZX=    -0.9217
   XY=     0.7779   YY=   189.9943   ZY=    -6.1296
   XZ=    -0.0973   YZ=    -5.7844   ZZ=   178.9916
   Eigenvalues:   176.3786   186.1893   193.1175
     19  C    Isotropic =   186.7782   Anisotropy =    12.6065
   XX=   189.4993   YX=    -1.5205   ZX=    -3.0555
   XY=    -1.3407   YY=   188.1699   ZY=     7.4708
   XZ=    -2.8961   YZ=     8.1079   ZZ=   182.6655
   Eigenvalues:   176.9432   188.2089   195.1826
     20  H    Isotropic =    32.2155   Anisotropy =    10.5024
   XX=    37.7444   YX=     3.2578   ZX=    -1.6800
   XY=     3.0129   YY=    30.4944   ZY=    -0.9019
   XZ=    -1.5352   YZ=    -0.8656   ZZ=    28.4078
   Eigenvalues:    28.0488    29.3806    39.2171
     21  H    Isotropic =    31.9049   Anisotropy =     6.7201
   XX=    31.0854   YX=    -0.3653   ZX=    -2.1954
   XY=    -1.1477   YY=    34.9435   ZY=     2.8292
   XZ=    -2.1662   YZ=     2.1112   ZZ=    29.6859
   Eigenvalues:    27.7178    31.6120    36.3850
     22  H    Isotropic =    31.8744   Anisotropy =     7.4910
   XX=    30.5783   YX=     0.6160   ZX=     1.5326
   XY=     0.1648   YY=    29.5820   ZY=    -3.1629
   XZ=     1.7681   YZ=    -2.3571   ZZ=    35.4628
   Eigenvalues:    28.0756    30.6791    36.8684
     23  H    Isotropic =    32.3410   Anisotropy =    10.3234
   XX=    38.8561   YX=    -0.5869   ZX=    -1.9560
   XY=    -0.3059   YY=    29.1978   ZY=     0.7368
   XZ=    -1.7388   YZ=     0.8033   ZZ=    28.9691
   Eigenvalues:    28.1727    29.6270    39.2232
     24  H    Isotropic =    31.8925   Anisotropy =     8.2591
   XX=    29.9843   YX=    -1.1231   ZX=     0.7545
   XY=    -0.7226   YY=    28.7444   ZY=     2.0804
   XZ=     1.1353   YZ=     1.5091   ZZ=    36.9488
   Eigenvalues:    27.8028    30.4761    37.3986
     25  H    Isotropic =    31.9261   Anisotropy =     8.4345
   XX=    29.5167   YX=    -0.6973   ZX=    -1.3846
   XY=    -0.2802   YY=    37.4068   ZY=    -1.4233
   XZ=    -1.1464   YZ=    -0.6863   ZZ=    28.8547
   Eigenvalues:    27.7443    30.4848    37.5491
     26  H    Isotropic =    32.1495   Anisotropy =    10.5110
   XX=    38.4514   YX=     1.3546   ZX=     2.4066
   XY=     1.3971   YY=    28.2088   ZY=     0.1766
   XZ=     2.0063   YZ=     0.2477   ZZ=    29.7882
   Eigenvalues:    28.0225    29.2691    39.1568
     27  H    Isotropic =    31.8625   Anisotropy =     7.5578
   XX=    30.2719   YX=     0.1856   ZX=     0.9215
   XY=     0.2882   YY=    33.9868   ZY=    -3.7614
   XZ=     0.6644   YZ=    -4.2742   ZZ=    31.3288
   Eigenvalues:    28.1385    30.5480    36.9010
     28  H    Isotropic =    31.8657   Anisotropy =     6.8158
   XX=    31.5019   YX=    -1.5956   ZX=    -0.0914
   XY=    -1.8618   YY=    30.8118   ZY=     3.4027
   XZ=    -0.9558   YZ=     4.0558   ZZ=    33.2835
   Eigenvalues:    27.7740    31.4135    36.4096
     29  H    Isotropic =    30.7787   Anisotropy =     8.3458
   XX=    35.1963   YX=    -1.4042   ZX=    -1.8148
   XY=    -0.7745   YY=    24.4678   ZY=    -0.9406
   XZ=    -2.2439   YZ=    -1.0785   ZZ=    32.6721
   Eigenvalues:    24.1797    31.8139    36.3426
     30  H    Isotropic =    31.5055   Anisotropy =     7.5076
   XX=    28.7517   YX=    -0.3341   ZX=     0.4222
   XY=    -0.3036   YY=    35.3106   ZY=    -2.8645
   XZ=     0.3831   YZ=    -2.4552   ZZ=    30.4541
   Eigenvalues:    28.6363    29.3696    36.5105
     31  H    Isotropic =    31.2133   Anisotropy =     9.9262
   XX=    31.7775   YX=     2.2133   ZX=     3.1797
   XY=     2.1930   YY=    26.1818   ZY=     0.4621
   XZ=     3.5734   YZ=     0.4821   ZZ=    35.6805
   Eigenvalues:    25.3688    30.4402    37.8307
     32  H    Isotropic =    30.2019   Anisotropy =     9.0520
   XX=    34.7413   YX=    -1.7282   ZX=    -2.2437
   XY=    -2.0934   YY=    28.1585   ZY=     3.7400
   XZ=    -1.7239   YZ=     2.7218   ZZ=    27.7060
   Eigenvalues:    24.6910    29.6782    36.2366
     33  H    Isotropic =    30.3434   Anisotropy =     5.3306
   XX=    31.0800   YX=    -0.5079   ZX=     2.0071
   XY=    -0.1194   YY=    30.5222   ZY=    -3.5477
   XZ=     1.4968   YZ=    -2.7818   ZZ=    29.4279
   Eigenvalues:    26.4647    30.6683    33.8971
     34  H    Isotropic =    31.0192   Anisotropy =    12.0254
   XX=    35.4834   YX=     1.7886   ZX=     4.9481
   XY=     2.6121   YY=    28.4960   ZY=     1.9349
   XZ=     5.2877   YZ=     1.4678   ZZ=    29.0784
   Eigenvalues:    26.1409    27.8807    39.0362
     35  H    Isotropic =    31.3678   Anisotropy =     8.4451
   XX=    29.7802   YX=     2.8556   ZX=     0.3873
   XY=     3.1778   YY=    34.2650   ZY=    -3.7486
   XZ=     0.5274   YZ=    -3.0127   ZZ=    30.0583
   Eigenvalues:    26.7418    30.3638    36.9979
     36  H    Isotropic =    31.3102   Anisotropy =     6.0829
   XX=    32.1053   YX=     0.6834   ZX=    -1.2703
   XY=     0.2471   YY=    30.4091   ZY=     4.6183
   XZ=    -1.4886   YZ=     3.8890   ZZ=    31.4162
   Eigenvalues:    26.3488    32.2163    35.3655
     37  C    Isotropic =   140.3930   Anisotropy =    33.9164
   XX=   123.3892   YX=     2.7910   ZX=    -0.1556
   XY=     7.1603   YY=   158.4907   ZY=    -9.8492
   XZ=     0.3982   YZ=    -9.3822   ZZ=   139.2990
   Eigenvalues:   122.5515   135.6235   163.0039
     38  C    Isotropic =    46.4065   Anisotropy =   179.8766
   XX=    66.0909   YX=    24.5619   ZX=    82.7946
   XY=    26.7910   YY=   -11.9295   ZY=   -69.6018
   XZ=    82.2868   YZ=   -68.2365   ZZ=    85.0581
   Eigenvalues:   -77.4206    50.3158   166.3242
     39  C    Isotropic =    65.7579   Anisotropy =   141.6291
   XX=    91.6912   YX=    28.9229   ZX=    60.9818
   XY=    31.0629   YY=     9.9104   ZY=   -64.1752
   XZ=    58.7569   YZ=   -69.9622   ZZ=    95.6723
   Eigenvalues:   -49.5622    86.6586   160.1773
     40  H    Isotropic =    29.5321   Anisotropy =     5.8473
   XX=    31.7035   YX=     2.3052   ZX=     1.5248
   XY=     1.9659   YY=    27.3951   ZY=    -1.6009
   XZ=     3.0837   YZ=    -0.6858   ZZ=    29.4977
   Eigenvalues:    25.4802    29.6858    33.4303
     41  H    Isotropic =    29.7398   Anisotropy =     5.3579
   XX=    29.1411   YX=     0.4802   ZX=    -2.3186
   XY=    -0.6325   YY=    28.4903   ZY=    -1.0195
   XZ=    -1.9678   YZ=    -2.5226   ZZ=    31.5881
   Eigenvalues:    27.0402    28.8676    33.3118
     42  H    Isotropic =    25.7394   Anisotropy =     7.2816
   XX=    25.6647   YX=     1.1995   ZX=    -0.1253
   XY=     2.4482   YY=    29.0308   ZY=    -2.9615
   XZ=    -0.0728   YZ=    -2.3195   ZZ=    22.5228
   Eigenvalues:    21.5158    25.1086    30.5938
     43  H    Isotropic =    26.7072   Anisotropy =     6.8240
   XX=    26.4123   YX=     3.3940   ZX=     0.1313
   XY=     1.7087   YY=    28.6490   ZY=    -1.8459
   XZ=    -0.2952   YZ=    -3.6639   ZZ=    25.0604
   Eigenvalues:    23.0658    25.7993    31.2565
     44  H    Isotropic =    26.7664   Anisotropy =     7.2135
   XX=    27.1978   YX=     1.7109   ZX=    -1.0172
   XY=     3.7181   YY=    26.5953   ZY=    -4.3852
   XZ=    -0.3230   YZ=    -2.8770   ZZ=    26.5060
   Eigenvalues:    22.4128    26.3109    31.5754
 End of Minotr F.D. properties file   721 does not exist.
 End of Minotr F.D. properties file   722 does not exist.
 End of Minotr F.D. properties file   788 does not exist.

 **********************************************************************

            Population analysis using the SCF density.

 **********************************************************************

 Orbital symmetries:
       Occupied  (A) (A) (A) (A) (A) (A) (A) (A) (A) (A) (A) (A)
                 (A) (A) (A) (A) (A) (A) (A) (A) (A) (A) (A) (A)
                 (A) (A) (A) (A) (A) (A) (A) (A) (A) (A) (A) (A)
                 (A) (A) (A) (A) (A) (A) (A) (A) (A) (A) (A) (A)
                 (A) (A) (A) (A) (A) (A) (A) (A) (A) (A) (A) (A)
                 (A) (A) (A) (A) (A) (A) (A) (A) (A) (A) (A) (A)
                 (A) (A)
       Virtual   (A) (A) (A) (A) (A) (A) (A) (A) (A) (A) (A) (A)
                 (A) (A) (A) (A) (A) (A) (A) (A) (A) (A) (A) (A)
                 (A) (A) (A) (A) (A) (A) (A) (A) (A) (A) (A) (A)
                 (A) (A) (A) (A) (A) (A) (A) (A) (A) (A) (A) (A)
                 (A) (A) (A) (A) (A) (A) (A) (A) (A) (A) (A) (A)
                 (A) (A) (A) (A) (A) (A) (A) (A) (A) (A) (A) (A)
                 (A) (A) (A) (A) (A) (A) (A) (A) (A) (A) (A) (A)
                 (A) (A) (A) (A) (A) (A) (A) (A) (A) (A) (A) (A)
                 (A) (A) (A) (A) (A) (A) (A) (A) (A) (A) (A) (A)
                 (A) (A) (A) (A) (A) (A) (A) (A) (A) (A) (A) (A)
                 (A) (A) (A) (A) (A) (A) (A) (A) (A) (A) (A) (A)
                 (A) (A) (A) (A) (A) (A) (A) (A) (A) (A) (A) (A)
                 (A) (A) (A) (A) (A) (A) (A) (A) (A) (A) (A) (A)
                 (A) (A) (A) (A) (A) (A) (A) (A) (A) (A) (A) (A)
                 (A) (A) (A) (A) (A) (A) (A) (A) (A) (A) (A) (A)
                 (A) (A) (A) (A) (A) (A) (A) (A) (A) (A) (A) (A)
                 (A) (A) (A) (A) (A) (A) (A) (A) (A) (A) (A) (A)
                 (A) (A) (A) (A) (A) (A) (A) (A) (A) (A) (A) (A)
                 (A) (A) (A) (A) (A) (A) (A) (A) (A) (A) (A) (A)
                 (A) (A) (A) (A) (A) (A) (A) (A) (A) (A) (A) (A)
                 (A) (A) (A) (A) (A) (A) (A) (A) (A) (A) (A) (A)
                 (A) (A) (A) (A) (A) (A) (A) (A) (A) (A) (A) (A)
                 (A) (A) (A) (A) (A) (A) (A) (A) (A) (A) (A) (A)
                 (A) (A) (A) (A) (A) (A) (A) (A) (A) (A) (A) (A)
                 (A) (A) (A) (A) (A) (A) (A) (A) (A) (A) (A) (A)
                 (A) (A) (A) (A) (A) (A) (A) (A) (A) (A) (A) (A)
                 (A) (A) (A) (A) (A) (A) (A) (A) (A) (A) (A) (A)
                 (A) (A) (A) (A) (A) (A) (A) (A) (A) (A) (A) (A)
 The electronic state is 1-A.
 Alpha  occ. eigenvalues --  -66.27491 -19.25921 -19.20731 -19.19664 -10.37088
 Alpha  occ. eigenvalues --  -10.31753 -10.30359 -10.25322 -10.25009 -10.24350
 Alpha  occ. eigenvalues --  -10.24306 -10.23707 -10.23011 -10.22638 -10.22350
 Alpha  occ. eigenvalues --  -10.21099 -10.20882 -10.20739  -5.33226  -3.67114
 Alpha  occ. eigenvalues --   -3.66819  -3.66806  -1.13181  -1.04847  -1.04070
 Alpha  occ. eigenvalues --   -0.85989  -0.83052  -0.80901  -0.77342  -0.74103
 Alpha  occ. eigenvalues --   -0.73351  -0.71753  -0.70393  -0.70227  -0.67032
 Alpha  occ. eigenvalues --   -0.63208  -0.61997  -0.58671  -0.54582  -0.53196
 Alpha  occ. eigenvalues --   -0.52932  -0.51570  -0.51103  -0.47971  -0.46938
 Alpha  occ. eigenvalues --   -0.46585  -0.45059  -0.44971  -0.44415  -0.43749
 Alpha  occ. eigenvalues --   -0.42829  -0.42658  -0.42412  -0.41401  -0.40986
 Alpha  occ. eigenvalues --   -0.40665  -0.40347  -0.39767  -0.39270  -0.39091
 Alpha  occ. eigenvalues --   -0.38351  -0.37890  -0.37348  -0.37148  -0.36443
 Alpha  occ. eigenvalues --   -0.35451  -0.34298  -0.33341  -0.32260  -0.31098
 Alpha  occ. eigenvalues --   -0.30400  -0.29474  -0.28324  -0.27225
 Alpha virt. eigenvalues --    0.00350   0.00854   0.03684   0.05346   0.06287
 Alpha virt. eigenvalues --    0.06546   0.07135   0.07793   0.08270   0.08908
 Alpha virt. eigenvalues --    0.09574   0.09692   0.10625   0.10758   0.11597
 Alpha virt. eigenvalues --    0.12105   0.12643   0.13424   0.13720   0.13957
 Alpha virt. eigenvalues --    0.14311   0.14556   0.14796   0.15243   0.15753
 Alpha virt. eigenvalues --    0.16348   0.16585   0.17023   0.17545   0.17931
 Alpha virt. eigenvalues --    0.18031   0.19488   0.19821   0.20484   0.20811
 Alpha virt. eigenvalues --    0.21435   0.22221   0.23469   0.24468   0.24628
 Alpha virt. eigenvalues --    0.24959   0.26060   0.27114   0.27497   0.28359
 Alpha virt. eigenvalues --    0.30144   0.30304   0.31292   0.32016   0.32211
 Alpha virt. eigenvalues --    0.33114   0.33254   0.34994   0.36149   0.36319
 Alpha virt. eigenvalues --    0.37184   0.37537   0.38591   0.40310   0.40862
 Alpha virt. eigenvalues --    0.41138   0.41842   0.43247   0.43399   0.44118
 Alpha virt. eigenvalues --    0.45026   0.46483   0.46866   0.47188   0.47690
 Alpha virt. eigenvalues --    0.48636   0.50373   0.50897   0.51424   0.52010
 Alpha virt. eigenvalues --    0.52724   0.53006   0.54314   0.55950   0.56309
 Alpha virt. eigenvalues --    0.56783   0.57161   0.57991   0.58705   0.59163
 Alpha virt. eigenvalues --    0.59283   0.60025   0.60326   0.60865   0.61061
 Alpha virt. eigenvalues --    0.61415   0.62004   0.62187   0.62726   0.63389
 Alpha virt. eigenvalues --    0.63492   0.64443   0.64988   0.65604   0.65708
 Alpha virt. eigenvalues --    0.66225   0.66757   0.67012   0.67663   0.68393
 Alpha virt. eigenvalues --    0.68756   0.69079   0.69788   0.70608   0.71134
 Alpha virt. eigenvalues --    0.72456   0.72819   0.72941   0.73968   0.74796
 Alpha virt. eigenvalues --    0.75603   0.76387   0.78328   0.78881   0.81258
 Alpha virt. eigenvalues --    0.82582   0.83316   0.85990   0.86976   0.87900
 Alpha virt. eigenvalues --    0.88441   0.91258   0.91750   0.93159   0.94748
 Alpha virt. eigenvalues --    0.95256   0.95717   0.98143   0.99409   1.00053
 Alpha virt. eigenvalues --    1.01581   1.03231   1.05830   1.06076   1.08603
 Alpha virt. eigenvalues --    1.11937   1.12870   1.16263   1.19138   1.19482
 Alpha virt. eigenvalues --    1.20457   1.23153   1.25294   1.26168   1.27913
 Alpha virt. eigenvalues --    1.28690   1.30282   1.31072   1.31494   1.32437
 Alpha virt. eigenvalues --    1.33836   1.35401   1.37919   1.39217   1.40892
 Alpha virt. eigenvalues --    1.41219   1.44504   1.45703   1.47250   1.49084
 Alpha virt. eigenvalues --    1.50271   1.51699   1.52706   1.53513   1.54355
 Alpha virt. eigenvalues --    1.55255   1.56053   1.56703   1.56820   1.57791
 Alpha virt. eigenvalues --    1.58853   1.59305   1.59700   1.60459   1.60699
 Alpha virt. eigenvalues --    1.60852   1.61938   1.62333   1.63041   1.64241
 Alpha virt. eigenvalues --    1.64656   1.65296   1.66773   1.68450   1.69748
 Alpha virt. eigenvalues --    1.70076   1.71511   1.72409   1.73094   1.74884
 Alpha virt. eigenvalues --    1.75110   1.76484   1.77673   1.79514   1.80656
 Alpha virt. eigenvalues --    1.81303   1.81707   1.83216   1.84692   1.87490
 Alpha virt. eigenvalues --    1.90481   1.90812   1.94184   1.95264   1.97279
 Alpha virt. eigenvalues --    2.01508   2.03861   2.06791   2.10549   2.13260
 Alpha virt. eigenvalues --    2.14462   2.15682   2.20490   2.22496   2.25093
 Alpha virt. eigenvalues --    2.28255   2.29947   2.34599   2.35275   2.40818
 Alpha virt. eigenvalues --    2.41474   2.41976   2.42153   2.42680   2.43002
 Alpha virt. eigenvalues --    2.44277   2.45070   2.45662   2.46906   2.47463
 Alpha virt. eigenvalues --    2.47953   2.48441   2.49669   2.50816   2.52552
 Alpha virt. eigenvalues --    2.53578   2.53773   2.56460   2.59062   2.59331
 Alpha virt. eigenvalues --    2.61641   2.63395   2.65946   2.72234   2.80808
 Alpha virt. eigenvalues --    2.82117   2.86288   2.88004   2.90620   2.91077
 Alpha virt. eigenvalues --    2.92632   2.93140   2.94036   2.96710   2.97256
 Alpha virt. eigenvalues --    2.99436   3.00600   3.01831   3.04275   3.07145
 Alpha virt. eigenvalues --    3.09653   3.10583   3.11477   3.13801   3.15529
 Alpha virt. eigenvalues --    3.15647   3.17084   3.18304   3.19540   3.20688
 Alpha virt. eigenvalues --    3.21249   3.22261   3.23214   3.23568   3.24620
 Alpha virt. eigenvalues --    3.26127   3.27256   3.27704   3.29617   3.34154
 Alpha virt. eigenvalues --    3.34905   3.35817   3.37508   3.39733   3.41102
 Alpha virt. eigenvalues --    3.43856   3.50947   3.57156   3.59231   3.63140
 Alpha virt. eigenvalues --    3.78091   3.88659   3.90365   3.99607   4.02420
 Alpha virt. eigenvalues --    4.08000   4.13676   4.20818   4.22780   4.24932
 Alpha virt. eigenvalues --    4.94181   4.99883   5.01545   5.11648   5.13949
 Alpha virt. eigenvalues --    5.23161   5.52321   5.55687   5.76034   5.85086
 Alpha virt. eigenvalues --   11.52534  11.53534  11.56488  23.41567  23.48630
 Alpha virt. eigenvalues --   23.54309  23.54575  23.56624  23.60805  23.71241
 Alpha virt. eigenvalues --   23.75627  23.77877  23.79562  23.81460  23.87255
 Alpha virt. eigenvalues --   23.87992  24.28993  49.98412  50.06609  50.13227
 Alpha virt. eigenvalues --  141.26847
          Condensed to atoms (all electrons):
               1          2          3          4          5          6
     1  C    5.233840   0.233864  -0.060136  -0.003896  -0.052025   0.394570
     2  C    0.233864   5.636508   0.287286  -0.077190  -0.014719  -0.050973
     3  C   -0.060136   0.287286   5.169519   0.221375  -0.017384  -0.016595
     4  C   -0.003896  -0.077190   0.221375   5.905038   0.234363   0.002827
     5  C   -0.052025  -0.014719  -0.017384   0.234363   4.386680  -0.002231
     6  H    0.394570  -0.050973  -0.016595   0.002827  -0.002231   0.475878
     7  H   -0.027480   0.386437  -0.042564   0.008858   0.000255  -0.000752
     8  H    0.002267  -0.009010  -0.030661   0.369842  -0.021396  -0.000332
     9  H   -0.000777   0.007046  -0.028220   0.357520  -0.022870   0.000232
    10  O    0.212531  -0.040643   0.004749  -0.106205   0.352240  -0.031600
    11  O    0.002348  -0.000434   0.004617  -0.098185   0.668969  -0.000022
    12  C    0.345556  -0.054130   0.009014  -0.001564   0.003350  -0.047967
    13  C   -0.076007   0.003125  -0.000549   0.000111  -0.000130   0.001469
    14  C   -0.076081   0.284286  -0.073167  -0.009738   0.001227   0.007491
    15  O    0.003566  -0.060181   0.219250  -0.023249   0.001849  -0.000064
    16  Si   0.000203   0.001188  -0.045523  -0.010276   0.001143  -0.000112
    17  C    0.000008  -0.000254   0.000097  -0.000664   0.000050   0.000001
    18  C    0.000000   0.000016  -0.000030   0.000871   0.000043   0.000001
    19  C   -0.000002   0.000023   0.002157  -0.000106   0.000001   0.000000
    20  H    0.000000   0.000001  -0.000051   0.000169   0.000000   0.000000
    21  H   -0.000001   0.000032   0.000076   0.001117   0.000028   0.000001
    22  H   -0.000003   0.000110   0.000437  -0.000064  -0.000028   0.000000
    23  H    0.000000   0.000002  -0.000065  -0.000002   0.000000   0.000000
    24  H   -0.000001   0.000071  -0.000144  -0.000043   0.000000   0.000000
    25  H    0.000000  -0.000013  -0.000061  -0.000022   0.000000   0.000000
    26  H    0.000000   0.000006  -0.000057   0.000051   0.000000   0.000000
    27  H    0.000003  -0.000080   0.000058   0.000139   0.000002   0.000000
    28  H    0.000007  -0.000080   0.000280   0.001084  -0.000022  -0.000002
    29  H    0.006436  -0.037235  -0.006062  -0.000335  -0.000125  -0.000155
    30  H   -0.005289  -0.041573  -0.010200   0.005939  -0.000712   0.000572
    31  H   -0.006101  -0.032948   0.006981  -0.000435  -0.000069  -0.000326
    32  H   -0.050241   0.009690  -0.000205   0.000318  -0.000120  -0.007304
    33  H   -0.039881  -0.013901  -0.000487   0.000158  -0.000038   0.007420
    34  H    0.007641  -0.000180   0.000013  -0.000002   0.000004  -0.000241
    35  H   -0.002291  -0.002538  -0.000204   0.000003  -0.000006   0.005382
    36  H   -0.009098   0.004693   0.000154  -0.000009   0.000002  -0.000551
    37  C    0.003595  -0.095562   0.334537  -0.104387   0.002500   0.004942
    38  C   -0.003411  -0.015561  -0.057146   0.009046  -0.000293  -0.000402
    39  C   -0.000716   0.000238  -0.002793  -0.000076  -0.000026   0.003389
    40  H   -0.000440   0.008689  -0.045587  -0.005251  -0.000022   0.000779
    41  H   -0.000494  -0.002720  -0.025646  -0.006062   0.002617  -0.003619
    42  H    0.000243  -0.001590  -0.001574   0.000100  -0.000015  -0.000006
    43  H    0.000038   0.000023  -0.000345   0.000015   0.000000   0.000026
    44  H    0.000089  -0.000175   0.000265  -0.000043  -0.000010   0.000881
               7          8          9         10         11         12
     1  C   -0.027480   0.002267  -0.000777   0.212531   0.002348   0.345556
     2  C    0.386437  -0.009010   0.007046  -0.040643  -0.000434  -0.054130
     3  C   -0.042564  -0.030661  -0.028220   0.004749   0.004617   0.009014
     4  C    0.008858   0.369842   0.357520  -0.106205  -0.098185  -0.001564
     5  C    0.000255  -0.021396  -0.022870   0.352240   0.668969   0.003350
     6  H   -0.000752  -0.000332   0.000232  -0.031600  -0.000022  -0.047967
     7  H    0.445291  -0.000221  -0.000046   0.003122   0.000020  -0.007998
     8  H   -0.000221   0.399266  -0.015825   0.000210   0.002019   0.000084
     9  H   -0.000046  -0.015825   0.417842   0.004534   0.011258   0.000024
    10  O    0.003122   0.000210   0.004534   8.038034  -0.076875  -0.051604
    11  O    0.000020   0.002019   0.011258  -0.076875   7.869142  -0.000171
    12  C   -0.007998   0.000084   0.000024  -0.051604  -0.000171   5.309482
    13  C    0.002016  -0.000016  -0.000001   0.004067   0.000001   0.284677
    14  C   -0.033033   0.000347   0.000048  -0.000141  -0.000025  -0.009071
    15  O    0.003237  -0.002140  -0.001249  -0.000021  -0.000018  -0.000056
    16  Si  -0.000364  -0.005082  -0.001250  -0.000325  -0.000785   0.000027
    17  C    0.000010   0.000098   0.002091   0.000000   0.000004   0.000000
    18  C    0.000032  -0.001724  -0.000176   0.000000   0.000005   0.000000
    19  C   -0.000033  -0.000087  -0.000004   0.000000   0.000000   0.000000
    20  H   -0.000001   0.000355  -0.000002   0.000000   0.000000   0.000000
    21  H    0.000005   0.000740   0.000300   0.000003   0.000005   0.000000
    22  H    0.000001  -0.000190   0.000033   0.000000   0.000001   0.000000
    23  H    0.000000   0.000002  -0.000002   0.000000   0.000000   0.000000
    24  H   -0.000008  -0.000017  -0.000006   0.000000   0.000000   0.000000
    25  H   -0.000027  -0.000008  -0.000006   0.000000   0.000000   0.000000
    26  H    0.000000   0.000003   0.000026   0.000000   0.000000   0.000000
    27  H   -0.000004   0.000016  -0.000195   0.000000   0.000000   0.000000
    28  H    0.000000  -0.000118   0.002740  -0.000001  -0.000034   0.000000
    29  H   -0.001817   0.000423  -0.000143  -0.000135   0.000005   0.000221
    30  H    0.006360  -0.001044   0.000407   0.007452  -0.000383  -0.004217
    31  H   -0.006888   0.000229   0.000016  -0.000041   0.000000   0.001479
    32  H   -0.000361   0.000011  -0.000012   0.004558  -0.000029   0.403605
    33  H    0.000195  -0.000090   0.000004   0.003218  -0.000042   0.389907
    34  H    0.000185   0.000000   0.000000  -0.000125   0.000000  -0.033361
    35  H    0.000288  -0.000001   0.000000  -0.000025   0.000000  -0.042017
    36  H   -0.000333   0.000000   0.000000  -0.000060   0.000000  -0.032710
    37  C   -0.011292   0.005705  -0.005957  -0.003648  -0.000048  -0.000475
    38  C    0.010119  -0.000180   0.000119   0.000378   0.000000  -0.000085
    39  C    0.002334   0.000000   0.000001  -0.000024   0.000000  -0.000079
    40  H    0.000252  -0.000329   0.003340  -0.000152  -0.000013   0.000000
    41  H   -0.000204   0.000285  -0.000393   0.001620  -0.000118   0.000729
    42  H    0.000226   0.000029  -0.000009   0.000003   0.000000   0.000020
    43  H    0.000131  -0.000001   0.000001   0.000000   0.000000  -0.000007
    44  H   -0.000051   0.000001   0.000003  -0.000027   0.000000   0.000027
              13         14         15         16         17         18
     1  C   -0.076007  -0.076081   0.003566   0.000203   0.000008   0.000000
     2  C    0.003125   0.284286  -0.060181   0.001188  -0.000254   0.000016
     3  C   -0.000549  -0.073167   0.219250  -0.045523   0.000097  -0.000030
     4  C    0.000111  -0.009738  -0.023249  -0.010276  -0.000664   0.000871
     5  C   -0.000130   0.001227   0.001849   0.001143   0.000050   0.000043
     6  H    0.001469   0.007491  -0.000064  -0.000112   0.000001   0.000001
     7  H    0.002016  -0.033033   0.003237  -0.000364   0.000010   0.000032
     8  H   -0.000016   0.000347  -0.002140  -0.005082   0.000098  -0.001724
     9  H   -0.000001   0.000048  -0.001249  -0.001250   0.002091  -0.000176
    10  O    0.004067  -0.000141  -0.000021  -0.000325   0.000000   0.000000
    11  O    0.000001  -0.000025  -0.000018  -0.000785   0.000004   0.000005
    12  C    0.284677  -0.009071  -0.000056   0.000027   0.000000   0.000000
    13  C    5.373224  -0.002451  -0.000001  -0.000006   0.000000   0.000000
    14  C   -0.002451   5.427928  -0.005835  -0.000151  -0.000003  -0.000011
    15  O   -0.000001  -0.005835   8.292576   0.345558  -0.023116  -0.023633
    16  Si  -0.000006  -0.000151   0.345558  11.504046   0.312978   0.315283
    17  C    0.000000  -0.000003  -0.023116   0.312978   5.786713  -0.054664
    18  C    0.000000  -0.000011  -0.023633   0.315283  -0.054664   5.773920
    19  C    0.000000  -0.000059  -0.029497   0.337642  -0.043827  -0.046713
    20  H    0.000000   0.000005   0.000931  -0.011270   0.000621   0.361901
    21  H    0.000000   0.000016  -0.001293  -0.027272  -0.000862   0.371925
    22  H    0.000000   0.000322  -0.002438  -0.025913   0.001976   0.370666
    23  H    0.000000  -0.000002   0.001191  -0.015107   0.000112   0.000815
    24  H    0.000000   0.000016  -0.001480  -0.023748   0.002112  -0.000482
    25  H    0.000000   0.000002  -0.001765  -0.024888  -0.000738   0.002126
    26  H    0.000000   0.000000   0.000830  -0.010754   0.362919   0.000315
    27  H    0.000000   0.000002  -0.002016  -0.026113   0.370943   0.002171
    28  H    0.000000   0.000002  -0.001316  -0.026552   0.367697  -0.000909
    29  H   -0.000082   0.385210   0.007705   0.001904   0.000057   0.000362
    30  H    0.000675   0.387890   0.000257  -0.000708   0.000004   0.000147
    31  H   -0.000224   0.389255   0.000186   0.000179   0.000000  -0.000003
    32  H   -0.036166  -0.000478   0.000004   0.000002   0.000000   0.000000
    33  H   -0.035278   0.006328  -0.000002  -0.000004   0.000000   0.000000
    34  H    0.389340  -0.000051   0.000000   0.000000   0.000000   0.000000
    35  H    0.384249   0.000487   0.000000   0.000000   0.000000   0.000000
    36  H    0.382768  -0.000034  -0.000013  -0.000006   0.000000   0.000000
    37  C    0.000040   0.008356  -0.066397  -0.011981  -0.000691  -0.000352
    38  C   -0.000042  -0.000257   0.002440  -0.000644   0.000440   0.000020
    39  C   -0.000031  -0.000013   0.000705   0.000421   0.000000   0.000000
    40  H    0.000000  -0.000158  -0.003653  -0.003067  -0.001926  -0.000128
    41  H   -0.000051  -0.000397   0.004139   0.001837  -0.000071   0.000016
    42  H    0.000000  -0.000107   0.006641   0.001923  -0.000034   0.000029
    43  H    0.000015  -0.000002   0.000013   0.000011   0.000000   0.000000
    44  H    0.000037   0.000003  -0.000007  -0.000005  -0.000001   0.000000
              19         20         21         22         23         24
     1  C   -0.000002   0.000000  -0.000001  -0.000003   0.000000  -0.000001
     2  C    0.000023   0.000001   0.000032   0.000110   0.000002   0.000071
     3  C    0.002157  -0.000051   0.000076   0.000437  -0.000065  -0.000144
     4  C   -0.000106   0.000169   0.001117  -0.000064  -0.000002  -0.000043
     5  C    0.000001   0.000000   0.000028  -0.000028   0.000000   0.000000
     6  H    0.000000   0.000000   0.000001   0.000000   0.000000   0.000000
     7  H   -0.000033  -0.000001   0.000005   0.000001   0.000000  -0.000008
     8  H   -0.000087   0.000355   0.000740  -0.000190   0.000002  -0.000017
     9  H   -0.000004  -0.000002   0.000300   0.000033  -0.000002  -0.000006
    10  O    0.000000   0.000000   0.000003   0.000000   0.000000   0.000000
    11  O    0.000000   0.000000   0.000005   0.000001   0.000000   0.000000
    12  C    0.000000   0.000000   0.000000   0.000000   0.000000   0.000000
    13  C    0.000000   0.000000   0.000000   0.000000   0.000000   0.000000
    14  C   -0.000059   0.000005   0.000016   0.000322  -0.000002   0.000016
    15  O   -0.029497   0.000931  -0.001293  -0.002438   0.001191  -0.001480
    16  Si   0.337642  -0.011270  -0.027272  -0.025913  -0.015107  -0.023748
    17  C   -0.043827   0.000621  -0.000862   0.001976   0.000112   0.002112
    18  C   -0.046713   0.361901   0.371925   0.370666   0.000815  -0.000482
    19  C    5.720177  -0.000447   0.002250  -0.000326   0.360953   0.370027
    20  H   -0.000447   0.451176  -0.022535  -0.021023   0.000728  -0.000099
    21  H    0.002250  -0.022535   0.451340  -0.019712  -0.000058  -0.000075
    22  H   -0.000326  -0.021023  -0.019712   0.449499  -0.000002   0.001070
    23  H    0.360953   0.000728  -0.000058  -0.000002   0.460796  -0.021559
    24  H    0.370027  -0.000099  -0.000075   0.001070  -0.021559   0.452740
    25  H    0.369708  -0.000044  -0.000092  -0.000081  -0.021575  -0.019400
    26  H   -0.000516   0.000391   0.000043  -0.000043   0.000586  -0.000080
    27  H   -0.000341  -0.000054  -0.000029  -0.000092  -0.000083  -0.000072
    28  H    0.002369  -0.000012   0.001027  -0.000058  -0.000058  -0.000080
    29  H    0.000064   0.000012  -0.000041   0.000916  -0.000008   0.000288
    30  H    0.000002  -0.000004   0.000020   0.000073   0.000000  -0.000007
    31  H   -0.000001   0.000000  -0.000003  -0.000009   0.000000   0.000000
    32  H    0.000000   0.000000   0.000000   0.000000   0.000000   0.000000
    33  H    0.000000   0.000000   0.000000   0.000000   0.000000   0.000000
    34  H    0.000000   0.000000   0.000000   0.000000   0.000000   0.000000
    35  H    0.000000   0.000000   0.000000   0.000000   0.000000   0.000000
    36  H    0.000000   0.000000   0.000000   0.000000   0.000000   0.000000
    37  C   -0.000156   0.000009  -0.000037  -0.000055   0.000004  -0.000022
    38  C   -0.000040  -0.000001   0.000002   0.000003  -0.000003  -0.000004
    39  C    0.000000   0.000000   0.000000   0.000000   0.000000   0.000000
    40  H   -0.000065   0.000004  -0.000030  -0.000002   0.000003  -0.000003
    41  H    0.000001   0.000000   0.000005   0.000004   0.000000   0.000001
    42  H    0.000189   0.000000   0.000001   0.000001  -0.000003  -0.000019
    43  H    0.000000   0.000000   0.000000   0.000000   0.000000   0.000000
    44  H    0.000000   0.000000   0.000000   0.000000   0.000000   0.000000
              25         26         27         28         29         30
     1  C    0.000000   0.000000   0.000003   0.000007   0.006436  -0.005289
     2  C   -0.000013   0.000006  -0.000080  -0.000080  -0.037235  -0.041573
     3  C   -0.000061  -0.000057   0.000058   0.000280  -0.006062  -0.010200
     4  C   -0.000022   0.000051   0.000139   0.001084  -0.000335   0.005939
     5  C    0.000000   0.000000   0.000002  -0.000022  -0.000125  -0.000712
     6  H    0.000000   0.000000   0.000000  -0.000002  -0.000155   0.000572
     7  H   -0.000027   0.000000  -0.000004   0.000000  -0.001817   0.006360
     8  H   -0.000008   0.000003   0.000016  -0.000118   0.000423  -0.001044
     9  H   -0.000006   0.000026  -0.000195   0.002740  -0.000143   0.000407
    10  O    0.000000   0.000000   0.000000  -0.000001  -0.000135   0.007452
    11  O    0.000000   0.000000   0.000000  -0.000034   0.000005  -0.000383
    12  C    0.000000   0.000000   0.000000   0.000000   0.000221  -0.004217
    13  C    0.000000   0.000000   0.000000   0.000000  -0.000082   0.000675
    14  C    0.000002   0.000000   0.000002   0.000002   0.385210   0.387890
    15  O   -0.001765   0.000830  -0.002016  -0.001316   0.007705   0.000257
    16  Si  -0.024888  -0.010754  -0.026113  -0.026552   0.001904  -0.000708
    17  C   -0.000738   0.362919   0.370943   0.367697   0.000057   0.000004
    18  C    0.002126   0.000315   0.002171  -0.000909   0.000362   0.000147
    19  C    0.369708  -0.000516  -0.000341   0.002369   0.000064   0.000002
    20  H   -0.000044   0.000391  -0.000054  -0.000012   0.000012  -0.000004
    21  H   -0.000092   0.000043  -0.000029   0.001027  -0.000041   0.000020
    22  H   -0.000081  -0.000043  -0.000092  -0.000058   0.000916   0.000073
    23  H   -0.021575   0.000586  -0.000083  -0.000058  -0.000008   0.000000
    24  H   -0.019400  -0.000080  -0.000072  -0.000080   0.000288  -0.000007
    25  H    0.453198  -0.000068   0.001223  -0.000063  -0.000027   0.000000
    26  H   -0.000068   0.444195  -0.021479  -0.020757   0.000000   0.000000
    27  H    0.001223  -0.021479   0.449706  -0.020245   0.000001   0.000000
    28  H   -0.000063  -0.020757  -0.020245   0.447719   0.000005  -0.000002
    29  H   -0.000027   0.000000   0.000001   0.000005   0.425241  -0.023727
    30  H    0.000000   0.000000   0.000000  -0.000002  -0.023727   0.473698
    31  H    0.000001   0.000000   0.000000   0.000000  -0.023925  -0.027451
    32  H    0.000000   0.000000   0.000000   0.000000   0.000022  -0.000283
    33  H    0.000000   0.000000   0.000000   0.000000   0.000198   0.001509
    34  H    0.000000   0.000000   0.000000   0.000000  -0.000004   0.000004
    35  H    0.000000   0.000000   0.000000   0.000000   0.000008  -0.000007
    36  H    0.000000   0.000000   0.000000   0.000000  -0.000041  -0.000126
    37  C    0.000035   0.000221   0.000198  -0.000020   0.000318  -0.000075
    38  C    0.000062  -0.000029   0.000533   0.000080   0.000014  -0.000048
    39  C   -0.000007  -0.000001   0.000056  -0.000004   0.000003  -0.000003
    40  H   -0.000015   0.000512  -0.000292   0.000047  -0.000042   0.000013
    41  H    0.000000  -0.000006  -0.000051  -0.000084  -0.000027  -0.000035
    42  H    0.000636   0.000001   0.000103  -0.000003   0.000017  -0.000007
    43  H   -0.000002   0.000000  -0.000001   0.000000   0.000000   0.000000
    44  H    0.000000   0.000000   0.000001   0.000000  -0.000001   0.000000
              31         32         33         34         35         36
     1  C   -0.006101  -0.050241  -0.039881   0.007641  -0.002291  -0.009098
     2  C   -0.032948   0.009690  -0.013901  -0.000180  -0.002538   0.004693
     3  C    0.006981  -0.000205  -0.000487   0.000013  -0.000204   0.000154
     4  C   -0.000435   0.000318   0.000158  -0.000002   0.000003  -0.000009
     5  C   -0.000069  -0.000120  -0.000038   0.000004  -0.000006   0.000002
     6  H   -0.000326  -0.007304   0.007420  -0.000241   0.005382  -0.000551
     7  H   -0.006888  -0.000361   0.000195   0.000185   0.000288  -0.000333
     8  H    0.000229   0.000011  -0.000090   0.000000  -0.000001   0.000000
     9  H    0.000016  -0.000012   0.000004   0.000000   0.000000   0.000000
    10  O   -0.000041   0.004558   0.003218  -0.000125  -0.000025  -0.000060
    11  O    0.000000  -0.000029  -0.000042   0.000000   0.000000   0.000000
    12  C    0.001479   0.403605   0.389907  -0.033361  -0.042017  -0.032710
    13  C   -0.000224  -0.036166  -0.035278   0.389340   0.384249   0.382768
    14  C    0.389255  -0.000478   0.006328  -0.000051   0.000487  -0.000034
    15  O    0.000186   0.000004  -0.000002   0.000000   0.000000  -0.000013
    16  Si   0.000179   0.000002  -0.000004   0.000000   0.000000  -0.000006
    17  C    0.000000   0.000000   0.000000   0.000000   0.000000   0.000000
    18  C   -0.000003   0.000000   0.000000   0.000000   0.000000   0.000000
    19  C   -0.000001   0.000000   0.000000   0.000000   0.000000   0.000000
    20  H    0.000000   0.000000   0.000000   0.000000   0.000000   0.000000
    21  H   -0.000003   0.000000   0.000000   0.000000   0.000000   0.000000
    22  H   -0.000009   0.000000   0.000000   0.000000   0.000000   0.000000
    23  H    0.000000   0.000000   0.000000   0.000000   0.000000   0.000000
    24  H    0.000000   0.000000   0.000000   0.000000   0.000000   0.000000
    25  H    0.000001   0.000000   0.000000   0.000000   0.000000   0.000000
    26  H    0.000000   0.000000   0.000000   0.000000   0.000000   0.000000
    27  H    0.000000   0.000000   0.000000   0.000000   0.000000   0.000000
    28  H    0.000000   0.000000   0.000000   0.000000   0.000000   0.000000
    29  H   -0.023925   0.000022   0.000198  -0.000004   0.000008  -0.000041
    30  H   -0.027451  -0.000283   0.001509   0.000004  -0.000007  -0.000126
    31  H    0.455183   0.000244  -0.001951   0.000009  -0.000085   0.003378
    32  H    0.000244   0.470198  -0.030797  -0.005911  -0.004218   0.005997
    33  H   -0.001951  -0.030797   0.475529  -0.003858   0.006606  -0.005632
    34  H    0.000009  -0.005911  -0.003858   0.461385  -0.025658  -0.026506
    35  H   -0.000085  -0.004218   0.006606  -0.025658   0.475737  -0.027640
    36  H    0.003378   0.005997  -0.005632  -0.026506  -0.027640   0.472659
    37  C   -0.000121   0.000011   0.000001  -0.000001  -0.000059   0.000015
    38  C   -0.000033  -0.000009  -0.000022   0.000002   0.000415   0.000002
    39  C    0.000001  -0.000001  -0.000003   0.000000   0.000979   0.000025
    40  H    0.000013  -0.000003   0.000003   0.000000   0.000006   0.000001
    41  H   -0.000006  -0.000006  -0.000039   0.000003  -0.000072   0.000008
    42  H    0.000004   0.000000  -0.000001   0.000000  -0.000001   0.000000
    43  H    0.000000   0.000000   0.000000   0.000000   0.000024   0.000003
    44  H    0.000001  -0.000003   0.000001  -0.000002   0.000049   0.000002
              37         38         39         40         41         42
     1  C    0.003595  -0.003411  -0.000716  -0.000440  -0.000494   0.000243
     2  C   -0.095562  -0.015561   0.000238   0.008689  -0.002720  -0.001590
     3  C    0.334537  -0.057146  -0.002793  -0.045587  -0.025646  -0.001574
     4  C   -0.104387   0.009046  -0.000076  -0.005251  -0.006062   0.000100
     5  C    0.002500  -0.000293  -0.000026  -0.000022   0.002617  -0.000015
     6  H    0.004942  -0.000402   0.003389   0.000779  -0.003619  -0.000006
     7  H   -0.011292   0.010119   0.002334   0.000252  -0.000204   0.000226
     8  H    0.005705  -0.000180   0.000000  -0.000329   0.000285   0.000029
     9  H   -0.005957   0.000119   0.000001   0.003340  -0.000393  -0.000009
    10  O   -0.003648   0.000378  -0.000024  -0.000152   0.001620   0.000003
    11  O   -0.000048   0.000000   0.000000  -0.000013  -0.000118   0.000000
    12  C   -0.000475  -0.000085  -0.000079   0.000000   0.000729   0.000020
    13  C    0.000040  -0.000042  -0.000031   0.000000  -0.000051   0.000000
    14  C    0.008356  -0.000257  -0.000013  -0.000158  -0.000397  -0.000107
    15  O   -0.066397   0.002440   0.000705  -0.003653   0.004139   0.006641
    16  Si  -0.011981  -0.000644   0.000421  -0.003067   0.001837   0.001923
    17  C   -0.000691   0.000440   0.000000  -0.001926  -0.000071  -0.000034
    18  C   -0.000352   0.000020   0.000000  -0.000128   0.000016   0.000029
    19  C   -0.000156  -0.000040   0.000000  -0.000065   0.000001   0.000189
    20  H    0.000009  -0.000001   0.000000   0.000004   0.000000   0.000000
    21  H   -0.000037   0.000002   0.000000  -0.000030   0.000005   0.000001
    22  H   -0.000055   0.000003   0.000000  -0.000002   0.000004   0.000001
    23  H    0.000004  -0.000003   0.000000   0.000003   0.000000  -0.000003
    24  H   -0.000022  -0.000004   0.000000  -0.000003   0.000001  -0.000019
    25  H    0.000035   0.000062  -0.000007  -0.000015   0.000000   0.000636
    26  H    0.000221  -0.000029  -0.000001   0.000512  -0.000006   0.000001
    27  H    0.000198   0.000533   0.000056  -0.000292  -0.000051   0.000103
    28  H   -0.000020   0.000080  -0.000004   0.000047  -0.000084  -0.000003
    29  H    0.000318   0.000014   0.000003  -0.000042  -0.000027   0.000017
    30  H   -0.000075  -0.000048  -0.000003   0.000013  -0.000035  -0.000007
    31  H   -0.000121  -0.000033   0.000001   0.000013  -0.000006   0.000004
    32  H    0.000011  -0.000009  -0.000001  -0.000003  -0.000006   0.000000
    33  H    0.000001  -0.000022  -0.000003   0.000003  -0.000039  -0.000001
    34  H   -0.000001   0.000002   0.000000   0.000000   0.000003   0.000000
    35  H   -0.000059   0.000415   0.000979   0.000006  -0.000072  -0.000001
    36  H    0.000015   0.000002   0.000025   0.000001   0.000008   0.000000
    37  C    5.450320   0.319841  -0.056790   0.395294   0.383029  -0.048577
    38  C    0.319841   5.066925   0.616793  -0.037926  -0.045758   0.397209
    39  C   -0.056790   0.616793   5.147914  -0.001921   0.002026  -0.039418
    40  H    0.395294  -0.037926  -0.001921   0.448690  -0.025700  -0.001224
    41  H    0.383029  -0.045758   0.002026  -0.025700   0.459313   0.004929
    42  H   -0.048577   0.397209  -0.039418  -0.001224   0.004929   0.456778
    43  H    0.006291  -0.038842   0.393036  -0.000314   0.000103  -0.007748
    44  H   -0.008951  -0.040318   0.387287   0.000179   0.004387   0.005809
              43         44
     1  C    0.000038   0.000089
     2  C    0.000023  -0.000175
     3  C   -0.000345   0.000265
     4  C    0.000015  -0.000043
     5  C    0.000000  -0.000010
     6  H    0.000026   0.000881
     7  H    0.000131  -0.000051
     8  H   -0.000001   0.000001
     9  H    0.000001   0.000003
    10  O    0.000000  -0.000027
    11  O    0.000000   0.000000
    12  C   -0.000007   0.000027
    13  C    0.000015   0.000037
    14  C   -0.000002   0.000003
    15  O    0.000013  -0.000007
    16  Si   0.000011  -0.000005
    17  C    0.000000  -0.000001
    18  C    0.000000   0.000000
    19  C    0.000000   0.000000
    20  H    0.000000   0.000000
    21  H    0.000000   0.000000
    22  H    0.000000   0.000000
    23  H    0.000000   0.000000
    24  H    0.000000   0.000000
    25  H   -0.000002   0.000000
    26  H    0.000000   0.000000
    27  H   -0.000001   0.000001
    28  H    0.000000   0.000000
    29  H    0.000000  -0.000001
    30  H    0.000000   0.000000
    31  H    0.000000   0.000001
    32  H    0.000000  -0.000003
    33  H    0.000000   0.000001
    34  H    0.000000  -0.000002
    35  H    0.000024   0.000049
    36  H    0.000003   0.000002
    37  C    0.006291  -0.008951
    38  C   -0.038842  -0.040318
    39  C    0.393036   0.387287
    40  H   -0.000314   0.000179
    41  H    0.000103   0.004387
    42  H   -0.007748   0.005809
    43  H    0.453103  -0.033683
    44  H   -0.033683   0.462133
 Mulliken charges:
               1
     1  C   -0.032434
     2  C   -0.311643
     3  C    0.204591
     4  C   -0.671142
     5  C    0.476919
     6  H    0.257395
     7  H    0.264100
     8  H    0.306538
     9  H    0.269559
    10  O   -0.325068
    11  O   -0.381210
    12  C   -0.462690
    13  C   -0.674779
    14  C   -0.687955
    15  O   -0.641637
    16  Si   1.447557
    17  C   -1.082081
    18  C   -1.071837
    19  C   -1.043344
    20  H    0.239240
    21  H    0.243106
    22  H    0.244924
    23  H    0.233335
    24  H    0.241026
    25  H    0.241911
    26  H    0.243692
    27  H    0.245994
    28  H    0.247362
    29  H    0.264505
    30  H    0.230883
    31  H    0.243461
    32  H    0.241488
    33  H    0.240949
    34  H    0.237314
    35  H    0.230589
    36  H    0.233054
    37  C   -0.499606
    38  C   -0.183384
    39  C   -0.453305
    40  H    0.270435
    41  H    0.246508
    42  H    0.225443
    43  H    0.228114
    44  H    0.222120
 Sum of Mulliken charges =   0.00000
 Mulliken charges with hydrogens summed into heavy atoms:
               1
     1  C    0.224961
     2  C   -0.047543
     3  C    0.204591
     4  C   -0.095044
     5  C    0.476919
    10  O   -0.325068
    11  O   -0.381210
    12  C    0.019747
    13  C    0.026179
    14  C    0.050894
    15  O   -0.641637
    16  Si   1.447557
    17  C   -0.345033
    18  C   -0.344567
    19  C   -0.327072
    37  C    0.017337
    38  C    0.042059
    39  C   -0.003070
 Electronic spatial extent (au):  <R**2>=           5511.0651
 Charge=              0.0000 electrons
 Dipole moment (field-independent basis, Debye):
    X=             -1.9241    Y=              3.8714    Z=              2.0740  Tot=              4.7949
 Quadrupole moment (field-independent basis, Debye-Ang):
   XX=           -112.6003   YY=           -132.8664   ZZ=           -121.6921
   XY=             11.7436   XZ=              5.4565   YZ=             -9.0130
 Traceless Quadrupole moment (field-independent basis, Debye-Ang):
   XX=              9.7859   YY=            -10.4801   ZZ=              0.6942
   XY=             11.7436   XZ=              5.4565   YZ=             -9.0130
 Octapole moment (field-independent basis, Debye-Ang**2):
  XXX=             -5.1697  YYY=             45.7390  ZZZ=              9.1179  XYY=            -19.7000
  XXY=             14.3614  XXZ=             10.5943  XZZ=              6.1184  YZZ=              6.6117
  YYZ=             27.1548  XYZ=            -17.8724
 Hexadecapole moment (field-independent basis, Debye-Ang**3):
 XXXX=          -4222.9077 YYYY=          -1900.9605 ZZZZ=          -1261.1567 XXXY=             40.7756
 XXXZ=             21.4859 YYYX=             58.8847 YYYZ=            -77.9935 ZZZX=             -9.5131
 ZZZY=              9.1376 XXYY=          -1102.2255 XXZZ=           -950.6209 YYZZ=           -577.9508
 XXYZ=            -29.6912 YYXZ=             39.0973 ZZXY=             29.7233
 N-N= 1.626529347952D+03 E-N=-5.748150699883D+03  KE= 1.060531310356D+03
 1\1\GINC-CPU-E-611\SP\RmPW1PW91\6-311G(d)\C14H26O3Si1\KE291\06-Feb-201
 9\0\\# mPW1PW91/6-311g(d) geom=checkpoint nmr=giao scrf=(solvent=chlor
 oform)\\P_ng_3ginp002\\0,1\C,0,-0.1513051729,0.5270624139,-0.186214902
 8\C,0,-1.4831339071,0.0918023152,0.4415359991\C,0,-1.7279825802,0.9191
 205637,1.7339650767\C,0,-1.7894251145,2.4029283877,1.3375163129\C,0,-0
 .7015071828,2.8768075707,0.3861528845\H,0,0.6613208096,0.2927669376,0.
 5099537022\H,0,-1.3527509366,-0.9494706877,0.756994714\H,0,-2.73634432
 25,2.5980856716,0.822623354\H,0,-1.7622134318,3.0628038672,2.208870974
 5\O,0,-0.0853606581,1.9746538319,-0.405860225\O,0,-0.4241651243,4.0515
 951211,0.2608726571\C,0,0.1975537076,-0.0985283149,-1.5368617104\C,0,0
 .3827230255,-1.6181035023,-1.4718448652\C,0,-2.6641236087,0.1563547504
 ,-0.5402132972\O,0,-2.9591099329,0.468499632,2.2944275582\Si,0,-4.1402
 981244,1.126455876,3.2984275346\C,0,-3.4123166534,1.9796530359,4.81744
 028\C,0,-5.231553559,2.3448491342,2.3555058398\C,0,-5.1586069917,-0.36
 59190527,3.8206741609\H,0,-6.0948495274,2.625255313,2.9705276416\H,0,-
 4.7047070434,3.2677532039,2.0927902438\H,0,-5.6152398721,1.9001645886,
 1.4310508622\H,0,-5.9937025921,-0.0616407002,4.4614408948\H,0,-5.57626
 2053,-0.883961422,2.9510936022\H,0,-4.5515391634,-1.0853834246,4.37989
 59689\H,0,-4.2267303218,2.3239490881,5.4658837918\H,0,-2.7880325437,1.
 2989854525,5.4055752636\H,0,-2.8094006314,2.8574060559,4.5617620356\H,
 0,-3.6003757608,-0.0267808649,-0.0110568662\H,0,-2.736067036,1.1273883
 128,-1.0405523307\H,0,-2.564454691,-0.6042062544,-1.3188870289\H,0,1.1
 27325722,0.3709343658,-1.8764502518\H,0,-0.568961897,0.1647467341,-2.2
 7298065\H,0,0.7303568911,-2.000593928,-2.4357325724\H,0,1.1248199995,-
 1.89672295,-0.7156552583\H,0,-0.5500664007,-2.1364567348,-1.2288519529
 \C,0,-0.6096050828,0.7083612488,2.7944087012\C,0,-0.3814644614,-0.7268
 546638,3.1803018274\C,0,0.8085874058,-1.3294124396,3.2138519033\H,0,-0
 .918975902,1.2785924088,3.6794010739\H,0,0.3310601612,1.1598956491,2.4
 5909555\H,0,-1.2722983898,-1.287845126,3.4587625308\H,0,0.9135048165,-
 2.3664533382,3.5190770593\H,0,1.724376132,-0.8054681264,2.9485989132\\
 Version=ES64L-G09RevD.01\State=1-A\HF=-1064.3844553\RMSD=9.157e-09\Dip
 ole=-0.7377411,-1.5860372,0.7064152\Quadrupole=4.5641525,-8.0392203,3.
 4750678,-8.9700486,0.257812,8.0778417\PG=C01 [X(C14H26O3Si1)]\\@


 LAW OF COMPENSATION:
      NO CALCULATION IS EVER A COMPLETE FAILURE; IT 
      CAN ALWAYS SERVE AS A BAD EXAMPLE.

                                           -- ANON
 Job cpu time:       0 days  0 hours 20 minutes  2.3 seconds.
 File lengths (MBytes):  RWF=    237 Int=      0 D2E=      0 Chk=     19 Scr=      1
 Normal termination of Gaussian 09 at Wed Feb  6 11:28:28 2019.
