 Entering Gaussian System, Link 0=/usr/local/Cluster-Apps/gaussian/g09/g09
 Initial command:
 /usr/local/Cluster-Apps/gaussian/g09/l1.exe "/home/ke291/rds/hpc-work/06Feb0927IP1/Gau-318057.inp" -scrdir="/home/ke291/rds/hpc-work/06Feb0927IP1/"
 Entering Link 1 = /usr/local/Cluster-Apps/gaussian/g09/l1.exe PID=    318062.
  
 Copyright (c) 1988,1990,1992,1993,1995,1998,2003,2009,2013,
            Gaussian, Inc.  All Rights Reserved.
  
 This is part of the Gaussian(R) 09 program.  It is based on
 the Gaussian(R) 03 system (copyright 2003, Gaussian, Inc.),
 the Gaussian(R) 98 system (copyright 1998, Gaussian, Inc.),
 the Gaussian(R) 94 system (copyright 1995, Gaussian, Inc.),
 the Gaussian 92(TM) system (copyright 1992, Gaussian, Inc.),
 the Gaussian 90(TM) system (copyright 1990, Gaussian, Inc.),
 the Gaussian 88(TM) system (copyright 1988, Gaussian, Inc.),
 the Gaussian 86(TM) system (copyright 1986, Carnegie Mellon
 University), and the Gaussian 82(TM) system (copyright 1983,
 Carnegie Mellon University). Gaussian is a federally registered
 trademark of Gaussian, Inc.
  
 This software contains proprietary and confidential information,
 including trade secrets, belonging to Gaussian, Inc.
  
 This software is provided under written license and may be
 used, copied, transmitted, or stored only in accord with that
 written license.
  
 The following legend is applicable only to US Government
 contracts under FAR:
  
                    RESTRICTED RIGHTS LEGEND
  
 Use, reproduction and disclosure by the US Government is
 subject to restrictions as set forth in subparagraphs (a)
 and (c) of the Commercial Computer Software - Restricted
 Rights clause in FAR 52.227-19.
  
 Gaussian, Inc.
 340 Quinnipiac St., Bldg. 40, Wallingford CT 06492
  
  
 ---------------------------------------------------------------
 Warning -- This program may not be used in any manner that
 competes with the business of Gaussian, Inc. or will provide
 assistance to any competitor of Gaussian, Inc.  The licensee
 of this program is prohibited from giving any competitor of
 Gaussian, Inc. access to this program.  By using this program,
 the user acknowledges that Gaussian, Inc. is engaged in the
 business of creating and licensing software in the field of
 computational chemistry and represents and warrants to the
 licensee that it is not a competitor of Gaussian, Inc. and that
 it will not use this program in any manner prohibited above.
 ---------------------------------------------------------------
  

 Cite this work as:
 Gaussian 09, Revision D.01,
 M. J. Frisch, G. W. Trucks, H. B. Schlegel, G. E. Scuseria, 
 M. A. Robb, J. R. Cheeseman, G. Scalmani, V. Barone, B. Mennucci, 
 G. A. Petersson, H. Nakatsuji, M. Caricato, X. Li, H. P. Hratchian, 
 A. F. Izmaylov, J. Bloino, G. Zheng, J. L. Sonnenberg, M. Hada, 
 M. Ehara, K. Toyota, R. Fukuda, J. Hasegawa, M. Ishida, T. Nakajima, 
 Y. Honda, O. Kitao, H. Nakai, T. Vreven, J. A. Montgomery, Jr., 
 J. E. Peralta, F. Ogliaro, M. Bearpark, J. J. Heyd, E. Brothers, 
 K. N. Kudin, V. N. Staroverov, T. Keith, R. Kobayashi, J. Normand, 
 K. Raghavachari, A. Rendell, J. C. Burant, S. S. Iyengar, J. Tomasi, 
 M. Cossi, N. Rega, J. M. Millam, M. Klene, J. E. Knox, J. B. Cross, 
 V. Bakken, C. Adamo, J. Jaramillo, R. Gomperts, R. E. Stratmann, 
 O. Yazyev, A. J. Austin, R. Cammi, C. Pomelli, J. W. Ochterski, 
 R. L. Martin, K. Morokuma, V. G. Zakrzewski, G. A. Voth, 
 P. Salvador, J. J. Dannenberg, S. Dapprich, A. D. Daniels, 
 O. Farkas, J. B. Foresman, J. V. Ortiz, J. Cioslowski, 
 and D. J. Fox, Gaussian, Inc., Wallingford CT, 2013.
 
 ******************************************
 Gaussian 09:  ES64L-G09RevD.01 24-Apr-2013
                 6-Feb-2019 
 ******************************************
 %nprocshared=2
 Will use up to    2 processors via shared memory.
 %mem=6000MB
 %chk=/home/ke291/rds/hpc-work/06Feb0927IP1/P_ng_2ginp013.chk
 ----------------------------------------------------------------------
 # mPW1PW91/6-311g(d) geom=checkpoint nmr=giao scrf=(solvent=chloroform
 )
 ----------------------------------------------------------------------
 1/29=2,38=1/1;
 2/12=2,40=1/2;
 3/5=4,6=6,7=1,11=2,14=-4,16=1,25=1,30=1,70=2201,72=7,74=-7/1,2,8,3;
 4//1;
 5/5=2,38=5,53=7/2;
 8/6=1,10=90,11=11/1;
 10/13=100,45=16/2;
 6/7=2,8=2,9=2,10=2,28=1/1;
 99/9=1/99;
 -------------
 P_ng_2ginp013
 -------------
 Structure from the checkpoint file:  "/home/ke291/rds/hpc-work/06Feb0927IP1/P_ng_2ginp013.chk"
 Charge =  0 Multiplicity = 1
 Redundant internal coordinates found in file.
 C,0,0.0677081073,0.1193548799,1.1443152248
 C,0,-0.8635419421,1.1682367957,0.4781895413
 C,0,-2.1384021121,1.467930562,1.3172212515
 C,0,-1.6698746889,1.7796395498,2.7467759494
 C,0,-0.9233741258,0.6228668817,3.3749541081
 H,0,-0.0886698147,-0.8507902984,0.6603033429
 H,0,-0.3202574152,2.1218326911,0.4556189174
 H,0,-0.9954941992,2.6447455651,2.7337620875
 H,0,-2.5060864209,2.0177192449,3.4050196325
 O,0,-0.2143176432,-0.1770742851,2.5521270072
 O,0,-0.9505457032,0.370130923,4.560841474
 C,0,1.5615112851,0.4721406075,1.0985372233
 C,0,2.1728946087,0.576115427,-0.3019050447
 C,0,-1.1817036499,0.7756374138,-0.9730050023
 O,0,-2.8258188494,2.5716287213,0.7348624559
 Si,0,-2.7763430952,4.2496880112,0.8497123189
 C,0,-3.4740499597,4.842361563,2.499570973
 C,0,-1.0358645144,4.9428312105,0.6060431843
 C,0,-3.8862323599,4.8179676466,-0.5581916517
 H,0,-1.0769810598,6.038639686,0.6023526184
 H,0,-0.3410486569,4.6498759885,1.4001089888
 H,0,-0.6072898167,4.6270829639,-0.3510817552
 H,0,-3.9597539172,5.9110369749,-0.5787430641
 H,0,-3.4942501398,4.4898770054,-1.5264956045
 H,0,-4.8994191456,4.4165449848,-0.4528406354
 H,0,-3.5906725408,5.932419947,2.4867628859
 H,0,-4.4604090065,4.405788662,2.689051049
 H,0,-2.8275287094,4.5913263836,3.3462226514
 H,0,-1.8687489101,1.5007028685,-1.4157447253
 H,0,-0.2771079573,0.7491405488,-1.5844708147
 H,0,-1.6449921855,-0.2141192424,-1.0311666463
 H,0,2.0891950301,-0.2993809253,1.6695532745
 H,0,1.7072778854,1.4159817461,1.6397293445
 H,0,2.0093788372,-0.3392952577,-0.8808262493
 H,0,1.7625246916,1.4149380298,-0.8716141498
 H,0,3.2532389717,0.7308493584,-0.2264103096
 C,0,-3.1452520116,0.285998694,1.3068553315
 C,0,-4.3646858626,0.5116886838,2.1583430063
 C,0,-4.7497313173,-0.2770755308,3.1629098089
 H,0,-2.6386349443,-0.6339379612,1.6183761345
 H,0,-3.4603313285,0.1472527861,0.2664347758
 H,0,-4.9627207616,1.3853139993,1.9043022729
 H,0,-5.6499088705,-0.07220916,3.7352271959
 H,0,-4.1813917813,-1.1592433441,3.4487986228
 Recover connectivity data from disk.
                          Input orientation:                          
 ---------------------------------------------------------------------
 Center     Atomic      Atomic             Coordinates (Angstroms)
 Number     Number       Type             X           Y           Z
 ---------------------------------------------------------------------
      1          6           0        0.067708    0.119355    1.144315
      2          6           0       -0.863542    1.168237    0.478190
      3          6           0       -2.138402    1.467931    1.317221
      4          6           0       -1.669875    1.779640    2.746776
      5          6           0       -0.923374    0.622867    3.374954
      6          1           0       -0.088670   -0.850790    0.660303
      7          1           0       -0.320257    2.121833    0.455619
      8          1           0       -0.995494    2.644746    2.733762
      9          1           0       -2.506086    2.017719    3.405020
     10          8           0       -0.214318   -0.177074    2.552127
     11          8           0       -0.950546    0.370131    4.560841
     12          6           0        1.561511    0.472141    1.098537
     13          6           0        2.172895    0.576115   -0.301905
     14          6           0       -1.181704    0.775637   -0.973005
     15          8           0       -2.825819    2.571629    0.734862
     16         14           0       -2.776343    4.249688    0.849712
     17          6           0       -3.474050    4.842362    2.499571
     18          6           0       -1.035865    4.942831    0.606043
     19          6           0       -3.886232    4.817968   -0.558192
     20          1           0       -1.076981    6.038640    0.602353
     21          1           0       -0.341049    4.649876    1.400109
     22          1           0       -0.607290    4.627083   -0.351082
     23          1           0       -3.959754    5.911037   -0.578743
     24          1           0       -3.494250    4.489877   -1.526496
     25          1           0       -4.899419    4.416545   -0.452841
     26          1           0       -3.590673    5.932420    2.486763
     27          1           0       -4.460409    4.405789    2.689051
     28          1           0       -2.827529    4.591326    3.346223
     29          1           0       -1.868749    1.500703   -1.415745
     30          1           0       -0.277108    0.749141   -1.584471
     31          1           0       -1.644992   -0.214119   -1.031167
     32          1           0        2.089195   -0.299381    1.669553
     33          1           0        1.707278    1.415982    1.639729
     34          1           0        2.009379   -0.339295   -0.880826
     35          1           0        1.762525    1.414938   -0.871614
     36          1           0        3.253239    0.730849   -0.226410
     37          6           0       -3.145252    0.285999    1.306855
     38          6           0       -4.364686    0.511689    2.158343
     39          6           0       -4.749731   -0.277076    3.162910
     40          1           0       -2.638635   -0.633938    1.618376
     41          1           0       -3.460331    0.147253    0.266435
     42          1           0       -4.962721    1.385314    1.904302
     43          1           0       -5.649909   -0.072209    3.735227
     44          1           0       -4.181392   -1.159243    3.448799
 ---------------------------------------------------------------------
                    Distance matrix (angstroms):
                    1          2          3          4          5
     1  C    0.000000
     2  C    1.552773   0.000000
     3  C    2.591423   1.555332   0.000000
     4  C    2.888532   2.484043   1.536329   0.000000
     5  C    2.492292   2.948263   2.534697   1.513273   0.000000
     6  H    1.095401   2.170268   3.163765   3.711164   3.199645
     7  H    2.152844   1.097731   2.115561   2.681038   3.336640
     8  H    3.167702   2.699092   2.167422   1.096981   2.122339
     9  H    3.916502   3.462067   2.190060   1.090512   2.109857
    10  O    1.466064   2.555889   2.816582   2.446480   1.348967
    11  O    3.573847   4.160840   3.624533   2.407277   1.212824
    12  C    1.535578   2.598127   3.837809   3.855917   3.373344
    13  C    2.594609   3.190471   4.690862   5.050723   4.807115
    14  C    2.544559   1.536661   2.576757   3.883697   4.358305
    15  O    3.814944   2.426092   1.424722   2.451785   3.793027
    16  Si   5.023452   3.645844   2.892008   3.305187   4.792095
    17  C    6.057026   4.939628   3.816895   3.563204   5.007632
    18  C    4.977302   3.780688   3.714337   3.871755   5.132408
    19  C    6.372530   4.850905   4.218392   5.006645   6.468928
    20  H    6.053261   4.876658   4.746476   4.805118   6.086174
    21  H    4.556110   3.639333   3.655424   3.437666   4.522822
    22  H    4.797025   3.566086   3.886873   4.339786   5.478777
    23  H    7.261746   5.761752   5.162674   5.776770   7.267466
    24  H    6.238769   4.687503   4.365456   5.379088   6.751843
    25  H    6.759371   5.263709   4.410290   5.255547   6.697234
    26  H    6.998403   5.845430   4.838242   4.582866   6.007888
    27  H    6.423672   5.320442   3.988063   3.832372   5.224134
    28  H    5.764488   4.878565   3.787789   3.099207   4.401738
    29  H    3.494552   2.169784   2.746432   4.176594   4.961363
    30  H    2.821666   2.184975   3.521490   4.664914   5.002949
    31  H    2.788775   2.190828   2.930473   4.271831   4.542596
    32  H    2.130170   3.505981   4.595662   4.428695   3.582528
    33  H    2.148224   2.831902   3.859529   3.572528   3.249672
    34  H    2.842823   3.517563   5.030066   5.584469   5.257230
    35  H    2.935117   2.962947   4.473370   5.000712   5.086725
    36  H    3.521423   4.199483   5.656490   5.846097   5.515939
    37  C    3.221382   2.582873   1.552681   2.545795   3.054055
    38  C    4.563803   3.938525   2.564805   3.035780   3.651730
    39  C    5.238283   4.939546   3.642891   3.726763   3.936479
    40  H    2.848943   2.774674   2.181462   2.834985   2.758123
    41  H    3.635728   2.798314   2.143791   3.467350   4.040452
    42  H    5.242657   4.345594   2.885873   3.421709   4.365829
    43  H    6.280180   5.920837   4.533152   4.499672   4.790935
    44  H    5.000031   5.024919   3.952148   3.929069   3.714303
                    6          7          8          9         10
     6  H    0.000000
     7  H    2.988648   0.000000
     8  H    4.164172   2.432965   0.000000
     9  H    4.648195   3.672554   1.767947   0.000000
    10  O    2.012133   3.113124   2.933581   3.285841   0.000000
    11  O    4.177042   4.507613   2.917895   2.543655   2.208257
    12  C    2.159929   2.583773   3.732620   4.924838   2.384947
    13  C    2.841932   3.029669   4.851102   6.141040   3.796258
    14  C    2.551017   2.143665   4.155522   4.739605   3.777572
    15  O    4.382978   2.560885   2.711279   2.745685   4.204493
    16  Si   5.768392   3.273444   3.049083   3.403574   5.390586
    17  C    6.874277   4.639550   3.320783   3.120159   5.985261
    18  C    5.870790   2.914233   3.132094   4.307215   5.538557
    19  C    6.931164   4.584008   4.890421   5.045120   6.935956
    20  H    6.960198   3.991934   4.008499   5.105398   6.571218
    21  H    5.555928   2.698795   2.495491   3.954150   4.964137
    22  H    5.594548   2.647533   3.687360   4.952020   5.626986
    23  H    7.889413   5.354802   5.516175   5.756860   7.803572
    24  H    6.700955   4.428390   5.272389   5.604273   7.012386
    25  H    7.219918   5.201896   5.341754   5.134734   7.216741
    26  H    7.849326   5.416801   4.195803   4.164661   6.980685
    27  H    7.131588   5.229295   3.887018   3.167785   6.249054
    28  H    6.658239   4.554163   2.742378   2.594270   5.495189
    29  H    3.606685   2.507116   4.392017   4.890120   4.614768
    30  H    2.763023   2.459291   4.770381   5.610049   4.239488
    31  H    2.385070   3.069548   4.771755   5.040073   3.858522
    32  H    2.462871   3.625103   4.394966   5.431152   2.469831
    33  H    3.053352   2.451784   3.164134   4.607687   2.657598
    34  H    2.653020   3.642862   5.567675   6.656832   4.093447
    35  H    3.302608   2.568896   4.702960   6.072395   4.261973
    36  H    3.802131   3.894852   5.520630   6.929152   4.535256
    37  C    3.324607   3.474980   3.495884   2.794581   3.217999
    38  C    4.731256   4.674316   4.028957   2.697540   4.225520
    39  C    5.321436   5.718778   4.776558   3.218485   4.577448
    40  H    2.732627   3.784330   3.833244   3.200148   2.637789
    41  H    3.538266   3.714138   4.289592   3.776234   3.983238
    42  H    5.504913   4.918700   4.244179   2.947396   5.040641
    43  H    6.402244   6.631352   5.481638   3.789519   5.563845
    44  H    4.961978   5.884976   5.013138   3.591888   4.184059
                   11         12         13         14         15
    11  O    0.000000
    12  C    4.278830   0.000000
    13  C    5.783132   1.531613   0.000000
    14  C    5.553497   3.450888   3.426881   0.000000
    15  O    4.795973   4.877374   5.481250   2.974140   0.000000
    16  Si   5.670712   5.757496   6.270272   4.234879   1.682712
    17  C    5.533331   6.813120   7.611643   5.818237   2.947987
    18  C    6.046263   5.193841   5.494426   4.458718   2.973740
    19  C    7.389588   7.163021   7.400812   4.881289   2.800447
    20  H    6.915028   6.180109   6.420167   5.494717   3.885377
    21  H    5.355178   4.600451   5.080579   4.620400   3.306924
    22  H    6.508952   4.905980   4.913469   3.943396   3.213415
    23  H    8.134636   7.929643   8.133106   5.851951   3.763378
    24  H    7.778073   6.970920   6.995261   4.410193   3.039773
    25  H    7.556724   7.727142   8.049180   5.229549   3.018969
    26  H    6.497009   7.634580   8.347777   6.660746   3.866403
    27  H    5.666504   7.366603   8.222708   6.110529   3.139248
    28  H    4.776699   6.425220   7.378007   5.993659   3.301270
    29  H    6.151494   4.375642   4.293062   1.092598   2.586112
    30  H    6.193709   3.264320   2.770817   1.092193   3.898294
    31  H    5.665171   3.910020   3.966428   1.094366   3.503370
    32  H    4.248272   1.095333   2.158737   4.340225   5.768336
    33  H    4.085429   1.097713   2.166130   3.947485   4.764795
    34  H    6.235077   2.185611   1.095383   3.381505   5.870525
    35  H    6.161489   2.193347   1.093890   3.014542   4.997159
    36  H    6.381199   2.164338   1.093977   4.497569   6.423975
    37  C    3.925843   4.715047   5.563718   3.048447   2.377671
    38  C    4.177127   6.020346   6.985480   4.472850   2.939007
    39  C    4.099622   6.682420   7.788172   5.562807   4.208559
    40  H    3.537782   4.374342   5.320012   3.290108   3.330359
    41  H    4.979019   5.100672   5.678043   2.668937   2.549437
    42  H    4.917860   6.636923   7.512600   4.790271   2.709480
    43  H    4.791797   7.697599   8.826948   6.546079   4.895667
    44  H    3.743527   6.416080   7.579987   5.682802   4.808579
                   16         17         18         19         20
    16  Si   0.000000
    17  C    1.886820   0.000000
    18  C    1.889203   3.088736   0.000000
    19  C    1.880689   3.085515   3.081498   0.000000
    20  H    2.479792   3.282752   1.096586   3.275484   0.000000
    21  H    2.528586   3.325893   1.095049   4.053582   1.762577
    22  H    2.507813   4.048565   1.095199   3.291017   1.766958
    23  H    2.490186   3.294540   3.300041   1.095732   3.117956
    24  H    2.493882   4.041518   3.285810   1.094946   3.574052
    25  H    2.496385   3.306014   4.040454   1.094891   4.284350
    26  H    2.484885   1.096354   3.323167   3.255934   3.143395
    27  H    2.498722   1.095172   4.044112   3.323275   4.297452
    28  H    2.520298   1.094453   3.292750   4.051749   3.562016
    29  H    3.675995   5.391973   4.077937   3.976164   5.029163
    30  H    4.942191   6.607140   4.791775   5.534833   5.779342
    31  H    4.974257   6.432695   5.444780   5.528902   6.487528
    32  H    6.711157   7.620770   6.194985   8.176542   7.164781
    33  H    5.362544   6.271010   4.586066   6.905919   5.495199
    34  H    6.852493   8.267082   6.275759   7.839623   7.239026
    35  H    5.621396   7.108715   4.739249   6.602068   5.622632
    36  H    7.063719   8.342177   6.068787   8.233266   6.900021
    37  C    4.006982   4.721347   5.160111   4.956430   6.153613
    38  C    4.267082   4.434456   5.755494   5.113953   6.616441
    39  C    5.453140   5.317520   6.897666   6.368021   7.741693
    40  H    4.945666   5.609303   5.890165   6.001435   6.927796
    41  H    4.199765   5.199147   5.384324   4.762035   6.364090
    42  H    3.754603   3.810730   5.455420   4.359566   6.200604
    43  H    5.938213   5.514908   7.498788   6.742242   8.250397
    44  H    6.163274   6.117240   7.430405   7.202093   8.339613
                   21         22         23         24         25
    21  H    0.000000
    22  H    1.771461   0.000000
    23  H    4.312935   3.597135   0.000000
    24  H    4.305031   3.120090   1.770487   0.000000
    25  H    4.926115   4.298495   1.769839   1.769919   0.000000
    26  H    3.658660   4.319472   3.087718   4.265732   3.556960
    27  H    4.323203   4.913034   3.632479   4.325664   3.172433
    28  H    3.158064   4.312864   4.292892   4.919166   4.330838
    29  H    4.492237   3.535398   4.952163   3.404362   4.314427
    30  H    4.911979   4.082733   6.420167   4.934215   6.008012
    31  H    5.591942   4.997657   6.563562   5.078650   5.689359
    32  H    5.520311   5.968588   8.956222   8.020385   8.693977
    33  H    3.835509   4.430770   7.565870   6.821269   7.551866
    34  H    5.968166   5.638484   8.648032   7.350355   8.398374
    35  H    4.477786   4.025525   7.283210   6.125178   7.318915
    36  H    5.560867   5.486334   8.887393   7.832568   8.949942
    37  C    5.188032   5.294811   5.988318   5.081562   4.820274
    38  C    5.821440   6.111604   6.067007   5.491965   4.727803
    39  C    6.842427   7.318383   7.274391   6.803719   5.926730
    40  H    5.765868   5.973564   7.029181   6.072543   5.908338
    41  H    5.593635   5.346967   5.846790   4.698312   4.562366
    42  H    5.680795   5.879252   5.258671   4.854389   3.840376
    43  H    7.478961   8.013069   7.567443   7.290077   6.184825
    44  H    7.258873   7.790691   8.139968   7.558987   6.843082
                   26         27         28         29         30
    26  H    0.000000
    27  H    1.768605   0.000000
    28  H    1.766237   1.769914   0.000000
    29  H    6.150992   5.657347   5.757391   0.000000
    30  H    7.377062   7.009570   6.751206   1.768229   0.000000
    31  H    7.344484   6.565831   6.606984   1.771604   1.762136
    32  H    8.471368   8.128672   7.134733   5.331481   4.157819
    33  H    7.013128   6.934002   5.793048   4.704367   3.844207
    34  H    9.057353   8.781685   8.097817   4.325691   2.628275
    35  H    7.768080   7.768425   6.996298   3.672817   2.260874
    36  H    9.014254   9.028037   8.040070   5.314316   3.782593
    37  C    5.785556   4.540129   4.774496   3.243072   4.098843
    38  C    5.485552   3.931263   4.518557   4.470118   5.547372
    39  C    6.352828   4.715662   5.237347   5.694263   6.602659
    40  H    6.691601   5.464801   5.506771   3.788840   4.212831
    41  H    6.197984   5.000435   5.443833   2.682292   3.731090
    42  H    4.785180   3.160920   4.112991   4.539679   5.876327
    43  H    6.469520   4.749933   5.464954   6.580557   7.605313
    44  H    7.180957   5.623580   5.908682   6.007280   6.649749
                   31         32         33         34         35
    31  H    0.000000
    32  H    4.609264   0.000000
    33  H    4.585698   1.757617   0.000000
    34  H    3.659604   2.551940   3.086335   0.000000
    35  H    3.780272   3.082716   2.511951   1.771541   0.000000
    36  H    5.053045   2.451744   2.518309   1.766538   1.762525
    37  C    2.822631   5.279551   4.993467   5.634462   5.486940
    38  C    4.253998   6.522985   6.160799   7.112624   6.894868
    39  C    5.218587   7.000109   6.846860   7.876626   7.845366
    40  H    2.860708   4.739929   4.805162   5.285533   5.456020
    41  H    2.260490   5.741556   5.495434   5.609872   5.493670
    42  H    4.709829   7.254159   6.675314   7.703336   7.275680
    43  H    6.227199   8.013261   7.793203   8.946730   8.853178
    44  H    5.234183   6.574598   6.676896   7.598921   7.786046
                   36         37         38         39         40
    36  H    0.000000
    37  C    6.594656   0.000000
    38  C    7.985478   1.504322   0.000000
    39  C    8.749339   2.517210   1.334003   0.000000
    40  H    6.322979   1.095440   2.140859   2.640012   0.000000
    41  H    6.756886   1.095902   2.128377   3.198777   1.764423
    42  H    8.512946   2.206497   1.088762   2.095948   3.092007
    43  H    9.777807   3.506937   2.116435   1.086203   3.723489
    44  H    8.506077   2.783924   2.119171   1.087641   2.450814
                   41         42         43         44
    41  H    0.000000
    42  H    2.544126   0.000000
    43  H    4.107911   2.439034   0.000000
    44  H    3.514868   3.077453   1.849386   0.000000
 Stoichiometry    C14H26O3Si
 Framework group  C1[X(C14H26O3Si)]
 Deg. of freedom   126
 Full point group                 C1      NOp   1
 Largest Abelian subgroup         C1      NOp   1
 Largest concise Abelian subgroup C1      NOp   1
                         Standard orientation:                         
 ---------------------------------------------------------------------
 Center     Atomic      Atomic             Coordinates (Angstroms)
 Number     Number       Type             X           Y           Z
 ---------------------------------------------------------------------
      1          6           0        2.438046   -0.423687    0.252018
      2          6           0        0.982076   -0.798640    0.640176
      3          6           0       -0.025845    0.363445    0.410581
      4          6           0        0.191097    0.866568   -1.024727
      5          6           0        1.597301    1.377776   -1.251111
      6          1           0        2.997405   -0.186551    1.163494
      7          1           0        0.651883   -1.587406   -0.048179
      8          1           0        0.015180    0.047867   -1.733352
      9          1           0       -0.490732    1.679322   -1.277231
     10          8           0        2.588586    0.799355   -0.542242
     11          8           0        1.868868    2.284292   -2.009677
     12          6           0        3.188431   -1.508909   -0.533613
     13          6           0        3.402201   -2.832093    0.207552
     14          6           0        0.924143   -1.367033    2.066675
     15          8           0       -1.349195   -0.128032    0.603008
     16         14           0       -2.530677   -0.876265   -0.332817
     17          6           0       -3.289403    0.330994   -1.568515
     18          6           0       -1.879275   -2.397800   -1.243692
     19          6           0       -3.822723   -1.399867    0.929502
     20          1           0       -2.707550   -2.893882   -1.763657
     21          1           0       -1.124042   -2.156464   -1.999014
     22          1           0       -1.443483   -3.125606   -0.550983
     23          1           0       -4.672451   -1.886336    0.437630
     24          1           0       -3.403704   -2.107335    1.652564
     25          1           0       -4.206686   -0.538840    1.486270
     26          1           0       -4.165445   -0.123377   -2.046102
     27          1           0       -3.622046    1.247368   -1.069505
     28          1           0       -2.592821    0.615421   -2.363312
     29          1           0       -0.110087   -1.588943    2.340341
     30          1           0        1.501976   -2.290106    2.149927
     31          1           0        1.327757   -0.661234    2.799193
     32          1           0        4.160020   -1.086848   -0.812240
     33          1           0        2.646173   -1.690127   -1.470677
     34          1           0        3.908322   -2.678285    1.166743
     35          1           0        2.461068   -3.354917    0.401249
     36          1           0        4.027860   -3.498875   -0.393064
     37          6           0        0.154075    1.514541    1.436946
     38          6           0       -0.761154    2.686741    1.210479
     39          6           0       -0.356792    3.941749    1.007967
     40          1           0        1.196683    1.850635    1.436481
     41          1           0       -0.050593    1.091292    2.426881
     42          1           0       -1.826772    2.464292    1.229951
     43          1           0       -1.065347    4.752406    0.864364
     44          1           0        0.697776    4.206604    0.981518
 ---------------------------------------------------------------------
 Rotational constants (GHZ):      0.4286721      0.3071831      0.2375852
 Standard basis: 6-311G(d) (5D, 7F)
 There are   428 symmetry adapted cartesian basis functions of A   symmetry.
 There are   410 symmetry adapted basis functions of A   symmetry.
   410 basis functions,   720 primitive gaussians,   428 cartesian basis functions
    74 alpha electrons       74 beta electrons
       nuclear repulsion energy      1631.1343644317 Hartrees.
 NAtoms=   44 NActive=   44 NUniq=   44 SFac= 1.00D+00 NAtFMM=   60 NAOKFM=F Big=F
 Integral buffers will be    131072 words long.
 Raffenetti 2 integral format.
 Two-electron integral symmetry is turned on.
 ------------------------------------------------------------------------------
 Polarizable Continuum Model (PCM)
 =================================
 Model                : PCM (using non-symmetric T matrix).
 Atomic radii         : UFF (Universal Force Field).
 Polarization charges : Total charges.
 Charge compensation  : None.
 Solution method      : On-the-fly selection.
 Cavity type          : Scaled VdW (van der Waals Surface) (Alpha=1.100).
 Cavity algorithm     : GePol (No added spheres)
                        Default sphere list used, NSphG=   44.
                        Lebedev-Laikov grids with approx.  5.0 points / Ang**2.
                        Smoothing algorithm: Karplus/York (Gamma=1.0000).
                        Polarization charges: spherical gaussians, with
                                              point-specific exponents (IZeta= 3).
                        Self-potential: point-specific (ISelfS= 7).
                        Self-field    : sphere-specific E.n sum rule (ISelfD= 2).
 Solvent              : Chloroform, Eps=   4.711300 Eps(inf)=   2.090627
 ------------------------------------------------------------------------------
 One-electron integrals computed using PRISM.
 NBasis=   410 RedAO= T EigKep=  9.72D-04  NBF=   410
 NBsUse=   410 1.00D-06 EigRej= -1.00D+00 NBFU=   410
 ExpMin= 6.54D-02 ExpMax= 6.94D+04 ExpMxC= 2.33D+03 IAcc=2 IRadAn=         4 AccDes= 0.00D+00
 Harris functional with IExCor=  908 and IRadAn=       4 diagonalized for initial guess.
 HarFok:  IExCor=  908 AccDes= 0.00D+00 IRadAn=         4 IDoV= 1 UseB2=F ITyADJ=14
 ICtDFT=  3500011 ScaDFX=  1.000000  1.000000  1.000000  1.000000
 FoFCou: FMM=F IPFlag=           0 FMFlag=      100000 FMFlg1=           0
         NFxFlg=           0 DoJE=T BraDBF=F KetDBF=T FulRan=T
         wScrn=  0.000000 ICntrl=     500 IOpCl=  0 I1Cent=   200000004 NGrid=           0
         NMat0=    1 NMatS0=      1 NMatT0=    0 NMatD0=    1 NMtDS0=    0 NMtDT0=    0
 Petite list used in FoFCou.
 Requested convergence on RMS density matrix=1.00D-08 within 128 cycles.
 Requested convergence on MAX density matrix=1.00D-06.
 Requested convergence on             energy=1.00D-06.
 No special actions if energy rises.
 Inv3:  Mode=1 IEnd=    25684428.
 Iteration    1 A*A^-1 deviation from unit magnitude is 4.66D-15 for   1443.
 Iteration    1 A*A^-1 deviation from orthogonality  is 4.33D-15 for   2893   2645.
 Iteration    1 A^-1*A deviation from unit magnitude is 4.00D-15 for   1452.
 Iteration    1 A^-1*A deviation from orthogonality  is 2.53D-12 for   2190   2161.
 Error on total polarization charges =  0.01116
 SCF Done:  E(RmPW1PW91) =  -1064.38112759     A.U. after   12 cycles
            NFock= 12  Conv=0.96D-08     -V/T= 2.0036
 DoSCS=F DFT=T ScalE2(SS,OS)=  1.000000  1.000000
 Range of M.O.s used for correlation:     1   410
 NBasis=   410 NAE=    74 NBE=    74 NFC=     0 NFV=     0
 NROrb=    410 NOA=    74 NOB=    74 NVA=   336 NVB=   336
 NEqPCM:  Using equilibrium solvation (IEInf=0, Eps=   4.7113, EpsInf=   2.0906)
          Differentiating once with respect to magnetic field using GIAOs.
          Electric field/nuclear overlap derivatives assumed to be zero.
 FoFJK:  IHMeth= 1 ICntrl=    6127 DoSepK=F KAlg= 0 I1Cent=   0 FoldK=F
 IRaf=         1 NMat=   1 IRICut=       1 DoRegI=T DoRafI=F ISym2E= 0.
          There are     3 degrees of freedom in the 1st order CPHF.  IDoFFX=0 NUNeed=     3.
      3 vectors produced by pass  0 Test12= 8.29D-13 3.33D-08 XBig12= 3.65D+01 1.03D+00.
 AX will form     3 AO Fock derivatives at one time.
      3 vectors produced by pass  1 Test12= 8.29D-13 3.33D-08 XBig12= 6.92D-02 9.05D-02.
      3 vectors produced by pass  2 Test12= 8.29D-13 3.33D-08 XBig12= 6.67D-04 1.01D-02.
      3 vectors produced by pass  3 Test12= 8.29D-13 3.33D-08 XBig12= 2.65D-06 3.10D-04.
      3 vectors produced by pass  4 Test12= 8.29D-13 3.33D-08 XBig12= 9.54D-09 2.38D-05.
      3 vectors produced by pass  5 Test12= 8.29D-13 3.33D-08 XBig12= 3.45D-11 9.78D-07.
      2 vectors produced by pass  6 Test12= 8.29D-13 3.33D-08 XBig12= 1.17D-13 5.99D-08.
 InvSVY:  IOpt=1 It=  1 EMax= 8.88D-16
 Solved reduced A of dimension    20 with     3 vectors.
 Calculating GIAO nuclear magnetic shielding tensors.
 SCF GIAO Magnetic shielding tensor (ppm):
      1  C    Isotropic =    99.6614   Anisotropy =    57.1739
   XX=    84.7326   YX=    -4.7076   ZX=    -4.3909
   XY=    -5.8095   YY=   112.7678   ZY=   -30.7257
   XZ=    -5.3321   YZ=   -29.4953   ZZ=   101.4839
   Eigenvalues:    72.4000    88.8069   137.7774
      2  C    Isotropic =   139.6177   Anisotropy =    21.1430
   XX=   150.0544   YX=    -8.0139   ZX=    -0.5169
   XY=    -6.0072   YY=   139.5702   ZY=    12.2647
   XZ=     3.7323   YZ=     2.1105   ZZ=   129.2284
   Eigenvalues:   124.6443   140.4957   153.7130
      3  C    Isotropic =   106.8344   Anisotropy =    54.6819
   XX=   137.2551   YX=    17.7046   ZX=    -1.8592
   XY=    14.6638   YY=    99.8002   ZY=     0.9852
   XZ=     0.0430   YZ=    -0.4763   ZZ=    83.4480
   Eigenvalues:    83.4086    93.8056   143.2890
      4  C    Isotropic =   143.3051   Anisotropy =    28.6781
   XX=   151.7584   YX=     9.1568   ZX=    -8.4075
   XY=     7.8146   YY=   134.3607   ZY=   -11.2539
   XZ=    -9.1010   YZ=    -6.0473   ZZ=   143.7963
   Eigenvalues:   128.7274   138.7641   162.4238
      5  C    Isotropic =    13.0735   Anisotropy =    86.8747
   XX=   -59.1761   YX=    17.6202   ZX=   -36.6261
   XY=    25.0792   YY=    51.2720   ZY=    21.0320
   XZ=   -47.9912   YZ=    18.4595   ZZ=    47.1246
   Eigenvalues:   -79.4402    47.6707    70.9899
      6  H    Isotropic =    28.0461   Anisotropy =     2.7828
   XX=    28.9562   YX=     0.7979   ZX=     1.2389
   XY=     0.5802   YY=    27.3131   ZY=    -1.1906
   XZ=     1.5165   YZ=    -0.3714   ZZ=    27.8690
   Eigenvalues:    26.0697    28.1673    29.9013
      7  H    Isotropic =    30.2375   Anisotropy =     4.5675
   XX=    32.3061   YX=    -0.3366   ZX=     1.8596
   XY=    -0.2653   YY=    30.0464   ZY=     2.9336
   XZ=     1.8621   YZ=     2.3731   ZZ=    28.3600
   Eigenvalues:    25.9654    31.4645    33.2825
      8  H    Isotropic =    29.9445   Anisotropy =     4.2082
   XX=    30.3135   YX=     2.0609   ZX=     0.8915
   XY=     2.0149   YY=    28.6261   ZY=     0.5108
   XZ=     1.1973   YZ=     1.4340   ZZ=    30.8940
   Eigenvalues:    27.2479    29.8357    32.7500
      9  H    Isotropic =    29.3597   Anisotropy =     3.3050
   XX=    29.5724   YX=    -1.2549   ZX=     0.8910
   XY=    -0.0402   YY=    29.9110   ZY=    -1.9976
   XZ=    -0.0912   YZ=    -1.8220   ZZ=    28.5959
   Eigenvalues:    27.2325    29.2837    31.5630
     10  O    Isotropic =    91.7363   Anisotropy =   191.4929
   XX=   155.9132   YX=   -77.0280   ZX=    33.2663
   XY=   -79.2780   YY=    30.3407   ZY=   136.5537
   XZ=    39.8311   YZ=   155.0034   ZZ=    88.9549
   Eigenvalues:  -114.9926   170.8032   219.3982
     11  O    Isotropic =  -108.6738   Anisotropy =   560.2910
   XX=  -219.4556   YX=    14.9247   ZX=   -91.0898
   XY=    -7.9240   YY=   -88.0106   ZY=   305.1206
   XZ=   -80.8684   YZ=   311.3032   ZZ=   -18.5552
   Eigenvalues:  -385.8129  -205.0619   264.8535
     12  C    Isotropic =   151.8164   Anisotropy =    29.3708
   XX=   147.9630   YX=    -9.7386   ZX=   -12.0120
   XY=   -14.7927   YY=   157.1667   ZY=     1.8734
   XZ=   -10.8904   YZ=     8.1317   ZZ=   150.3195
   Eigenvalues:   135.5524   148.4998   171.3970
     13  C    Isotropic =   176.2145   Anisotropy =    13.5715
   XX=   172.0491   YX=    -4.8755   ZX=    -0.1420
   XY=    -4.3500   YY=   180.8011   ZY=    -5.0988
   XZ=     0.8017   YZ=    -5.0573   ZZ=   175.7933
   Eigenvalues:   169.4411   173.9402   185.2622
     14  C    Isotropic =   173.1853   Anisotropy =    21.9794
   XX=   167.9479   YX=     1.5558   ZX=    -3.1239
   XY=     8.3323   YY=   166.7988   ZY=    -6.4966
   XZ=    -5.2482   YZ=    -4.4689   ZZ=   184.8092
   Eigenvalues:   162.3003   169.4174   187.8382
     15  O    Isotropic =   247.4315   Anisotropy =    19.8291
   XX=   232.4806   YX=     6.8688   ZX=    -9.4596
   XY=    15.5476   YY=   253.7949   ZY=     0.9348
   XZ=     1.5144   YZ=     8.4740   ZZ=   256.0192
   Eigenvalues:   226.6318   255.0119   260.6509
     16  Si   Isotropic =   333.6328   Anisotropy =    40.8248
   XX=   343.2236   YX=    20.4696   ZX=    21.1813
   XY=    16.3545   YY=   325.9197   ZY=     9.2241
   XZ=     3.2481   YZ=     1.2458   ZZ=   331.7552
   Eigenvalues:   313.8965   326.1526   360.8493
     17  C    Isotropic =   185.3108   Anisotropy =    12.2672
   XX=   184.5795   YX=    -1.0806   ZX=     6.7187
   XY=     0.6488   YY=   187.6760   ZY=    -4.5525
   XZ=     6.1670   YZ=    -6.0763   ZZ=   183.6769
   Eigenvalues:   176.3190   186.1245   193.4890
     18  C    Isotropic =   186.0326   Anisotropy =     9.0542
   XX=   187.2060   YX=    -1.3188   ZX=     1.2492
   XY=    -4.0025   YY=   188.4224   ZY=     4.5530
   XZ=     1.2908   YZ=     5.8480   ZZ=   182.4693
   Eigenvalues:   178.7362   187.2928   192.0687
     19  C    Isotropic =   186.7352   Anisotropy =    12.5727
   XX=   189.4430   YX=     5.4954   ZX=    -3.8873
   XY=     5.5228   YY=   179.7497   ZY=    -0.8115
   XZ=    -3.2780   YZ=    -0.8228   ZZ=   191.0130
   Eigenvalues:   177.2174   187.8713   195.1170
     20  H    Isotropic =    32.1786   Anisotropy =    10.5590
   XX=    33.1798   YX=     3.6381   ZX=     3.4074
   XY=     3.2355   YY=    32.3387   ZY=     3.5989
   XZ=     3.3158   YZ=     3.7385   ZZ=    31.0174
   Eigenvalues:    27.8876    29.4303    39.2179
     21  H    Isotropic =    31.9774   Anisotropy =     6.3629
   XX=    33.2544   YX=     1.5743   ZX=    -3.0694
   XY=     0.6917   YY=    29.8588   ZY=     1.3040
   XZ=    -3.2779   YZ=     0.8458   ZZ=    32.8189
   Eigenvalues:    28.2977    31.4151    36.2193
     22  H    Isotropic =    31.9493   Anisotropy =     7.3409
   XX=    30.9945   YX=    -1.7910   ZX=     2.5533
   XY=    -2.0819   YY=    34.6562   ZY=    -2.5949
   XZ=     2.1181   YZ=    -1.8022   ZZ=    30.1972
   Eigenvalues:    28.1869    30.8178    36.8432
     23  H    Isotropic =    32.3575   Anisotropy =    10.2497
   XX=    36.6901   YX=     4.1758   ZX=     1.4166
   XY=     4.2701   YY=    30.4643   ZY=     0.8368
   XZ=     1.7711   YZ=     1.0370   ZZ=    29.9181
   Eigenvalues:    28.3200    29.5618    39.1906
     24  H    Isotropic =    31.9378   Anisotropy =     8.1664
   XX=    30.9187   YX=    -0.3367   ZX=    -0.0140
   XY=    -0.5759   YY=    31.6591   ZY=    -4.7081
   XZ=     0.7902   YZ=    -4.9251   ZZ=    33.2355
   Eigenvalues:    27.5638    30.8674    37.3820
     25  H    Isotropic =    31.8723   Anisotropy =     8.6298
   XX=    31.8880   YX=    -2.1874   ZX=    -3.6219
   XY=    -1.7987   YY=    32.2317   ZY=     2.7174
   XZ=    -3.4262   YZ=     3.4680   ZZ=    31.4972
   Eigenvalues:    27.8702    30.1212    37.6254
     26  H    Isotropic =    32.2445   Anisotropy =    10.4123
   XX=    35.7174   YX=     1.6766   ZX=     4.7915
   XY=     2.0607   YY=    29.5894   ZY=     0.6151
   XZ=     4.8095   YZ=     0.4041   ZZ=    31.4269
   Eigenvalues:    28.0342    29.5134    39.1861
     27  H    Isotropic =    31.8488   Anisotropy =     8.1371
   XX=    31.0097   YX=    -3.4305   ZX=     0.0658
   XY=    -2.9734   YY=    35.2984   ZY=     2.2084
   XZ=     0.4272   YZ=     1.3392   ZZ=    29.2383
   Eigenvalues:    28.0884    30.1845    37.2735
     28  H    Isotropic =    31.9426   Anisotropy =     6.5473
   XX=    32.7576   YX=     0.7826   ZX=    -1.1586
   XY=     1.6879   YY=    29.2942   ZY=    -2.9926
   XZ=    -1.8896   YZ=    -2.9773   ZZ=    33.7760
   Eigenvalues:    27.7628    31.7576    36.3075
     29  H    Isotropic =    30.5259   Anisotropy =     7.6695
   XX=    33.7597   YX=     1.2638   ZX=    -1.1965
   XY=     1.9474   YY=    27.5975   ZY=    -3.9835
   XZ=    -2.0974   YZ=    -3.5000   ZZ=    30.2204
   Eigenvalues:    24.9284    31.0103    35.6389
     30  H    Isotropic =    31.0734   Anisotropy =     8.5079
   XX=    29.7164   YX=    -4.5096   ZX=    -0.6081
   XY=    -4.4221   YY=    33.1137   ZY=    -2.6023
   XZ=    -0.6962   YZ=    -2.6982   ZZ=    30.3901
   Eigenvalues:    25.6878    30.7870    36.7453
     31  H    Isotropic =    31.2508   Anisotropy =     8.2641
   XX=    28.4498   YX=    -0.1939   ZX=     2.9714
   XY=     0.0939   YY=    30.1760   ZY=     1.5783
   XZ=     3.0336   YZ=     2.2600   ZZ=    35.1264
   Eigenvalues:    27.1010    29.8911    36.7601
     32  H    Isotropic =    29.9760   Anisotropy =     8.5571
   XX=    34.1750   YX=     0.5451   ZX=    -3.2387
   XY=    -0.1115   YY=    29.6405   ZY=    -1.2699
   XZ=    -4.0798   YZ=    -1.7061   ZZ=    26.1126
   Eigenvalues:    24.3708    29.8766    35.6807
     33  H    Isotropic =    30.5740   Anisotropy =     4.2843
   XX=    29.1593   YX=    -2.3037   ZX=     0.1699
   XY=    -2.2232   YY=    29.3598   ZY=     0.5593
   XZ=     1.2957   YZ=     1.2973   ZZ=    33.2030
   Eigenvalues:    26.7801    31.5117    33.4302
     34  H    Isotropic =    31.1952   Anisotropy =     8.6784
   XX=    31.1754   YX=    -2.0840   ZX=     3.6673
   XY=    -2.6999   YY=    29.2455   ZY=    -1.7802
   XZ=     4.0144   YZ=    -0.9220   ZZ=    33.1648
   Eigenvalues:    27.2853    29.3195    36.9808
     35  H    Isotropic =    31.1530   Anisotropy =     5.6427
   XX=    32.9079   YX=     0.7165   ZX=    -1.2605
   XY=     1.2845   YY=    33.6991   ZY=    -1.3525
   XZ=    -2.0468   YZ=    -1.3821   ZZ=    26.8520
   Eigenvalues:    26.2684    32.2758    34.9148
     36  H    Isotropic =    30.9347   Anisotropy =    11.4497
   XX=    30.6146   YX=    -4.9886   ZX=    -2.6959
   XY=    -5.3676   YY=    33.6067   ZY=     2.2770
   XZ=    -2.5076   YZ=     1.9564   ZZ=    28.5828
   Eigenvalues:    26.2516    27.9847    38.5678
     37  C    Isotropic =   144.7975   Anisotropy =    18.5343
   XX=   143.5811   YX=    -8.4544   ZX=     2.6750
   XY=    -0.5435   YY=   152.7195   ZY=    10.1941
   XZ=     6.1842   YZ=     7.1429   ZZ=   138.0918
   Eigenvalues:   131.1965   146.0423   157.1537
     38  C    Isotropic =    45.8695   Anisotropy =   178.5287
   XX=   -70.8088   YX=    24.1658   ZX=    -7.1907
   XY=    28.9500   YY=    47.9088   ZY=    22.4541
   XZ=    -8.5067   YZ=    22.6502   ZZ=   160.5084
   Eigenvalues:   -77.1334    49.8532   164.8886
     39  C    Isotropic =    64.8662   Anisotropy =   141.3995
   XX=   -37.9551   YX=    39.1390   ZX=   -10.1276
   XY=    36.0875   YY=    76.8674   ZY=    14.7305
   XZ=   -11.5282   YZ=    18.6664   ZZ=   155.6864
   Eigenvalues:   -50.3001    85.7662   159.1325
     40  H    Isotropic =    30.1586   Anisotropy =     6.1073
   XX=    31.0855   YX=     2.0095   ZX=     0.8699
   XY=     0.1717   YY=    32.1418   ZY=     3.3957
   XZ=     1.2118   YZ=     2.6203   ZZ=    27.2484
   Eigenvalues:    25.7737    30.4719    34.2301
     41  H    Isotropic =    29.4931   Anisotropy =     3.8862
   XX=    25.7161   YX=    -1.8532   ZX=     0.3134
   XY=    -1.9543   YY=    30.6880   ZY=     1.1546
   XZ=     0.0276   YZ=    -0.9371   ZZ=    32.0753
   Eigenvalues:    25.0654    31.3301    32.0839
     42  H    Isotropic =    25.7532   Anisotropy =     7.1794
   XX=    23.5364   YX=    -1.6704   ZX=    -0.5323
   XY=    -0.2746   YY=    29.9821   ZY=     1.3440
   XZ=    -1.0007   YZ=     1.8110   ZZ=    23.7410
   Eigenvalues:    22.8465    23.8735    30.5395
     43  H    Isotropic =    26.7323   Anisotropy =     6.8881
   XX=    23.4713   YX=     1.4714   ZX=    -0.3266
   XY=    -1.0826   YY=    31.3130   ZY=     0.0720
   XZ=    -0.2156   YZ=     0.3323   ZZ=    25.4125
   Eigenvalues:    23.4280    25.4445    31.3243
     44  H    Isotropic =    26.8263   Anisotropy =     7.4320
   XX=    23.4408   YX=     0.6780   ZX=    -0.0910
   XY=     2.9606   YY=    31.2979   ZY=     0.8995
   XZ=    -0.8265   YZ=     0.7410   ZZ=    25.7403
   Eigenvalues:    22.8999    25.7981    31.7810
 End of Minotr F.D. properties file   721 does not exist.
 End of Minotr F.D. properties file   722 does not exist.
 End of Minotr F.D. properties file   788 does not exist.

 **********************************************************************

            Population analysis using the SCF density.

 **********************************************************************

 Orbital symmetries:
       Occupied  (A) (A) (A) (A) (A) (A) (A) (A) (A) (A) (A) (A)
                 (A) (A) (A) (A) (A) (A) (A) (A) (A) (A) (A) (A)
                 (A) (A) (A) (A) (A) (A) (A) (A) (A) (A) (A) (A)
                 (A) (A) (A) (A) (A) (A) (A) (A) (A) (A) (A) (A)
                 (A) (A) (A) (A) (A) (A) (A) (A) (A) (A) (A) (A)
                 (A) (A) (A) (A) (A) (A) (A) (A) (A) (A) (A) (A)
                 (A) (A)
       Virtual   (A) (A) (A) (A) (A) (A) (A) (A) (A) (A) (A) (A)
                 (A) (A) (A) (A) (A) (A) (A) (A) (A) (A) (A) (A)
                 (A) (A) (A) (A) (A) (A) (A) (A) (A) (A) (A) (A)
                 (A) (A) (A) (A) (A) (A) (A) (A) (A) (A) (A) (A)
                 (A) (A) (A) (A) (A) (A) (A) (A) (A) (A) (A) (A)
                 (A) (A) (A) (A) (A) (A) (A) (A) (A) (A) (A) (A)
                 (A) (A) (A) (A) (A) (A) (A) (A) (A) (A) (A) (A)
                 (A) (A) (A) (A) (A) (A) (A) (A) (A) (A) (A) (A)
                 (A) (A) (A) (A) (A) (A) (A) (A) (A) (A) (A) (A)
                 (A) (A) (A) (A) (A) (A) (A) (A) (A) (A) (A) (A)
                 (A) (A) (A) (A) (A) (A) (A) (A) (A) (A) (A) (A)
                 (A) (A) (A) (A) (A) (A) (A) (A) (A) (A) (A) (A)
                 (A) (A) (A) (A) (A) (A) (A) (A) (A) (A) (A) (A)
                 (A) (A) (A) (A) (A) (A) (A) (A) (A) (A) (A) (A)
                 (A) (A) (A) (A) (A) (A) (A) (A) (A) (A) (A) (A)
                 (A) (A) (A) (A) (A) (A) (A) (A) (A) (A) (A) (A)
                 (A) (A) (A) (A) (A) (A) (A) (A) (A) (A) (A) (A)
                 (A) (A) (A) (A) (A) (A) (A) (A) (A) (A) (A) (A)
                 (A) (A) (A) (A) (A) (A) (A) (A) (A) (A) (A) (A)
                 (A) (A) (A) (A) (A) (A) (A) (A) (A) (A) (A) (A)
                 (A) (A) (A) (A) (A) (A) (A) (A) (A) (A) (A) (A)
                 (A) (A) (A) (A) (A) (A) (A) (A) (A) (A) (A) (A)
                 (A) (A) (A) (A) (A) (A) (A) (A) (A) (A) (A) (A)
                 (A) (A) (A) (A) (A) (A) (A) (A) (A) (A) (A) (A)
                 (A) (A) (A) (A) (A) (A) (A) (A) (A) (A) (A) (A)
                 (A) (A) (A) (A) (A) (A) (A) (A) (A) (A) (A) (A)
                 (A) (A) (A) (A) (A) (A) (A) (A) (A) (A) (A) (A)
                 (A) (A) (A) (A) (A) (A) (A) (A) (A) (A) (A) (A)
 The electronic state is 1-A.
 Alpha  occ. eigenvalues --  -66.27492 -19.25912 -19.20724 -19.19618 -10.36907
 Alpha  occ. eigenvalues --  -10.31780 -10.30776 -10.25489 -10.25055 -10.23992
 Alpha  occ. eigenvalues --  -10.23865 -10.23834 -10.22837 -10.22677 -10.22562
 Alpha  occ. eigenvalues --  -10.21164 -10.20822 -10.20714  -5.33224  -3.67113
 Alpha  occ. eigenvalues --   -3.66819  -3.66802  -1.13179  -1.04796  -1.04066
 Alpha  occ. eigenvalues --   -0.85770  -0.83274  -0.80320  -0.77880  -0.74134
 Alpha  occ. eigenvalues --   -0.72710  -0.72299  -0.70454  -0.70189  -0.66574
 Alpha  occ. eigenvalues --   -0.63268  -0.62393  -0.58199  -0.55863  -0.53527
 Alpha  occ. eigenvalues --   -0.52592  -0.50434  -0.49576  -0.48726  -0.47410
 Alpha  occ. eigenvalues --   -0.46091  -0.45265  -0.44714  -0.44482  -0.43066
 Alpha  occ. eigenvalues --   -0.42659  -0.42579  -0.42259  -0.41486  -0.41297
 Alpha  occ. eigenvalues --   -0.40827  -0.40410  -0.39987  -0.39769  -0.39274
 Alpha  occ. eigenvalues --   -0.38544  -0.37965  -0.37598  -0.36222  -0.36034
 Alpha  occ. eigenvalues --   -0.35903  -0.34076  -0.33574  -0.32671  -0.30915
 Alpha  occ. eigenvalues --   -0.30542  -0.28871  -0.28232  -0.27069
 Alpha virt. eigenvalues --    0.00595   0.01483   0.03494   0.05497   0.05783
 Alpha virt. eigenvalues --    0.06832   0.06974   0.07553   0.08238   0.08471
 Alpha virt. eigenvalues --    0.09564   0.09834   0.10553   0.10908   0.11419
 Alpha virt. eigenvalues --    0.11580   0.12732   0.13073   0.13275   0.13919
 Alpha virt. eigenvalues --    0.13986   0.14230   0.14579   0.15058   0.15714
 Alpha virt. eigenvalues --    0.15946   0.16495   0.16848   0.17345   0.17976
 Alpha virt. eigenvalues --    0.18445   0.19410   0.19907   0.20423   0.21491
 Alpha virt. eigenvalues --    0.21848   0.22532   0.23280   0.24287   0.25243
 Alpha virt. eigenvalues --    0.25690   0.26016   0.26181   0.26775   0.27938
 Alpha virt. eigenvalues --    0.28971   0.30319   0.30782   0.31233   0.32581
 Alpha virt. eigenvalues --    0.33460   0.33895   0.34343   0.35603   0.36357
 Alpha virt. eigenvalues --    0.37126   0.38324   0.38966   0.40152   0.40571
 Alpha virt. eigenvalues --    0.40834   0.41868   0.42294   0.44090   0.44394
 Alpha virt. eigenvalues --    0.44625   0.45341   0.45868   0.47603   0.48665
 Alpha virt. eigenvalues --    0.49829   0.50421   0.50798   0.51606   0.52109
 Alpha virt. eigenvalues --    0.53255   0.54143   0.55254   0.55611   0.56769
 Alpha virt. eigenvalues --    0.57304   0.57623   0.58021   0.58293   0.58918
 Alpha virt. eigenvalues --    0.59097   0.59468   0.60208   0.60343   0.60833
 Alpha virt. eigenvalues --    0.61306   0.61576   0.62149   0.62540   0.62876
 Alpha virt. eigenvalues --    0.62945   0.63587   0.64035   0.64268   0.65255
 Alpha virt. eigenvalues --    0.66298   0.66886   0.67888   0.68086   0.68343
 Alpha virt. eigenvalues --    0.69331   0.69755   0.70260   0.70834   0.71376
 Alpha virt. eigenvalues --    0.71911   0.73380   0.74158   0.74387   0.75190
 Alpha virt. eigenvalues --    0.75977   0.76417   0.77420   0.78180   0.80428
 Alpha virt. eigenvalues --    0.82263   0.83694   0.86009   0.86560   0.87508
 Alpha virt. eigenvalues --    0.89022   0.90132   0.90856   0.92914   0.94292
 Alpha virt. eigenvalues --    0.94377   0.95214   0.96185   0.98558   1.00341
 Alpha virt. eigenvalues --    1.01261   1.02337   1.04203   1.08460   1.09983
 Alpha virt. eigenvalues --    1.11805   1.13915   1.16703   1.17615   1.20662
 Alpha virt. eigenvalues --    1.21141   1.24131   1.25066   1.27451   1.28387
 Alpha virt. eigenvalues --    1.29685   1.30462   1.31659   1.32811   1.33510
 Alpha virt. eigenvalues --    1.35324   1.37012   1.38276   1.40953   1.42003
 Alpha virt. eigenvalues --    1.43162   1.44333   1.44919   1.47416   1.48247
 Alpha virt. eigenvalues --    1.49263   1.50057   1.52398   1.52645   1.54296
 Alpha virt. eigenvalues --    1.54855   1.55563   1.56337   1.57539   1.57962
 Alpha virt. eigenvalues --    1.59363   1.59475   1.59757   1.60138   1.60623
 Alpha virt. eigenvalues --    1.61149   1.61938   1.62524   1.64206   1.64855
 Alpha virt. eigenvalues --    1.65236   1.65657   1.66731   1.68342   1.69102
 Alpha virt. eigenvalues --    1.70032   1.71424   1.72657   1.73636   1.73826
 Alpha virt. eigenvalues --    1.75294   1.76521   1.79036   1.80725   1.81442
 Alpha virt. eigenvalues --    1.81640   1.82531   1.85470   1.86155   1.87544
 Alpha virt. eigenvalues --    1.88657   1.90132   1.92734   1.96683   1.99007
 Alpha virt. eigenvalues --    2.01749   2.04227   2.06116   2.07153   2.12577
 Alpha virt. eigenvalues --    2.14944   2.16806   2.18721   2.22183   2.23765
 Alpha virt. eigenvalues --    2.27831   2.30678   2.33948   2.35012   2.40688
 Alpha virt. eigenvalues --    2.41329   2.41931   2.42166   2.42731   2.43123
 Alpha virt. eigenvalues --    2.43559   2.44683   2.45419   2.46339   2.47122
 Alpha virt. eigenvalues --    2.47742   2.48631   2.49541   2.51003   2.51550
 Alpha virt. eigenvalues --    2.52398   2.54033   2.55589   2.57524   2.60119
 Alpha virt. eigenvalues --    2.62352   2.62841   2.66504   2.72626   2.81552
 Alpha virt. eigenvalues --    2.82580   2.87119   2.88264   2.89724   2.90837
 Alpha virt. eigenvalues --    2.92449   2.92927   2.94068   2.94319   2.96273
 Alpha virt. eigenvalues --    2.96745   3.00418   3.01197   3.02743   3.06876
 Alpha virt. eigenvalues --    3.08107   3.11604   3.12749   3.13350   3.15020
 Alpha virt. eigenvalues --    3.16196   3.16754   3.17357   3.19203   3.21181
 Alpha virt. eigenvalues --    3.22101   3.22498   3.23346   3.23441   3.24441
 Alpha virt. eigenvalues --    3.26620   3.28020   3.28385   3.29293   3.32158
 Alpha virt. eigenvalues --    3.33028   3.34922   3.36354   3.38524   3.40351
 Alpha virt. eigenvalues --    3.45216   3.51707   3.57422   3.60273   3.61610
 Alpha virt. eigenvalues --    3.77322   3.87649   3.89692   3.98789   4.03972
 Alpha virt. eigenvalues --    4.10388   4.11950   4.16780   4.23085   4.24932
 Alpha virt. eigenvalues --    4.95563   5.01120   5.02419   5.10929   5.15336
 Alpha virt. eigenvalues --    5.22145   5.52260   5.56866   5.76762   5.84861
 Alpha virt. eigenvalues --   11.52388  11.53300  11.56719  23.41911  23.49520
 Alpha virt. eigenvalues --   23.54268  23.54383  23.56238  23.59520  23.71262
 Alpha virt. eigenvalues --   23.72736  23.77942  23.80573  23.84215  23.85207
 Alpha virt. eigenvalues --   23.90231  24.29554  49.99051  50.06009  50.12894
 Alpha virt. eigenvalues --  141.27631
          Condensed to atoms (all electrons):
               1          2          3          4          5          6
     1  C    5.193278   0.226054  -0.041320  -0.014610  -0.047091   0.394853
     2  C    0.226054   5.562812   0.325715  -0.086535  -0.004297  -0.049413
     3  C   -0.041320   0.325715   5.163043   0.243971  -0.027670  -0.006224
     4  C   -0.014610  -0.086535   0.243971   5.898963   0.240698   0.000704
     5  C   -0.047091  -0.004297  -0.027670   0.240698   4.398793   0.001911
     6  H    0.394853  -0.049413  -0.006224   0.000704   0.001911   0.473954
     7  H   -0.053218   0.409807  -0.055944  -0.008324   0.002105   0.006043
     8  H    0.000614  -0.006923  -0.031737   0.359032  -0.023946   0.000043
     9  H   -0.000014   0.006229  -0.030152   0.362337  -0.025375   0.000152
    10  O    0.227450  -0.042172   0.013329  -0.117603   0.333390  -0.029446
    11  O    0.002809  -0.000083   0.002777  -0.095391   0.677746  -0.000247
    12  C    0.338749  -0.061066   0.006065  -0.000962  -0.002826  -0.043931
    13  C   -0.063677  -0.000287   0.000142   0.000098   0.000018  -0.000181
    14  C   -0.058331   0.297263  -0.060577   0.007697  -0.000067  -0.002690
    15  O    0.003927  -0.050393   0.217989  -0.024230   0.001882  -0.000130
    16  Si   0.002212  -0.010264  -0.042393  -0.008848   0.001275  -0.000179
    17  C    0.000007  -0.000228  -0.000419  -0.000431   0.000003   0.000000
    18  C   -0.000118   0.000768  -0.000405  -0.001290  -0.000029  -0.000001
    19  C   -0.000001  -0.000125   0.002241  -0.000099   0.000001   0.000000
    20  H   -0.000002   0.000142  -0.000052   0.000051   0.000001   0.000000
    21  H   -0.000126   0.000060   0.000448   0.000282   0.000011   0.000001
    22  H   -0.000069   0.000318   0.000014   0.000274  -0.000001   0.000002
    23  H    0.000000  -0.000001  -0.000059  -0.000001   0.000000   0.000000
    24  H   -0.000001   0.000023  -0.000045  -0.000021   0.000000   0.000000
    25  H    0.000000  -0.000023  -0.000101  -0.000038   0.000000   0.000000
    26  H    0.000000   0.000003  -0.000040   0.000124   0.000000   0.000000
    27  H    0.000002  -0.000043   0.000497  -0.000317  -0.000023   0.000000
    28  H    0.000006  -0.000013  -0.000049   0.001410  -0.000028   0.000000
    29  H    0.006512  -0.036755  -0.007820   0.000588  -0.000070   0.000366
    30  H   -0.002302  -0.034410   0.007271  -0.000273   0.000000  -0.000944
    31  H   -0.005693  -0.037082  -0.011069  -0.000217   0.000080   0.005118
    32  H   -0.050302   0.009832  -0.000270   0.000624   0.000196  -0.006006
    33  H   -0.040996  -0.009520  -0.001630   0.000365   0.001014   0.007290
    34  H   -0.002576  -0.002481  -0.000123  -0.000004  -0.000003   0.004857
    35  H   -0.007938   0.006091   0.000161  -0.000010   0.000000  -0.000255
    36  H    0.007074  -0.000425   0.000031  -0.000007  -0.000010  -0.000318
    37  C    0.000739  -0.093150   0.278846  -0.097300  -0.003131   0.002637
    38  C   -0.000738   0.009598  -0.058635  -0.016076  -0.000642  -0.000052
    39  C   -0.000017   0.000021  -0.002672   0.000085   0.000782   0.000019
    40  H   -0.000615  -0.006402  -0.024479  -0.004136   0.000488  -0.002214
    41  H   -0.000082  -0.010252  -0.042329   0.007228  -0.000222  -0.000163
    42  H    0.000004  -0.000165  -0.001645  -0.000037   0.000084   0.000000
    43  H    0.000000   0.000018  -0.000309   0.000049   0.000012   0.000000
    44  H   -0.000003  -0.000009  -0.000184   0.000002   0.000761   0.000024
               7          8          9         10         11         12
     1  C   -0.053218   0.000614  -0.000014   0.227450   0.002809   0.338749
     2  C    0.409807  -0.006923   0.006229  -0.042172  -0.000083  -0.061066
     3  C   -0.055944  -0.031737  -0.030152   0.013329   0.002777   0.006065
     4  C   -0.008324   0.359032   0.362337  -0.117603  -0.095391  -0.000962
     5  C    0.002105  -0.023946  -0.025375   0.333390   0.677746  -0.002826
     6  H    0.006043   0.000043   0.000152  -0.029446  -0.000247  -0.043931
     7  H    0.470352   0.001963   0.000108   0.002434  -0.000009  -0.004886
     8  H    0.001963   0.422537  -0.014332   0.002287   0.001858   0.000512
     9  H    0.000108  -0.014332   0.401619   0.004353   0.009662  -0.000040
    10  O    0.002434   0.002287   0.004353   8.045171  -0.077499  -0.055671
    11  O   -0.000009   0.001858   0.009662  -0.077499   7.858470  -0.000251
    12  C   -0.004886   0.000512  -0.000040  -0.055671  -0.000251   5.308987
    13  C   -0.000695  -0.000060   0.000003   0.004523  -0.000002   0.277811
    14  C   -0.039807   0.000251  -0.000187   0.002612   0.000005   0.000753
    15  O   -0.002586  -0.003884  -0.000622  -0.000004  -0.000018  -0.000067
    16  Si  -0.002283   0.002523  -0.003557  -0.000395  -0.000411  -0.000307
    17  C   -0.000206  -0.000227  -0.001899  -0.000001  -0.000001   0.000000
    18  C   -0.004070   0.002393   0.000200   0.000002   0.000001   0.000054
    19  C   -0.000165  -0.000017  -0.000036   0.000000   0.000000   0.000000
    20  H    0.000558  -0.000009  -0.000005   0.000000   0.000000  -0.000001
    21  H   -0.001172   0.004225   0.000006  -0.000002   0.000003   0.000135
    22  H   -0.000946  -0.000361   0.000010   0.000000   0.000000   0.000034
    23  H    0.000002   0.000005  -0.000001   0.000000   0.000000   0.000000
    24  H   -0.000028  -0.000004  -0.000004   0.000000   0.000000   0.000000
    25  H    0.000000   0.000000  -0.000014   0.000000   0.000000   0.000000
    26  H    0.000005  -0.000027   0.000176   0.000000   0.000000   0.000000
    27  H    0.000001   0.000018   0.000145   0.000000   0.000001   0.000000
    28  H   -0.000024   0.000622  -0.000320  -0.000001  -0.000034   0.000000
    29  H   -0.003304   0.000023  -0.000003  -0.000124   0.000000  -0.000455
    30  H   -0.007398  -0.000029   0.000012  -0.000065   0.000000  -0.001133
    31  H    0.007100  -0.000011   0.000009  -0.000002   0.000002   0.000389
    32  H    0.000415  -0.000052  -0.000022   0.004428  -0.000013   0.401017
    33  H    0.004165   0.000751   0.000085   0.002404  -0.000227   0.387401
    34  H    0.000325   0.000004   0.000000  -0.000028   0.000000  -0.043091
    35  H    0.002635   0.000003   0.000000  -0.000044   0.000000  -0.034531
    36  H   -0.000323   0.000002   0.000000  -0.000166   0.000000  -0.031640
    37  C    0.008358   0.006307  -0.006478  -0.005997   0.000803   0.000089
    38  C   -0.000280   0.000102   0.007742   0.000421  -0.000502   0.000007
    39  C   -0.000004   0.000009   0.003820  -0.000129   0.000198  -0.000001
    40  H   -0.000301   0.000070  -0.000589   0.008775  -0.001089   0.000933
    41  H   -0.000283  -0.000164   0.000271   0.000166  -0.000002  -0.000040
    42  H    0.000015   0.000020  -0.000338  -0.000007   0.000001   0.000001
    43  H   -0.000001  -0.000003   0.000155  -0.000002   0.000013   0.000000
    44  H    0.000005   0.000008  -0.000021  -0.000288   0.000963  -0.000002
              13         14         15         16         17         18
     1  C   -0.063677  -0.058331   0.003927   0.002212   0.000007  -0.000118
     2  C   -0.000287   0.297263  -0.050393  -0.010264  -0.000228   0.000768
     3  C    0.000142  -0.060577   0.217989  -0.042393  -0.000419  -0.000405
     4  C    0.000098   0.007697  -0.024230  -0.008848  -0.000431  -0.001290
     5  C    0.000018  -0.000067   0.001882   0.001275   0.000003  -0.000029
     6  H   -0.000181  -0.002690  -0.000130  -0.000179   0.000000  -0.000001
     7  H   -0.000695  -0.039807  -0.002586  -0.002283  -0.000206  -0.004070
     8  H   -0.000060   0.000251  -0.003884   0.002523  -0.000227   0.002393
     9  H    0.000003  -0.000187  -0.000622  -0.003557  -0.001899   0.000200
    10  O    0.004523   0.002612  -0.000004  -0.000395  -0.000001   0.000002
    11  O   -0.000002   0.000005  -0.000018  -0.000411  -0.000001   0.000001
    12  C    0.277811   0.000753  -0.000067  -0.000307   0.000000   0.000054
    13  C    5.384841  -0.004481  -0.000001  -0.000021   0.000000  -0.000027
    14  C   -0.004481   5.400717  -0.004206  -0.000569   0.000004   0.000469
    15  O   -0.000001  -0.004206   8.287871   0.347891  -0.023710  -0.023753
    16  Si  -0.000021  -0.000569   0.347891  11.505109   0.319043   0.309121
    17  C    0.000000   0.000004  -0.023710   0.319043   5.763443  -0.054640
    18  C   -0.000027   0.000469  -0.023753   0.309121  -0.054640   5.790660
    19  C    0.000000  -0.000095  -0.029965   0.337399  -0.045857  -0.044890
    20  H    0.000000  -0.000012   0.000834  -0.010452   0.000317   0.363153
    21  H   -0.000013   0.000094  -0.001431  -0.027968  -0.000887   0.368624
    22  H    0.000023   0.000297  -0.002093  -0.026397   0.002174   0.371108
    23  H    0.000000  -0.000001   0.001186  -0.014520   0.000689   0.000226
    24  H    0.000000   0.000104  -0.001792  -0.024656   0.002114  -0.000728
    25  H    0.000000  -0.000006  -0.001566  -0.023227  -0.000476   0.002130
    26  H    0.000000   0.000000   0.000941  -0.011728   0.361814   0.000669
    27  H    0.000000   0.000001  -0.002357  -0.025067   0.370445   0.001959
    28  H    0.000000   0.000001  -0.001304  -0.026833   0.371893  -0.001060
    29  H    0.000219   0.385128   0.008985   0.002627   0.000042  -0.000014
    30  H    0.001240   0.388401  -0.000018  -0.000126   0.000000   0.000023
    31  H    0.000023   0.386594   0.000012  -0.000130   0.000000   0.000001
    32  H   -0.035820  -0.000807   0.000006   0.000040   0.000000   0.000000
    33  H   -0.037526   0.000812  -0.000035  -0.000306   0.000000   0.000120
    34  H    0.385700   0.000685   0.000000  -0.000004   0.000000   0.000000
    35  H    0.382573  -0.003969  -0.000004  -0.000024   0.000000   0.000123
    36  H    0.387470   0.000393   0.000000  -0.000002   0.000000  -0.000001
    37  C   -0.000018  -0.008637  -0.082285  -0.000667   0.000016  -0.000313
    38  C    0.000000  -0.000246   0.009339   0.001618  -0.000266   0.000028
    39  C    0.000000  -0.000011   0.000972   0.000638  -0.000030   0.000001
    40  H   -0.000059   0.001105   0.003508   0.000126   0.000002   0.000011
    41  H   -0.000001   0.002600   0.002474   0.000095   0.000022   0.000012
    42  H    0.000000  -0.000012   0.003277   0.000829   0.000463   0.000020
    43  H    0.000000   0.000000   0.000012   0.000010   0.000003   0.000000
    44  H    0.000000  -0.000009   0.000001   0.000000  -0.000001   0.000000
              19         20         21         22         23         24
     1  C   -0.000001  -0.000002  -0.000126  -0.000069   0.000000  -0.000001
     2  C   -0.000125   0.000142   0.000060   0.000318  -0.000001   0.000023
     3  C    0.002241  -0.000052   0.000448   0.000014  -0.000059  -0.000045
     4  C   -0.000099   0.000051   0.000282   0.000274  -0.000001  -0.000021
     5  C    0.000001   0.000001   0.000011  -0.000001   0.000000   0.000000
     6  H    0.000000   0.000000   0.000001   0.000002   0.000000   0.000000
     7  H   -0.000165   0.000558  -0.001172  -0.000946   0.000002  -0.000028
     8  H   -0.000017  -0.000009   0.004225  -0.000361   0.000005  -0.000004
     9  H   -0.000036  -0.000005   0.000006   0.000010  -0.000001  -0.000004
    10  O    0.000000   0.000000  -0.000002   0.000000   0.000000   0.000000
    11  O    0.000000   0.000000   0.000003   0.000000   0.000000   0.000000
    12  C    0.000000  -0.000001   0.000135   0.000034   0.000000   0.000000
    13  C    0.000000   0.000000  -0.000013   0.000023   0.000000   0.000000
    14  C   -0.000095  -0.000012   0.000094   0.000297  -0.000001   0.000104
    15  O   -0.029965   0.000834  -0.001431  -0.002093   0.001186  -0.001792
    16  Si   0.337399  -0.010452  -0.027968  -0.026397  -0.014520  -0.024656
    17  C   -0.045857   0.000317  -0.000887   0.002174   0.000689   0.002114
    18  C   -0.044890   0.363153   0.368624   0.371108   0.000226  -0.000728
    19  C    5.719425  -0.000500   0.002368  -0.000413   0.360992   0.369534
    20  H   -0.000500   0.443108  -0.021074  -0.021823   0.000604  -0.000053
    21  H    0.002368  -0.021074   0.449043  -0.019774  -0.000071  -0.000079
    22  H   -0.000413  -0.021823  -0.019774   0.451900  -0.000055   0.001242
    23  H    0.360992   0.000604  -0.000071  -0.000055   0.460944  -0.021727
    24  H    0.369534  -0.000053  -0.000079   0.001242  -0.021727   0.453754
    25  H    0.370338  -0.000074  -0.000086  -0.000068  -0.021603  -0.019380
    26  H   -0.000332   0.000414   0.000031  -0.000051   0.000697  -0.000044
    27  H   -0.000351  -0.000043  -0.000049  -0.000091  -0.000003  -0.000073
    28  H    0.002226   0.000037   0.000866  -0.000029  -0.000058  -0.000092
    29  H    0.000161  -0.000003  -0.000007   0.000204  -0.000005   0.000647
    30  H   -0.000002  -0.000001   0.000004   0.000057   0.000000  -0.000002
    31  H    0.000003   0.000000  -0.000002  -0.000008   0.000000  -0.000009
    32  H    0.000000   0.000000  -0.000005  -0.000001   0.000000   0.000000
    33  H    0.000000  -0.000003   0.000226   0.000028   0.000000   0.000000
    34  H    0.000000   0.000000   0.000000  -0.000003   0.000000   0.000000
    35  H    0.000000  -0.000005   0.000024   0.000195   0.000000   0.000000
    36  H    0.000000   0.000000   0.000000  -0.000001   0.000000   0.000000
    37  C    0.000054   0.000006  -0.000073  -0.000078   0.000003  -0.000005
    38  C   -0.000077   0.000000   0.000008   0.000006  -0.000001   0.000006
    39  C   -0.000002   0.000000   0.000000   0.000000   0.000000   0.000000
    40  H    0.000003   0.000000   0.000003   0.000001   0.000000  -0.000001
    41  H   -0.000059   0.000000   0.000001   0.000002   0.000001  -0.000016
    42  H    0.000097   0.000000   0.000002   0.000000  -0.000008  -0.000018
    43  H    0.000000   0.000000   0.000000   0.000000   0.000000   0.000000
    44  H    0.000000   0.000000   0.000000   0.000000   0.000000   0.000000
              25         26         27         28         29         30
     1  C    0.000000   0.000000   0.000002   0.000006   0.006512  -0.002302
     2  C   -0.000023   0.000003  -0.000043  -0.000013  -0.036755  -0.034410
     3  C   -0.000101  -0.000040   0.000497  -0.000049  -0.007820   0.007271
     4  C   -0.000038   0.000124  -0.000317   0.001410   0.000588  -0.000273
     5  C    0.000000   0.000000  -0.000023  -0.000028  -0.000070   0.000000
     6  H    0.000000   0.000000   0.000000   0.000000   0.000366  -0.000944
     7  H    0.000000   0.000005   0.000001  -0.000024  -0.003304  -0.007398
     8  H    0.000000  -0.000027   0.000018   0.000622   0.000023  -0.000029
     9  H   -0.000014   0.000176   0.000145  -0.000320  -0.000003   0.000012
    10  O    0.000000   0.000000   0.000000  -0.000001  -0.000124  -0.000065
    11  O    0.000000   0.000000   0.000001  -0.000034   0.000000   0.000000
    12  C    0.000000   0.000000   0.000000   0.000000  -0.000455  -0.001133
    13  C    0.000000   0.000000   0.000000   0.000000   0.000219   0.001240
    14  C   -0.000006   0.000000   0.000001   0.000001   0.385128   0.388401
    15  O   -0.001566   0.000941  -0.002357  -0.001304   0.008985  -0.000018
    16  Si  -0.023227  -0.011728  -0.025067  -0.026833   0.002627  -0.000126
    17  C   -0.000476   0.361814   0.370445   0.371893   0.000042   0.000000
    18  C    0.002130   0.000669   0.001959  -0.001060  -0.000014   0.000023
    19  C    0.370338  -0.000332  -0.000351   0.002226   0.000161  -0.000002
    20  H   -0.000074   0.000414  -0.000043   0.000037  -0.000003  -0.000001
    21  H   -0.000086   0.000031  -0.000049   0.000866  -0.000007   0.000004
    22  H   -0.000068  -0.000051  -0.000091  -0.000029   0.000204   0.000057
    23  H   -0.021603   0.000697  -0.000003  -0.000058  -0.000005   0.000000
    24  H   -0.019380  -0.000044  -0.000073  -0.000092   0.000647  -0.000002
    25  H    0.451846  -0.000103   0.001044  -0.000071  -0.000019   0.000000
    26  H   -0.000103   0.453878  -0.021178  -0.022671   0.000000   0.000000
    27  H    0.001044  -0.021178   0.448236  -0.019513   0.000002   0.000000
    28  H   -0.000071  -0.022671  -0.019513   0.450614   0.000001   0.000000
    29  H   -0.000019   0.000000   0.000002   0.000001   0.435527  -0.022723
    30  H    0.000000   0.000000   0.000000   0.000000  -0.022723   0.448191
    31  H    0.000000   0.000000   0.000000   0.000000  -0.023893  -0.026195
    32  H    0.000000   0.000000   0.000000   0.000000   0.000034  -0.000079
    33  H    0.000000   0.000000   0.000000  -0.000002   0.000020  -0.000033
    34  H    0.000000   0.000000   0.000000   0.000000   0.000037  -0.000159
    35  H    0.000000   0.000000   0.000000   0.000000   0.000268   0.001421
    36  H    0.000000   0.000000   0.000000   0.000000  -0.000023   0.000448
    37  C    0.000106  -0.000001   0.000141  -0.000005  -0.001212  -0.000039
    38  C   -0.000029   0.000008   0.000409  -0.000069  -0.000218   0.000014
    39  C   -0.000003   0.000000   0.000024  -0.000022   0.000004   0.000000
    40  H   -0.000001   0.000000   0.000002   0.000003  -0.000023  -0.000041
    41  H   -0.000012   0.000000   0.000010   0.000000   0.000625   0.000328
    42  H    0.000180   0.000000   0.000939  -0.000028   0.000014  -0.000001
    43  H   -0.000001   0.000000  -0.000002   0.000002   0.000000   0.000000
    44  H    0.000000   0.000000   0.000001   0.000000   0.000001   0.000000
              31         32         33         34         35         36
     1  C   -0.005693  -0.050302  -0.040996  -0.002576  -0.007938   0.007074
     2  C   -0.037082   0.009832  -0.009520  -0.002481   0.006091  -0.000425
     3  C   -0.011069  -0.000270  -0.001630  -0.000123   0.000161   0.000031
     4  C   -0.000217   0.000624   0.000365  -0.000004  -0.000010  -0.000007
     5  C    0.000080   0.000196   0.001014  -0.000003   0.000000  -0.000010
     6  H    0.005118  -0.006006   0.007290   0.004857  -0.000255  -0.000318
     7  H    0.007100   0.000415   0.004165   0.000325   0.002635  -0.000323
     8  H   -0.000011  -0.000052   0.000751   0.000004   0.000003   0.000002
     9  H    0.000009  -0.000022   0.000085   0.000000   0.000000   0.000000
    10  O   -0.000002   0.004428   0.002404  -0.000028  -0.000044  -0.000166
    11  O    0.000002  -0.000013  -0.000227   0.000000   0.000000   0.000000
    12  C    0.000389   0.401017   0.387401  -0.043091  -0.034531  -0.031640
    13  C    0.000023  -0.035820  -0.037526   0.385700   0.382573   0.387470
    14  C    0.386594  -0.000807   0.000812   0.000685  -0.003969   0.000393
    15  O    0.000012   0.000006  -0.000035   0.000000  -0.000004   0.000000
    16  Si  -0.000130   0.000040  -0.000306  -0.000004  -0.000024  -0.000002
    17  C    0.000000   0.000000   0.000000   0.000000   0.000000   0.000000
    18  C    0.000001   0.000000   0.000120   0.000000   0.000123  -0.000001
    19  C    0.000003   0.000000   0.000000   0.000000   0.000000   0.000000
    20  H    0.000000   0.000000  -0.000003   0.000000  -0.000005   0.000000
    21  H   -0.000002  -0.000005   0.000226   0.000000   0.000024   0.000000
    22  H   -0.000008  -0.000001   0.000028  -0.000003   0.000195  -0.000001
    23  H    0.000000   0.000000   0.000000   0.000000   0.000000   0.000000
    24  H   -0.000009   0.000000   0.000000   0.000000   0.000000   0.000000
    25  H    0.000000   0.000000   0.000000   0.000000   0.000000   0.000000
    26  H    0.000000   0.000000   0.000000   0.000000   0.000000   0.000000
    27  H    0.000000   0.000000   0.000000   0.000000   0.000000   0.000000
    28  H    0.000000   0.000000  -0.000002   0.000000   0.000000   0.000000
    29  H   -0.023893   0.000034   0.000020   0.000037   0.000268  -0.000023
    30  H   -0.026195  -0.000079  -0.000033  -0.000159   0.001421   0.000448
    31  H    0.466071   0.000018   0.000008   0.000062   0.000120  -0.000030
    32  H    0.000018   0.468897  -0.029985  -0.004145   0.006033  -0.006346
    33  H    0.000008  -0.029985   0.488796   0.007030  -0.005508  -0.004200
    34  H    0.000062  -0.004145   0.007030   0.476333  -0.028885  -0.025938
    35  H    0.000120   0.006033  -0.005508  -0.028885   0.473859  -0.026456
    36  H   -0.000030  -0.006346  -0.004200  -0.025938  -0.026456   0.460718
    37  C    0.004371   0.000015   0.000052   0.000001   0.000000   0.000000
    38  C    0.000170  -0.000002  -0.000001   0.000000   0.000000   0.000000
    39  C   -0.000009   0.000000   0.000000   0.000000   0.000000   0.000000
    40  H   -0.000156   0.000001  -0.000053  -0.000008  -0.000003   0.000002
    41  H   -0.000886   0.000000  -0.000001   0.000000   0.000000   0.000000
    42  H    0.000009   0.000000   0.000000   0.000000   0.000000   0.000000
    43  H    0.000000   0.000000   0.000000   0.000000   0.000000   0.000000
    44  H    0.000004   0.000000   0.000000   0.000000   0.000000   0.000000
              37         38         39         40         41         42
     1  C    0.000739  -0.000738  -0.000017  -0.000615  -0.000082   0.000004
     2  C   -0.093150   0.009598   0.000021  -0.006402  -0.010252  -0.000165
     3  C    0.278846  -0.058635  -0.002672  -0.024479  -0.042329  -0.001645
     4  C   -0.097300  -0.016076   0.000085  -0.004136   0.007228  -0.000037
     5  C   -0.003131  -0.000642   0.000782   0.000488  -0.000222   0.000084
     6  H    0.002637  -0.000052   0.000019  -0.002214  -0.000163   0.000000
     7  H    0.008358  -0.000280  -0.000004  -0.000301  -0.000283   0.000015
     8  H    0.006307   0.000102   0.000009   0.000070  -0.000164   0.000020
     9  H   -0.006478   0.007742   0.003820  -0.000589   0.000271  -0.000338
    10  O   -0.005997   0.000421  -0.000129   0.008775   0.000166  -0.000007
    11  O    0.000803  -0.000502   0.000198  -0.001089  -0.000002   0.000001
    12  C    0.000089   0.000007  -0.000001   0.000933  -0.000040   0.000001
    13  C   -0.000018   0.000000   0.000000  -0.000059  -0.000001   0.000000
    14  C   -0.008637  -0.000246  -0.000011   0.001105   0.002600  -0.000012
    15  O   -0.082285   0.009339   0.000972   0.003508   0.002474   0.003277
    16  Si  -0.000667   0.001618   0.000638   0.000126   0.000095   0.000829
    17  C    0.000016  -0.000266  -0.000030   0.000002   0.000022   0.000463
    18  C   -0.000313   0.000028   0.000001   0.000011   0.000012   0.000020
    19  C    0.000054  -0.000077  -0.000002   0.000003  -0.000059   0.000097
    20  H    0.000006   0.000000   0.000000   0.000000   0.000000   0.000000
    21  H   -0.000073   0.000008   0.000000   0.000003   0.000001   0.000002
    22  H   -0.000078   0.000006   0.000000   0.000001   0.000002   0.000000
    23  H    0.000003  -0.000001   0.000000   0.000000   0.000001  -0.000008
    24  H   -0.000005   0.000006   0.000000  -0.000001  -0.000016  -0.000018
    25  H    0.000106  -0.000029  -0.000003  -0.000001  -0.000012   0.000180
    26  H   -0.000001   0.000008   0.000000   0.000000   0.000000   0.000000
    27  H    0.000141   0.000409   0.000024   0.000002   0.000010   0.000939
    28  H   -0.000005  -0.000069  -0.000022   0.000003   0.000000  -0.000028
    29  H   -0.001212  -0.000218   0.000004  -0.000023   0.000625   0.000014
    30  H   -0.000039   0.000014   0.000000  -0.000041   0.000328  -0.000001
    31  H    0.004371   0.000170  -0.000009  -0.000156  -0.000886   0.000009
    32  H    0.000015  -0.000002   0.000000   0.000001   0.000000   0.000000
    33  H    0.000052  -0.000001   0.000000  -0.000053  -0.000001   0.000000
    34  H    0.000001   0.000000   0.000000  -0.000008   0.000000   0.000000
    35  H    0.000000   0.000000   0.000000  -0.000003   0.000000   0.000000
    36  H    0.000000   0.000000   0.000000   0.000002   0.000000   0.000000
    37  C    5.509349   0.323466  -0.060882   0.377924   0.390670  -0.046532
    38  C    0.323466   5.067932   0.614622  -0.046039  -0.037934   0.396893
    39  C   -0.060882   0.614622   5.149589   0.001840   0.000340  -0.041154
    40  H    0.377924  -0.046039   0.001840   0.453071  -0.019435   0.004950
    41  H    0.390670  -0.037934   0.000340  -0.019435   0.446262  -0.001734
    42  H   -0.046532   0.396893  -0.041154   0.004950  -0.001734   0.462564
    43  H    0.006315  -0.039371   0.392487   0.000086  -0.000324  -0.007923
    44  H   -0.008365  -0.039113   0.386598   0.003883   0.000108   0.005888
              43         44
     1  C    0.000000  -0.000003
     2  C    0.000018  -0.000009
     3  C   -0.000309  -0.000184
     4  C    0.000049   0.000002
     5  C    0.000012   0.000761
     6  H    0.000000   0.000024
     7  H   -0.000001   0.000005
     8  H   -0.000003   0.000008
     9  H    0.000155  -0.000021
    10  O   -0.000002  -0.000288
    11  O    0.000013   0.000963
    12  C    0.000000  -0.000002
    13  C    0.000000   0.000000
    14  C    0.000000  -0.000009
    15  O    0.000012   0.000001
    16  Si   0.000010   0.000000
    17  C    0.000003  -0.000001
    18  C    0.000000   0.000000
    19  C    0.000000   0.000000
    20  H    0.000000   0.000000
    21  H    0.000000   0.000000
    22  H    0.000000   0.000000
    23  H    0.000000   0.000000
    24  H    0.000000   0.000000
    25  H   -0.000001   0.000000
    26  H    0.000000   0.000000
    27  H   -0.000002   0.000001
    28  H    0.000002   0.000000
    29  H    0.000000   0.000001
    30  H    0.000000   0.000000
    31  H    0.000000   0.000004
    32  H    0.000000   0.000000
    33  H    0.000000   0.000000
    34  H    0.000000   0.000000
    35  H    0.000000   0.000000
    36  H    0.000000   0.000000
    37  C    0.006315  -0.008365
    38  C   -0.039371  -0.039113
    39  C    0.392487   0.386598
    40  H    0.000086   0.003883
    41  H   -0.000324   0.000108
    42  H   -0.007923   0.005888
    43  H    0.457262  -0.033705
    44  H   -0.033705   0.459996
 Mulliken charges:
               1
     1  C   -0.014444
     2  C   -0.312238
     3  C    0.185813
     4  C   -0.647822
     5  C    0.474181
     6  H    0.244422
     7  H    0.269859
     8  H    0.275605
     9  H    0.286912
    10  O   -0.322100
    11  O   -0.379531
    12  C   -0.442037
    13  C   -0.681815
    14  C   -0.691263
    15  O   -0.634652
    16  Si   1.430776
    17  C   -1.063217
    18  C   -1.080539
    19  C   -1.041858
    20  H    0.244887
    21  H    0.246355
    22  H    0.244374
    23  H    0.232766
    24  H    0.241352
    25  H    0.241256
    26  H    0.237415
    27  H    0.245231
    28  H    0.244548
    29  H    0.254636
    30  H    0.248561
    31  H    0.235229
    32  H    0.242299
    33  H    0.229457
    34  H    0.232411
    35  H    0.234127
    36  H    0.239748
    37  C   -0.495096
    38  C   -0.192100
    39  C   -0.447115
    40  H    0.248859
    41  H    0.262721
    42  H    0.223352
    43  H    0.225217
    44  H    0.223458
 Sum of Mulliken charges =   0.00000
 Mulliken charges with hydrogens summed into heavy atoms:
               1
     1  C    0.229979
     2  C   -0.042379
     3  C    0.185813
     4  C   -0.085305
     5  C    0.474181
    10  O   -0.322100
    11  O   -0.379531
    12  C    0.029718
    13  C    0.024471
    14  C    0.047163
    15  O   -0.634652
    16  Si   1.430776
    17  C   -0.336023
    18  C   -0.344923
    19  C   -0.326485
    37  C    0.016484
    38  C    0.031253
    39  C    0.001560
 Electronic spatial extent (au):  <R**2>=           5361.6309
 Charge=              0.0000 electrons
 Dipole moment (field-independent basis, Debye):
    X=             -1.8154    Y=             -4.9149    Z=              1.9419  Tot=              5.5878
 Quadrupole moment (field-independent basis, Debye-Ang):
   XX=           -118.1497   YY=           -123.8876   ZZ=           -124.6213
   XY=             -9.9161   XZ=             10.2299   YZ=              8.1099
 Traceless Quadrupole moment (field-independent basis, Debye-Ang):
   XX=              4.0698   YY=             -1.6681   ZZ=             -2.4018
   XY=             -9.9161   XZ=             10.2299   YZ=              8.1099
 Octapole moment (field-independent basis, Debye-Ang**2):
  XXX=             -4.6607  YYY=             -7.8915  ZZZ=              2.9037  XYY=            -13.6058
  XXY=            -28.8638  XXZ=              9.7665  XZZ=             -2.9530  YZZ=            -23.3663
  YYZ=             16.2368  XYZ=             14.6388
 Hexadecapole moment (field-independent basis, Debye-Ang**3):
 XXXX=          -3625.7878 YYYY=          -2465.4570 ZZZZ=          -1150.0135 XXXY=            -47.9682
 XXXZ=             50.2214 YYYX=            -40.6143 YYYZ=             15.7586 ZZZX=             14.8780
 ZZZY=              2.6685 XXYY=          -1021.4150 XXZZ=           -824.4000 YYZZ=           -676.4665
 XXYZ=             64.9040 YYXZ=             34.5493 ZZXY=            -21.9568
 N-N= 1.631134364432D+03 E-N=-5.757405983517D+03  KE= 1.060527721953D+03
 1\1\GINC-CPU-E-611\SP\RmPW1PW91\6-311G(d)\C14H26O3Si1\KE291\06-Feb-201
 9\0\\# mPW1PW91/6-311g(d) geom=checkpoint nmr=giao scrf=(solvent=chlor
 oform)\\P_ng_2ginp013\\0,1\C,0,0.0677081073,0.1193548799,1.1443152248\
 C,0,-0.8635419421,1.1682367957,0.4781895413\C,0,-2.1384021121,1.467930
 562,1.3172212515\C,0,-1.6698746889,1.7796395498,2.7467759494\C,0,-0.92
 33741258,0.6228668817,3.3749541081\H,0,-0.0886698147,-0.8507902984,0.6
 603033429\H,0,-0.3202574152,2.1218326911,0.4556189174\H,0,-0.995494199
 2,2.6447455651,2.7337620875\H,0,-2.5060864209,2.0177192449,3.405019632
 5\O,0,-0.2143176432,-0.1770742851,2.5521270072\O,0,-0.9505457032,0.370
 130923,4.560841474\C,0,1.5615112851,0.4721406075,1.0985372233\C,0,2.17
 28946087,0.576115427,-0.3019050447\C,0,-1.1817036499,0.7756374138,-0.9
 730050023\O,0,-2.8258188494,2.5716287213,0.7348624559\Si,0,-2.77634309
 52,4.2496880112,0.8497123189\C,0,-3.4740499597,4.842361563,2.499570973
 \C,0,-1.0358645144,4.9428312105,0.6060431843\C,0,-3.8862323599,4.81796
 76466,-0.5581916517\H,0,-1.0769810598,6.038639686,0.6023526184\H,0,-0.
 3410486569,4.6498759885,1.4001089888\H,0,-0.6072898167,4.6270829639,-0
 .3510817552\H,0,-3.9597539172,5.9110369749,-0.5787430641\H,0,-3.494250
 1398,4.4898770054,-1.5264956045\H,0,-4.8994191456,4.4165449848,-0.4528
 406354\H,0,-3.5906725408,5.932419947,2.4867628859\H,0,-4.4604090065,4.
 405788662,2.689051049\H,0,-2.8275287094,4.5913263836,3.3462226514\H,0,
 -1.8687489101,1.5007028685,-1.4157447253\H,0,-0.2771079573,0.749140548
 8,-1.5844708147\H,0,-1.6449921855,-0.2141192424,-1.0311666463\H,0,2.08
 91950301,-0.2993809253,1.6695532745\H,0,1.7072778854,1.4159817461,1.63
 97293445\H,0,2.0093788372,-0.3392952577,-0.8808262493\H,0,1.7625246916
 ,1.4149380298,-0.8716141498\H,0,3.2532389717,0.7308493584,-0.226410309
 6\C,0,-3.1452520116,0.285998694,1.3068553315\C,0,-4.3646858626,0.51168
 86838,2.1583430063\C,0,-4.7497313173,-0.2770755308,3.1629098089\H,0,-2
 .6386349443,-0.6339379612,1.6183761345\H,0,-3.4603313285,0.1472527861,
 0.2664347758\H,0,-4.9627207616,1.3853139993,1.9043022729\H,0,-5.649908
 8705,-0.07220916,3.7352271959\H,0,-4.1813917813,-1.1592433441,3.448798
 6228\\Version=ES64L-G09RevD.01\State=1-A\HF=-1064.3811276\RMSD=9.579e-
 09\Dipole=0.3359687,1.0589507,-1.8970367\Quadrupole=5.203835,4.1020091
 ,-9.3058441,-0.2042271,-5.9474098,7.4046658\PG=C01 [X(C14H26O3Si1)]\\@


 We make a living by what we get,
 we make a life by what we give.
                   -- Sir Winston Churchill
 Job cpu time:       0 days  0 hours 21 minutes 29.4 seconds.
 File lengths (MBytes):  RWF=    241 Int=      0 D2E=      0 Chk=     19 Scr=      1
 Normal termination of Gaussian 09 at Wed Feb  6 11:20:46 2019.
