 Entering Gaussian System, Link 0=/usr/local/Cluster-Apps/gaussian/g09/g09
 Initial command:
 /usr/local/Cluster-Apps/gaussian/g09/l1.exe "/home/ke291/rds/hpc-work/06Feb0927IP1/Gau-376049.inp" -scrdir="/home/ke291/rds/hpc-work/06Feb0927IP1/"
 Entering Link 1 = /usr/local/Cluster-Apps/gaussian/g09/l1.exe PID=    376054.
  
 Copyright (c) 1988,1990,1992,1993,1995,1998,2003,2009,2013,
            Gaussian, Inc.  All Rights Reserved.
  
 This is part of the Gaussian(R) 09 program.  It is based on
 the Gaussian(R) 03 system (copyright 2003, Gaussian, Inc.),
 the Gaussian(R) 98 system (copyright 1998, Gaussian, Inc.),
 the Gaussian(R) 94 system (copyright 1995, Gaussian, Inc.),
 the Gaussian 92(TM) system (copyright 1992, Gaussian, Inc.),
 the Gaussian 90(TM) system (copyright 1990, Gaussian, Inc.),
 the Gaussian 88(TM) system (copyright 1988, Gaussian, Inc.),
 the Gaussian 86(TM) system (copyright 1986, Carnegie Mellon
 University), and the Gaussian 82(TM) system (copyright 1983,
 Carnegie Mellon University). Gaussian is a federally registered
 trademark of Gaussian, Inc.
  
 This software contains proprietary and confidential information,
 including trade secrets, belonging to Gaussian, Inc.
  
 This software is provided under written license and may be
 used, copied, transmitted, or stored only in accord with that
 written license.
  
 The following legend is applicable only to US Government
 contracts under FAR:
  
                    RESTRICTED RIGHTS LEGEND
  
 Use, reproduction and disclosure by the US Government is
 subject to restrictions as set forth in subparagraphs (a)
 and (c) of the Commercial Computer Software - Restricted
 Rights clause in FAR 52.227-19.
  
 Gaussian, Inc.
 340 Quinnipiac St., Bldg. 40, Wallingford CT 06492
  
  
 ---------------------------------------------------------------
 Warning -- This program may not be used in any manner that
 competes with the business of Gaussian, Inc. or will provide
 assistance to any competitor of Gaussian, Inc.  The licensee
 of this program is prohibited from giving any competitor of
 Gaussian, Inc. access to this program.  By using this program,
 the user acknowledges that Gaussian, Inc. is engaged in the
 business of creating and licensing software in the field of
 computational chemistry and represents and warrants to the
 licensee that it is not a competitor of Gaussian, Inc. and that
 it will not use this program in any manner prohibited above.
 ---------------------------------------------------------------
  

 Cite this work as:
 Gaussian 09, Revision D.01,
 M. J. Frisch, G. W. Trucks, H. B. Schlegel, G. E. Scuseria, 
 M. A. Robb, J. R. Cheeseman, G. Scalmani, V. Barone, B. Mennucci, 
 G. A. Petersson, H. Nakatsuji, M. Caricato, X. Li, H. P. Hratchian, 
 A. F. Izmaylov, J. Bloino, G. Zheng, J. L. Sonnenberg, M. Hada, 
 M. Ehara, K. Toyota, R. Fukuda, J. Hasegawa, M. Ishida, T. Nakajima, 
 Y. Honda, O. Kitao, H. Nakai, T. Vreven, J. A. Montgomery, Jr., 
 J. E. Peralta, F. Ogliaro, M. Bearpark, J. J. Heyd, E. Brothers, 
 K. N. Kudin, V. N. Staroverov, T. Keith, R. Kobayashi, J. Normand, 
 K. Raghavachari, A. Rendell, J. C. Burant, S. S. Iyengar, J. Tomasi, 
 M. Cossi, N. Rega, J. M. Millam, M. Klene, J. E. Knox, J. B. Cross, 
 V. Bakken, C. Adamo, J. Jaramillo, R. Gomperts, R. E. Stratmann, 
 O. Yazyev, A. J. Austin, R. Cammi, C. Pomelli, J. W. Ochterski, 
 R. L. Martin, K. Morokuma, V. G. Zakrzewski, G. A. Voth, 
 P. Salvador, J. J. Dannenberg, S. Dapprich, A. D. Daniels, 
 O. Farkas, J. B. Foresman, J. V. Ortiz, J. Cioslowski, 
 and D. J. Fox, Gaussian, Inc., Wallingford CT, 2013.
 
 ******************************************
 Gaussian 09:  ES64L-G09RevD.01 24-Apr-2013
                 6-Feb-2019 
 ******************************************
 %nprocshared=2
 Will use up to    2 processors via shared memory.
 %mem=6000MB
 %chk=/home/ke291/rds/hpc-work/06Feb0927IP1/P_ng_correct1ginp006.chk
 ----------------------------------------------------------------------
 # mPW1PW91/6-311g(d) geom=checkpoint nmr=giao scrf=(solvent=chloroform
 )
 ----------------------------------------------------------------------
 1/29=2,38=1/1;
 2/12=2,40=1/2;
 3/5=4,6=6,7=1,11=2,14=-4,16=1,25=1,30=1,70=2201,72=7,74=-7/1,2,8,3;
 4//1;
 5/5=2,38=5,53=7/2;
 8/6=1,10=90,11=11/1;
 10/13=100,45=16/2;
 6/7=2,8=2,9=2,10=2,28=1/1;
 99/9=1/99;
 --------------------
 P_ng_correct1ginp006
 --------------------
 Structure from the checkpoint file:  "/home/ke291/rds/hpc-work/06Feb0927IP1/P_ng_correct1ginp006.chk"
 Charge =  0 Multiplicity = 1
 Redundant internal coordinates found in file.
 C,0,1.0738760818,-0.1282424834,0.5622925467
 C,0,-0.3833699143,-0.523831526,0.8601847249
 C,0,-1.0197601777,0.4816115333,1.8816194819
 C,0,-0.2938788105,1.8549408728,1.7759813938
 C,0,0.2949289946,2.1554618631,0.4198274881
 H,0,1.6361735708,-0.0251530759,1.500814602
 H,0,-0.9277748149,-0.3652522015,-0.076567558
 H,0,-0.9534547407,2.6677493448,2.0739262525
 H,0,0.5465124519,1.8563023862,2.4814647994
 O,0,1.065214963,1.1750424764,-0.1019528117
 O,0,0.156451863,3.196933179,-0.1896507365
 C,0,1.8636823268,-1.0528799911,-0.366789873
 C,0,1.2578688456,-1.2535728729,-1.759857087
 C,0,-0.5542060455,-1.9984871231,1.2459759543
 O,0,-2.4160253822,0.5925764012,1.6140486012
 Si,0,-3.405207718,1.4022792916,0.5144574062
 C,0,-3.3607583657,3.2689454442,0.7794359142
 C,0,-2.9599506523,1.0258554642,-1.2815793166
 C,0,-5.1181123775,0.7272060884,0.9001299485
 H,0,-3.6942998998,1.5053916507,-1.9400781823
 H,0,-1.9750243526,1.4123739675,-1.5624138133
 H,0,-2.9807607618,-0.0483624958,-1.4938813562
 H,0,-5.8719199873,1.1929739853,0.2554278395
 H,0,-5.16325241,-0.3550633931,0.7401445548
 H,0,-5.3992289818,0.9249548465,1.9397548206
 H,0,-3.5516432136,3.5342920395,1.8248786525
 H,0,-2.3993336805,3.6999781157,0.4834036999
 H,0,-4.1388437416,3.7441592795,0.1702085848
 H,0,0.06665407,-2.2822551015,2.1012502744
 H,0,-1.5975632628,-2.2027777653,1.5011192333
 H,0,-0.2882117686,-2.6519000718,0.4117185919
 H,0,1.9890409841,-2.0153383935,0.1409673786
 H,0,2.868403843,-0.6264052825,-0.4658340907
 H,0,0.2800536366,-1.7435866974,-1.7193239871
 H,0,1.1333371251,-0.2959291706,-2.2720356822
 H,0,1.9146254797,-1.8802875822,-2.3703639145
 C,0,-0.9163797652,-0.0166079813,3.3477046286
 C,0,-1.4153806515,0.9708910734,4.3658887292
 C,0,-0.6977182861,1.442050741,5.3869023264
 H,0,0.1240557002,-0.2829621433,3.5689596321
 H,0,-1.5123632173,-0.9327343972,3.4220593657
 H,0,-2.4467810717,1.2966419617,4.2410294015
 H,0,-1.11640031,2.1433622265,6.102841036
 H,0,0.3338754252,1.1374695172,5.5504355462
 Recover connectivity data from disk.
                          Input orientation:                          
 ---------------------------------------------------------------------
 Center     Atomic      Atomic             Coordinates (Angstroms)
 Number     Number       Type             X           Y           Z
 ---------------------------------------------------------------------
      1          6           0        1.073876   -0.128242    0.562293
      2          6           0       -0.383370   -0.523832    0.860185
      3          6           0       -1.019760    0.481612    1.881619
      4          6           0       -0.293879    1.854941    1.775981
      5          6           0        0.294929    2.155462    0.419827
      6          1           0        1.636174   -0.025153    1.500815
      7          1           0       -0.927775   -0.365252   -0.076568
      8          1           0       -0.953455    2.667749    2.073926
      9          1           0        0.546512    1.856302    2.481465
     10          8           0        1.065215    1.175042   -0.101953
     11          8           0        0.156452    3.196933   -0.189651
     12          6           0        1.863682   -1.052880   -0.366790
     13          6           0        1.257869   -1.253573   -1.759857
     14          6           0       -0.554206   -1.998487    1.245976
     15          8           0       -2.416025    0.592576    1.614049
     16         14           0       -3.405208    1.402279    0.514457
     17          6           0       -3.360758    3.268945    0.779436
     18          6           0       -2.959951    1.025855   -1.281579
     19          6           0       -5.118112    0.727206    0.900130
     20          1           0       -3.694300    1.505392   -1.940078
     21          1           0       -1.975024    1.412374   -1.562414
     22          1           0       -2.980761   -0.048362   -1.493881
     23          1           0       -5.871920    1.192974    0.255428
     24          1           0       -5.163252   -0.355063    0.740145
     25          1           0       -5.399229    0.924955    1.939755
     26          1           0       -3.551643    3.534292    1.824879
     27          1           0       -2.399334    3.699978    0.483404
     28          1           0       -4.138844    3.744159    0.170209
     29          1           0        0.066654   -2.282255    2.101250
     30          1           0       -1.597563   -2.202778    1.501119
     31          1           0       -0.288212   -2.651900    0.411719
     32          1           0        1.989041   -2.015338    0.140967
     33          1           0        2.868404   -0.626405   -0.465834
     34          1           0        0.280054   -1.743587   -1.719324
     35          1           0        1.133337   -0.295929   -2.272036
     36          1           0        1.914625   -1.880288   -2.370364
     37          6           0       -0.916380   -0.016608    3.347705
     38          6           0       -1.415381    0.970891    4.365889
     39          6           0       -0.697718    1.442051    5.386902
     40          1           0        0.124056   -0.282962    3.568960
     41          1           0       -1.512363   -0.932734    3.422059
     42          1           0       -2.446781    1.296642    4.241029
     43          1           0       -1.116400    2.143362    6.102841
     44          1           0        0.333875    1.137470    5.550436
 ---------------------------------------------------------------------
                    Distance matrix (angstroms):
                    1          2          3          4          5
     1  C    0.000000
     2  C    1.539089   0.000000
     3  C    2.548697   1.568196   0.000000
     4  C    2.697556   2.550539   1.556951   0.000000
     5  C    2.417098   2.798681   2.582057   1.508695   0.000000
     6  H    1.098922   2.176613   2.730532   2.708426   2.778948
     7  H    2.114456   1.095002   2.135447   2.960240   2.845244
     8  H    3.769970   3.461843   2.195581   1.088333   2.134700
     9  H    2.810650   3.026263   2.168594   1.097254   2.098366
    10  O    1.462822   2.431107   2.960157   2.415789   1.351598
    11  O    3.530422   3.903544   3.612009   2.422282   1.214620
    12  C    1.530341   2.614307   3.965381   4.207370   3.656940
    13  C    2.587006   3.176603   4.632366   4.957109   4.159302
    14  C    2.572137   1.533828   2.602244   3.898408   4.319588
    15  O    3.715533   2.438517   1.425996   2.474529   3.349336
    16  Si   4.733601   3.600130   2.899504   3.387730   3.777201
    17  C    5.590529   4.822501   3.803198   3.521117   3.838387
    18  C    4.582965   3.691538   3.750516   4.140531   3.842530
    19  C    6.259924   4.897395   4.221389   5.031116   5.618863
    20  H    5.627266   4.787638   4.775632   5.049173   4.680352
    21  H    4.022893   3.485863   3.693266   3.763907   3.103892
    22  H    4.546901   3.537533   3.939594   4.640463   4.387399
    23  H    7.076995   5.782502   5.166623   5.819349   6.243672
    24  H    6.243785   4.784367   4.378529   5.446823   6.016401
    25  H    6.701322   5.331350   4.402236   5.191945   6.020611
    26  H    6.033549   5.238030   3.966423   3.665466   4.321048
    27  H    5.169592   4.695385   3.770426   3.083482   3.106223
    28  H    6.505511   5.726726   4.827197   4.575086   4.716419
    29  H    2.832430   2.198822   2.977834   4.165594   4.751066
    30  H    3.510225   2.168853   2.772108   4.270857   4.872881
    31  H    2.871725   2.176891   3.537607   4.708807   4.842608
    32  H    2.139199   2.893130   4.279896   4.781637   4.510361
    33  H    2.127332   3.513243   4.675046   4.602483   3.891780
    34  H    2.906074   2.929471   4.428071   5.049352   4.447333
    35  H    2.839907   3.487570   4.742705   4.801003   3.736091
    36  H    3.518095   4.190131   5.680541   6.001800   5.166803
    37  C    3.425215   2.594057   1.551875   2.522006   3.841565
    38  C    4.676734   3.948316   2.562714   2.957521   4.460915
    39  C    5.374126   4.945167   3.648721   3.656818   5.115285
    40  H    3.156920   2.766398   2.177155   2.821360   3.986495
    41  H    3.938795   2.829316   2.148485   3.459105   4.670830
    42  H    5.287573   4.359117   2.875322   3.320113   4.780808
    43  H    6.376141   5.927622   4.537562   4.413779   5.855650
    44  H    5.199154   5.027207   3.965185   3.892987   5.230771
                    6          7          8          9         10
     6  H    0.000000
     7  H    3.029461   0.000000
     8  H    3.779730   3.718115   0.000000
     9  H    2.385144   3.694910   1.753407   0.000000
    10  O    2.082145   2.518960   3.322296   2.721620   0.000000
    11  O    3.927988   3.725252   2.575987   3.014017   2.218464
    12  C    2.143812   2.889514   5.266540   4.279116   2.381455
    13  C    3.504869   2.898209   5.913088   5.307180   2.946852
    14  C    2.959181   2.134510   4.755908   4.194927   3.809295
    15  O    4.100577   2.447552   2.580105   3.335573   3.924661
    16  Si   5.331603   3.100186   3.169298   4.437493   4.518437
    17  C    6.028333   4.456405   2.798616   4.489903   4.974989
    18  C    5.474550   2.741710   4.240431   5.210127   4.197110
    19  C    6.822554   4.439181   4.742139   5.988610   6.279989
    20  H    6.526581   3.824348   4.997553   6.136585   5.112809
    21  H    4.948798   2.542523   3.980269   4.786248   3.381173
    22  H    5.503165   2.514746   4.921025   5.645598   4.450180
    23  H    7.707548   5.194503   5.447311   6.825798   6.946358
    24  H    6.849792   4.313513   5.351520   6.365827   6.468706
    25  H    7.112824   5.071892   4.777054   6.042574   6.783815
    26  H    6.299850   5.070170   2.750183   4.476788   5.531195
    27  H    5.585432   4.359490   2.384497   4.008665   4.326782
    28  H    7.023464   5.221027   3.863871   5.555040   5.810048
    29  H    2.813969   3.067031   5.054099   4.183597   4.219495
    30  H    3.898603   2.512810   4.946212   4.694068   4.590196
    31  H    3.433539   2.424092   5.612856   5.030358   4.091590
    32  H    2.436091   3.358261   5.858833   4.748518   3.330315
    33  H    2.397416   3.825010   5.648756   4.499065   2.574707
    34  H    3.893760   2.461159   5.947283   5.538667   3.427939
    35  H    3.815831   3.012153   5.659106   5.250927   2.622529
    36  H    4.301753   3.954248   6.975833   6.274877   3.899004
    37  C    3.150651   3.441994   2.971474   2.529470   4.152937
    38  C    4.302643   4.664596   2.888909   2.860775   5.114356
    39  C    4.764600   5.759234   3.541687   3.187677   5.771201
    40  H    2.574916   3.795127   3.478915   2.436712   4.060438
    41  H    3.798443   3.592237   3.885013   3.591993   4.848226
    42  H    5.091801   4.869386   2.967540   3.516972   5.586627
    43  H    5.784269   6.671868   4.066164   3.995253   6.648049
    44  H    4.409887   5.959287   4.010622   3.159196   5.699628
                   11         12         13         14         15
    11  O    0.000000
    12  C    4.583331   0.000000
    13  C    4.846202   1.532294   0.000000
    14  C    5.436768   3.056366   3.587972   0.000000
    15  O    4.080888   4.994712   5.318741   3.211769   0.000000
    16  Si   4.049935   5.879252   5.828408   4.497615   1.686179
    17  C    3.648984   6.876539   6.944991   5.986672   2.958386
    18  C    3.951943   5.331549   4.818147   4.617661   2.977960
    19  C    5.925217   7.315685   7.186943   5.327124   2.798049
    20  H    4.555612   6.317528   5.671714   5.682279   3.885748
    21  H    3.100374   4.716213   4.194980   4.641094   3.310055
    22  H    4.698411   5.074251   4.414664   4.147044   3.223191
    23  H    6.368298   8.079020   7.802618   6.280501   3.761587
    24  H    6.463780   7.147731   6.948966   4.919351   3.034631
    25  H    6.368818   7.872856   7.921494   5.701060   3.019282
    26  H    4.233451   7.427739   7.674984   6.319130   3.160343
    27  H    2.690371   6.440947   6.553245   6.038089   3.306748
    28  H    4.344942   7.702615   7.604406   6.854553   3.871079
    29  H    5.939511   3.291185   4.169572   1.094297   3.829585
    30  H    5.923863   4.097752   4.437167   1.093356   2.914899
    31  H    5.896458   2.791700   3.010220   1.092560   4.061997
    32  H    5.534931   1.095380   2.174404   2.772983   5.326894
    33  H    4.695623   1.095973   2.159087   4.065361   5.808358
    34  H    5.173385   2.194152   1.094477   3.090949   4.882404
    35  H    4.182191   2.176313   1.093122   4.257101   5.337515
    36  H    5.798694   2.168296   1.093992   4.380298   6.383192
    37  C    4.898030   4.753954   5.687234   2.911405   2.371836
    38  C    5.308376   6.102962   7.044094   4.392344   2.952463
    39  C    5.908228   6.774247   7.884598   5.385645   4.231857
    40  H    5.122292   4.371407   5.533887   2.966364   3.322688
    41  H    5.734418   5.076170   5.884673   2.605616   2.532209
    42  H    5.478947   6.732930   7.499244   4.838394   2.719868
    43  H    6.505814   7.807239   8.888101   6.407817   4.923740
    44  H    6.100939   6.492418   7.746691   5.399193   4.832598
                   16         17         18         19         20
    16  Si   0.000000
    17  C    1.885903   0.000000
    18  C    1.888305   3.072439   0.000000
    19  C    1.881093   3.092458   3.083295   0.000000
    20  H    2.473651   3.258394   1.096743   3.271024   0.000000
    21  H    2.521690   3.294143   1.094689   4.051244   1.762723
    22  H    2.513552   4.039418   1.095194   3.301677   1.767026
    23  H    2.489091   3.300026   3.296951   1.095813   3.108035
    24  H    2.495979   4.047712   3.293758   1.094961   3.578087
    25  H    2.497085   3.316021   4.041937   1.094966   4.277475
    26  H    2.506816   1.095352   4.036389   3.344954   4.279216
    27  H    2.508419   1.094423   3.252751   4.050036   3.516591
    28  H    2.478131   1.096541   3.299493   3.254805   3.108538
    29  H    5.305425   6.656589   5.616713   6.114029   6.695026
    30  H    4.151809   5.793914   4.474772   4.619552   5.476191
    31  H    5.114938   6.680731   4.850910   5.914799   5.866469
    32  H    6.396681   7.546632   5.980386   7.655685   7.001904
    33  H    6.665938   7.451639   6.112702   8.214777   7.055993
    34  H    5.335485   6.680179   4.284747   6.488956   5.138101
    35  H    5.589888   6.497438   4.413969   7.084494   5.163432
    36  H    6.884625   8.016577   5.778634   8.182576   6.565669
    37  C    4.029243   4.833824   5.166544   4.919191   6.163925
    38  C    4.356493   4.682755   5.855136   5.077508   6.726394
    39  C    5.574298   5.626551   7.054046   6.338928   7.916322
    40  H    4.962431   5.704509   5.895068   5.968536   6.937402
    41  H    4.182021   5.296616   5.296773   4.702867   6.281546
    42  H    3.849296   4.087538   5.553006   4.315307   6.309197
    43  H    6.084232   5.885807   7.692669   6.714715   8.470013
    44  H    6.277893   6.399683   7.585392   7.177592   8.512894
                   21         22         23         24         25
    21  H    0.000000
    22  H    1.774811   0.000000
    23  H    4.305634   3.599972   0.000000
    24  H    4.311660   3.138185   1.770192   0.000000
    25  H    4.922189   4.311171   1.769810   1.770084   0.000000
    26  H    4.296745   4.916858   3.650840   4.347530   3.199283
    27  H    3.098151   4.277589   4.289044   4.914115   4.338327
    28  H    3.622336   4.300415   3.085346   4.263551   3.559182
    29  H    5.589380   5.215552   7.123969   5.737473   6.339413
    30  H    4.753634   3.940148   5.599375   4.087453   4.942446
    31  H    4.822951   4.202325   6.781245   5.399013   6.422716
    32  H    5.510402   5.589334   8.491235   7.366874   8.152760
    33  H    5.368231   5.966887   8.956764   8.126224   8.749133
    34  H    3.882021   3.682054   7.097169   6.132419   7.263899
    35  H    3.617150   4.194355   7.594638   6.980241   7.867919
    36  H    5.159824   5.299904   8.773255   7.880224   8.940860
    37  C    5.222258   5.263424   5.965119   4.994982   4.792160
    38  C    5.971003   6.150301   6.066791   5.380587   4.664685
    39  C    7.065790   7.401270   7.291532   6.690514   5.852727
    40  H    5.797525   5.943676   7.007825   5.996918   5.883880
    41  H    5.527980   5.206225   5.792402   4.566767   4.555871
    42  H    5.823736   5.914674   5.256172   4.729011   3.761777
    43  H    7.747755   8.123404   7.596739   7.167821   6.095771
    44  H    7.483262   7.874986   8.157946   7.455533   6.778692
                   26         27         28         29         30
    26  H    0.000000
    27  H    1.776182   0.000000
    28  H    1.768271   1.768032   0.000000
    29  H    6.855704   6.669755   7.598211   0.000000
    30  H    6.069367   6.043270   6.602688   1.770902   0.000000
    31  H    7.135543   6.693903   7.469623   1.765527   1.761507
    32  H    8.020794   7.213871   8.409735   2.758537   3.840427
    33  H    7.985973   6.882420   8.282989   4.145065   5.128228
    34  H    7.422889   6.454729   7.294679   3.864258   3.756003
    35  H    7.307827   6.003289   7.076918   4.920257   5.032950
    36  H    8.763437   7.608784   8.644848   4.855091   5.237161
    37  C    4.676805   4.921015   5.884227   2.766435   2.941637
    38  C    4.194207   4.846625   5.719440   4.231781   4.279284
    39  C    5.020993   5.660215   6.659951   5.024961   5.403129
    40  H    5.578890   5.634888   6.778018   2.480854   3.305394
    41  H    5.163717   5.557377   6.272660   2.461511   2.304405
    42  H    3.473555   4.460720   5.042321   4.868728   4.524844
    43  H    5.115277   5.970515   6.847908   6.082634   6.347936
    44  H    5.892520   6.301722   7.466384   4.864443   5.593270
                   31         32         33         34         35
    31  H    0.000000
    32  H    2.379999   0.000000
    33  H    3.851876   1.752319   0.000000
    34  H    2.385226   2.540703   3.085270   0.000000
    35  H    3.843688   3.084020   2.526269   1.768981   0.000000
    36  H    3.631509   2.516061   2.471669   1.764756   1.769257
    37  C    3.994918   4.766504   5.407358   5.485316   5.988392
    38  C    5.480017   6.193352   6.651895   6.875515   7.222384
    39  C    6.456050   6.833158   7.158929   7.848744   8.064284
    40  H    3.968627   4.269711   4.891724   5.488506   5.927566
    41  H    3.676442   4.919088   5.865209   5.504913   6.310940
    42  H    5.908809   6.888849   7.355533   7.225263   7.600891
    43  H    7.487944   7.904587   8.166870   8.845605   9.008331
    44  H    6.415039   6.476273   6.762440   7.820025   7.992798
                   36         37         38         39         40
    36  H    0.000000
    37  C    6.647120   0.000000
    38  C    8.037118   1.503614   0.000000
    39  C    8.833881   2.516709   1.333979   0.000000
    40  H    6.405713   1.096542   2.139418   2.637404   0.000000
    41  H    6.796637   1.095451   2.126972   3.188081   1.766819
    42  H    8.533772   2.205625   1.088802   2.096041   3.091283
    43  H    9.857590   3.506602   2.116856   1.086140   3.721067
    44  H    8.622337   2.783353   2.119150   1.087979   2.447018
                   41         42         43         44
    41  H    0.000000
    42  H    2.552248   0.000000
    43  H    4.099481   2.439916   0.000000
    44  H    3.496330   3.077650   1.849398   0.000000
 Stoichiometry    C14H26O3Si
 Framework group  C1[X(C14H26O3Si)]
 Deg. of freedom   126
 Full point group                 C1      NOp   1
 Largest Abelian subgroup         C1      NOp   1
 Largest concise Abelian subgroup C1      NOp   1
                         Standard orientation:                         
 ---------------------------------------------------------------------
 Center     Atomic      Atomic             Coordinates (Angstroms)
 Number     Number       Type             X           Y           Z
 ---------------------------------------------------------------------
      1          6           0       -2.356733    0.415705    0.118469
      2          6           0       -1.182054    0.203736   -0.853124
      3          6           0        0.126236    0.840953   -0.268684
      4          6           0        0.029576    0.887458    1.284568
      5          6           0       -0.834184   -0.187755    1.896119
      6          1           0       -2.449982    1.481178    0.370862
      7          1           0       -0.997991   -0.875664   -0.859849
      8          1           0        1.018973    0.859848    1.737118
      9          1           0       -0.422659    1.844449    1.573735
     10          8           0       -2.064883   -0.314514    1.351941
     11          8           0       -0.518626   -0.891573    2.834397
     12          6           0       -3.728324   -0.087456   -0.337063
     13          6           0       -3.801644   -1.582960   -0.662666
     14          6           0       -1.492197    0.625125   -2.294953
     15          8           0        1.249373    0.082506   -0.712290
     16         14           0        2.010860   -1.362388   -0.293222
     17          6           0        2.819721   -1.256914    1.407146
     18          6           0        0.837014   -2.841171   -0.324583
     19          6           0        3.319948   -1.560870   -1.629412
     20          1           0        1.410354   -3.756880   -0.135897
     21          1           0        0.062315   -2.781829    0.446562
     22          1           0        0.345950   -2.955775   -1.296782
     23          1           0        3.909102   -2.469567   -1.462157
     24          1           0        2.864988   -1.634871   -2.622627
     25          1           0        4.010998   -0.711572   -1.639074
     26          1           0        3.464121   -0.375552    1.495161
     27          1           0        2.077220   -1.223864    2.210490
     28          1           0        3.445899   -2.142119    1.570595
     29          1           0       -1.820331    1.666681   -2.365477
     30          1           0       -0.604307    0.505647   -2.921694
     31          1           0       -2.279703   -0.000357   -2.721911
     32          1           0       -4.037753    0.510442   -1.201141
     33          1           0       -4.438048    0.144651    0.465167
     34          1           0       -3.161218   -1.854491   -1.507654
     35          1           0       -3.496442   -2.184268    0.197681
     36          1           0       -4.826557   -1.862616   -0.923749
     37          6           0        0.367633    2.283028   -0.788743
     38          6           0        1.551915    2.967962   -0.164887
     39          6           0        1.505695    4.134885    0.479826
     40          1           0       -0.535254    2.883958   -0.627244
     41          1           0        0.527564    2.215570   -1.870355
     42          1           0        2.505853    2.454909   -0.275658
     43          1           0        2.398284    4.591615    0.897417
     44          1           0        0.574057    4.682188    0.607136
 ---------------------------------------------------------------------
 Rotational constants (GHZ):      0.4173842      0.3188007      0.2633440
 Standard basis: 6-311G(d) (5D, 7F)
 There are   428 symmetry adapted cartesian basis functions of A   symmetry.
 There are   410 symmetry adapted basis functions of A   symmetry.
   410 basis functions,   720 primitive gaussians,   428 cartesian basis functions
    74 alpha electrons       74 beta electrons
       nuclear repulsion energy      1647.5564960003 Hartrees.
 NAtoms=   44 NActive=   44 NUniq=   44 SFac= 1.00D+00 NAtFMM=   60 NAOKFM=F Big=F
 Integral buffers will be    131072 words long.
 Raffenetti 2 integral format.
 Two-electron integral symmetry is turned on.
 ------------------------------------------------------------------------------
 Polarizable Continuum Model (PCM)
 =================================
 Model                : PCM (using non-symmetric T matrix).
 Atomic radii         : UFF (Universal Force Field).
 Polarization charges : Total charges.
 Charge compensation  : None.
 Solution method      : On-the-fly selection.
 Cavity type          : Scaled VdW (van der Waals Surface) (Alpha=1.100).
 Cavity algorithm     : GePol (No added spheres)
                        Default sphere list used, NSphG=   44.
                        Lebedev-Laikov grids with approx.  5.0 points / Ang**2.
                        Smoothing algorithm: Karplus/York (Gamma=1.0000).
                        Polarization charges: spherical gaussians, with
                                              point-specific exponents (IZeta= 3).
                        Self-potential: point-specific (ISelfS= 7).
                        Self-field    : sphere-specific E.n sum rule (ISelfD= 2).
 Solvent              : Chloroform, Eps=   4.711300 Eps(inf)=   2.090627
 ------------------------------------------------------------------------------
 One-electron integrals computed using PRISM.
 NBasis=   410 RedAO= T EigKep=  5.78D-04  NBF=   410
 NBsUse=   410 1.00D-06 EigRej= -1.00D+00 NBFU=   410
 ExpMin= 6.54D-02 ExpMax= 6.94D+04 ExpMxC= 2.33D+03 IAcc=2 IRadAn=         4 AccDes= 0.00D+00
 Harris functional with IExCor=  908 and IRadAn=       4 diagonalized for initial guess.
 HarFok:  IExCor=  908 AccDes= 0.00D+00 IRadAn=         4 IDoV= 1 UseB2=F ITyADJ=14
 ICtDFT=  3500011 ScaDFX=  1.000000  1.000000  1.000000  1.000000
 FoFCou: FMM=F IPFlag=           0 FMFlag=      100000 FMFlg1=           0
         NFxFlg=           0 DoJE=T BraDBF=F KetDBF=T FulRan=T
         wScrn=  0.000000 ICntrl=     500 IOpCl=  0 I1Cent=   200000004 NGrid=           0
         NMat0=    1 NMatS0=      1 NMatT0=    0 NMatD0=    1 NMtDS0=    0 NMtDT0=    0
 Petite list used in FoFCou.
 Requested convergence on RMS density matrix=1.00D-08 within 128 cycles.
 Requested convergence on MAX density matrix=1.00D-06.
 Requested convergence on             energy=1.00D-06.
 No special actions if energy rises.
 Inv3:  Mode=1 IEnd=    24282075.
 Iteration    1 A*A^-1 deviation from unit magnitude is 4.66D-15 for   1393.
 Iteration    1 A*A^-1 deviation from orthogonality  is 5.58D-15 for   2838   1508.
 Iteration    1 A^-1*A deviation from unit magnitude is 5.55D-15 for   1419.
 Iteration    1 A^-1*A deviation from orthogonality  is 2.81D-14 for   2531   2489.
 Error on total polarization charges =  0.01127
 SCF Done:  E(RmPW1PW91) =  -1064.38377513     A.U. after   12 cycles
            NFock= 12  Conv=0.91D-08     -V/T= 2.0036
 DoSCS=F DFT=T ScalE2(SS,OS)=  1.000000  1.000000
 Range of M.O.s used for correlation:     1   410
 NBasis=   410 NAE=    74 NBE=    74 NFC=     0 NFV=     0
 NROrb=    410 NOA=    74 NOB=    74 NVA=   336 NVB=   336
 NEqPCM:  Using equilibrium solvation (IEInf=0, Eps=   4.7113, EpsInf=   2.0906)
          Differentiating once with respect to magnetic field using GIAOs.
          Electric field/nuclear overlap derivatives assumed to be zero.
 FoFJK:  IHMeth= 1 ICntrl=    6127 DoSepK=F KAlg= 0 I1Cent=   0 FoldK=F
 IRaf=         1 NMat=   1 IRICut=       1 DoRegI=T DoRafI=F ISym2E= 0.
          There are     3 degrees of freedom in the 1st order CPHF.  IDoFFX=0 NUNeed=     3.
      3 vectors produced by pass  0 Test12= 8.29D-13 3.33D-08 XBig12= 3.50D+01 1.02D+00.
 AX will form     3 AO Fock derivatives at one time.
      3 vectors produced by pass  1 Test12= 8.29D-13 3.33D-08 XBig12= 6.02D-02 8.72D-02.
      3 vectors produced by pass  2 Test12= 8.29D-13 3.33D-08 XBig12= 4.28D-04 6.26D-03.
      3 vectors produced by pass  3 Test12= 8.29D-13 3.33D-08 XBig12= 1.76D-06 2.82D-04.
      3 vectors produced by pass  4 Test12= 8.29D-13 3.33D-08 XBig12= 5.20D-09 2.56D-05.
      3 vectors produced by pass  5 Test12= 8.29D-13 3.33D-08 XBig12= 2.42D-11 7.94D-07.
      2 vectors produced by pass  6 Test12= 8.29D-13 3.33D-08 XBig12= 8.06D-14 5.67D-08.
 InvSVY:  IOpt=1 It=  1 EMax= 8.88D-16
 Solved reduced A of dimension    20 with     3 vectors.
 Calculating GIAO nuclear magnetic shielding tensors.
 SCF GIAO Magnetic shielding tensor (ppm):
      1  C    Isotropic =   105.8418   Anisotropy =    55.2472
   XX=   101.1561   YX=     0.0064   ZX=     5.7407
   XY=    -4.0964   YY=    86.6323   ZY=   -24.4181
   XZ=    11.3754   YZ=   -24.7374   ZZ=   129.7372
   Eigenvalues:    75.3825    99.4697   142.6733
      2  C    Isotropic =   139.8327   Anisotropy =    19.9899
   XX=   152.5067   YX=    -1.2383   ZX=    -4.5372
   XY=    -5.0339   YY=   137.2339   ZY=    -4.7851
   XZ=     6.3072   YZ=     4.5679   ZZ=   129.7576
   Eigenvalues:   129.7232   136.6156   153.1594
      3  C    Isotropic =   105.5378   Anisotropy =    54.7622
   XX=   124.5647   YX=   -24.6876   ZX=    -9.2135
   XY=   -21.0178   YY=   104.4836   ZY=     8.6220
   XZ=    -6.8823   YZ=     9.8514   ZZ=    87.5652
   Eigenvalues:    83.3125    91.2550   142.0460
      4  C    Isotropic =   142.5660   Anisotropy =    20.9814
   XX=   144.2526   YX=     6.4746   ZX=    -5.9880
   XY=     5.7454   YY=   134.6034   ZY=    -7.5339
   XZ=    -7.1567   YZ=    -3.7635   ZZ=   148.8419
   Eigenvalues:   131.2694   139.8749   156.5536
      5  C    Isotropic =     8.2089   Anisotropy =   100.9508
   XX=   -64.3820   YX=   -52.1320   ZX=   -20.8650
   XY=   -41.9512   YY=    40.5683   ZY=    14.2277
   XZ=   -30.8176   YZ=     9.6890   ZZ=    48.4403
   Eigenvalues:   -85.3934    34.5105    75.5094
      6  H    Isotropic =    28.0399   Anisotropy =     3.0590
   XX=    29.5892   YX=    -0.6495   ZX=     0.2720
   XY=    -0.5209   YY=    29.1855   ZY=     1.5478
   XZ=    -0.0451   YZ=     0.6396   ZZ=    25.3451
   Eigenvalues:    25.0405    29.0000    30.0792
      7  H    Isotropic =    30.0984   Anisotropy =     6.2230
   XX=    32.0533   YX=    -2.0107   ZX=     1.0500
   XY=    -1.8993   YY=    32.3339   ZY=    -0.0745
   XZ=     1.1917   YZ=    -0.2326   ZZ=    25.9080
   Eigenvalues:    25.7041    30.3441    34.2471
      8  H    Isotropic =    29.6714   Anisotropy =     4.3565
   XX=    30.3741   YX=    -1.3758   ZX=     2.5963
   XY=    -0.2434   YY=    28.8278   ZY=    -0.1966
   XZ=     1.5598   YZ=    -1.6021   ZZ=    29.8123
   Eigenvalues:    27.9569    28.4816    32.5757
      9  H    Isotropic =    29.7046   Anisotropy =     5.5328
   XX=    27.4919   YX=    -0.0550   ZX=    -1.8794
   XY=     0.1287   YY=    31.8463   ZY=     1.9475
   XZ=    -1.4745   YZ=     2.4815   ZZ=    29.7756
   Eigenvalues:    26.3578    29.3629    33.3931
     10  O    Isotropic =    79.9351   Anisotropy =   184.0003
   XX=   172.2397   YX=    21.6910   ZX=   -59.8853
   XY=    -6.0047   YY=    67.1660   ZY=   152.2329
   XZ=   -27.7384   YZ=   142.7380   ZZ=     0.3994
   Eigenvalues:  -122.6504   159.8537   202.6019
     11  O    Isotropic =  -105.0449   Anisotropy =   577.4104
   XX=  -242.8144   YX=   -68.0291   ZX=  -221.0228
   XY=   -91.3975   YY=    11.2828   ZY=   234.2813
   XZ=  -188.3476   YZ=   242.4226   ZZ=   -83.6032
   Eigenvalues:  -399.5631  -195.4670   279.8953
     12  C    Isotropic =   161.5191   Anisotropy =    18.9849
   XX=   169.4403   YX=     3.1971   ZX=     6.2562
   XY=     9.0100   YY=   160.5853   ZY=     4.2658
   XZ=     5.0220   YZ=    -1.5980   ZZ=   154.5318
   Eigenvalues:   152.5621   157.8194   174.1757
     13  C    Isotropic =   180.9846   Anisotropy =    12.4741
   XX=   180.0103   YX=     1.5045   ZX=    -0.6689
   XY=     1.7659   YY=   188.1241   ZY=     3.3086
   XZ=     0.5417   YZ=     3.8887   ZZ=   174.8194
   Eigenvalues:   173.8725   179.7806   189.3006
     14  C    Isotropic =   177.3430   Anisotropy =    11.1714
   XX=   175.5469   YX=     1.4107   ZX=     3.6366
   XY=     3.0047   YY=   173.7181   ZY=    -3.9254
   XZ=     1.9204   YZ=    -4.4911   ZZ=   182.7639
   Eigenvalues:   170.2163   177.0220   184.7905
     15  O    Isotropic =   239.2854   Anisotropy =    23.5188
   XX=   235.3108   YX=    14.8386   ZX=    -5.6613
   XY=     1.8036   YY=   238.1854   ZY=    14.4608
   XZ=    -9.1843   YZ=    12.1631   ZZ=   244.3599
   Eigenvalues:   219.6751   243.2164   254.9645
     16  Si   Isotropic =   332.7796   Anisotropy =    41.5750
   XX=   329.5265   YX=   -27.5317   ZX=     4.0056
   XY=   -15.4856   YY=   345.0865   ZY=   -11.0370
   XZ=    -6.0925   YZ=     1.2602   ZZ=   323.7259
   Eigenvalues:   313.1374   324.7052   360.4963
     17  C    Isotropic =   185.8716   Anisotropy =    10.7811
   XX=   183.1152   YX=    -2.3683   ZX=     6.6471
   XY=    -3.3837   YY=   185.5294   ZY=     1.1150
   XZ=     5.9961   YZ=     3.9100   ZZ=   188.9704
   Eigenvalues:   177.3321   187.2238   193.0590
     18  C    Isotropic =   185.9037   Anisotropy =     8.6129
   XX=   188.9575   YX=     1.0345   ZX=     2.5434
   XY=     3.1766   YY=   189.3240   ZY=     0.8993
   XZ=     3.1547   YZ=    -0.3890   ZZ=   179.4295
   Eigenvalues:   178.6330   187.4324   191.6456
     19  C    Isotropic =   186.5787   Anisotropy =    13.2240
   XX=   186.9649   YX=    -4.2523   ZX=    -7.6679
   XY=    -4.8514   YY=   184.5093   ZY=    -2.8995
   XZ=    -7.6251   YZ=    -2.7823   ZZ=   188.2617
   Eigenvalues:   176.4610   187.8803   195.3947
     20  H    Isotropic =    32.2538   Anisotropy =    10.5396
   XX=    30.8287   YX=    -3.5404   ZX=     0.5949
   XY=    -3.1651   YY=    37.7967   ZY=    -0.9901
   XZ=     0.5498   YZ=    -1.1668   ZZ=    28.1360
   Eigenvalues:    27.9928    29.4884    39.2802
     21  H    Isotropic =    31.8687   Anisotropy =     7.1900
   XX=    33.6656   YX=    -1.1248   ZX=    -4.3726
   XY=    -0.2101   YY=    31.1035   ZY=     0.0665
   XZ=    -3.8311   YZ=     0.2370   ZZ=    30.8369
   Eigenvalues:    27.8904    31.0536    36.6620
     22  H    Isotropic =    32.0559   Anisotropy =     7.2543
   XX=    31.7108   YX=     0.0838   ZX=     3.6155
   XY=     0.5934   YY=    30.9468   ZY=     2.7258
   XZ=     3.1862   YZ=     2.0488   ZZ=    33.5102
   Eigenvalues:    28.3847    30.8910    36.8921
     23  H    Isotropic =    32.3716   Anisotropy =    10.2123
   XX=    33.5158   YX=    -5.0212   ZX=    -1.0274
   XY=    -5.3303   YY=    34.3523   ZY=     0.2154
   XZ=    -0.9174   YZ=    -0.0363   ZZ=    29.2468
   Eigenvalues:    28.2771    29.6580    39.1798
     24  H    Isotropic =    31.9741   Anisotropy =     8.2726
   XX=    30.6180   YX=    -0.5119   ZX=     0.3711
   XY=    -0.7910   YY=    28.0265   ZY=     1.1814
   XZ=     1.1481   YZ=     1.1507   ZZ=    37.2779
   Eigenvalues:    27.6916    30.7416    37.4891
     25  H    Isotropic =    31.9135   Anisotropy =     8.7392
   XX=    34.3972   YX=     3.9816   ZX=    -2.0447
   XY=     3.4961   YY=    32.4286   ZY=    -0.0219
   XZ=    -2.4257   YZ=    -0.7304   ZZ=    28.9147
   Eigenvalues:    27.8290    30.1718    37.7396
     26  H    Isotropic =    31.9704   Anisotropy =     8.2941
   XX=    33.3232   YX=     3.6792   ZX=     2.3214
   XY=     3.1747   YY=    33.1202   ZY=     0.8504
   XZ=     2.5498   YZ=     1.5916   ZZ=    29.4677
   Eigenvalues:    28.2340    30.1774    37.4998
     27  H    Isotropic =    31.4058   Anisotropy =     7.6458
   XX=    32.9157   YX=    -1.2976   ZX=    -2.0376
   XY=    -2.0755   YY=    27.1154   ZY=    -0.3856
   XZ=    -3.5739   YZ=    -0.2024   ZZ=    34.1863
   Eigenvalues:    26.5065    31.2080    36.5030
     28  H    Isotropic =    32.2959   Anisotropy =    10.4236
   XX=    32.9340   YX=    -4.6552   ZX=     2.6353
   XY=    -5.0741   YY=    33.5869   ZY=    -2.1520
   XZ=     2.2784   YZ=    -1.8366   ZZ=    30.3670
   Eigenvalues:    28.2227    29.4201    39.2450
     29  H    Isotropic =    31.3876   Anisotropy =     8.6370
   XX=    29.6692   YX=    -1.9269   ZX=     2.6594
   XY=    -1.6430   YY=    34.3868   ZY=    -3.1619
   XZ=     2.3376   YZ=    -3.2533   ZZ=    30.1068
   Eigenvalues:    27.2258    29.7915    37.1456
     30  H    Isotropic =    30.8028   Anisotropy =     7.7781
   XX=    31.7703   YX=    -0.4712   ZX=    -2.1059
   XY=    -0.2484   YY=    25.9944   ZY=     0.1848
   XZ=    -2.6306   YZ=     0.1792   ZZ=    34.6436
   Eigenvalues:    25.9719    30.4482    35.9882
     31  H    Isotropic =    31.1826   Anisotropy =     8.7978
   XX=    31.9762   YX=     3.9324   ZX=     3.0765
   XY=     3.8676   YY=    28.4432   ZY=     0.8164
   XZ=     3.0755   YZ=     1.2388   ZZ=    33.1285
   Eigenvalues:    25.8236    30.6764    37.0478
     32  H    Isotropic =    30.5058   Anisotropy =     7.3699
   XX=    32.2487   YX=    -1.3163   ZX=     2.5176
   XY=    -1.6027   YY=    29.9115   ZY=    -3.3538
   XZ=     2.4539   YZ=    -3.2769   ZZ=    29.3573
   Eigenvalues:    26.1649    29.9334    35.4191
     33  H    Isotropic =    30.1462   Anisotropy =     9.8193
   XX=    33.8781   YX=    -1.1945   ZX=    -4.1895
   XY=    -1.4660   YY=    28.3435   ZY=     3.0659
   XZ=    -3.5870   YZ=     3.0479   ZZ=    28.2172
   Eigenvalues:    24.7419    29.0044    36.6925
     34  H    Isotropic =    31.2545   Anisotropy =     5.9591
   XX=    31.2968   YX=     1.1304   ZX=    -2.5274
   XY=     0.7297   YY=    31.1156   ZY=     3.8832
   XZ=    -2.5088   YZ=     3.2435   ZZ=    31.3513
   Eigenvalues:    26.4254    32.1109    35.2273
     35  H    Isotropic =    30.8227   Anisotropy =     7.3762
   XX=    28.8223   YX=     1.5389   ZX=     1.7571
   XY=     1.0694   YY=    33.3172   ZY=    -3.8975
   XZ=     1.8179   YZ=    -3.3418   ZZ=    30.3286
   Eigenvalues:    26.1065    30.6214    35.7402
     36  H    Isotropic =    31.2246   Anisotropy =    12.0598
   XX=    36.2332   YX=     4.1206   ZX=     2.2273
   XY=     4.6795   YY=    30.5147   ZY=     1.6933
   XZ=     2.4316   YZ=     1.5292   ZZ=    26.9260
   Eigenvalues:    26.2366    28.1729    39.2645
     37  C    Isotropic =   140.2895   Anisotropy =    14.1217
   XX=   136.7056   YX=     7.2709   ZX=    -0.9700
   XY=    -1.5915   YY=   148.3889   ZY=    -7.1046
   XZ=     5.8512   YZ=    -0.0800   ZZ=   135.7741
   Eigenvalues:   132.4409   138.7237   149.7040
     38  C    Isotropic =    45.2852   Anisotropy =   180.5058
   XX=   -71.8851   YX=    26.7019   ZX=   -28.3417
   XY=    21.9246   YY=    76.3307   ZY=   -48.4795
   XZ=   -31.5393   YZ=   -48.1935   ZZ=   131.4100
   Eigenvalues:   -78.2734    48.5066   165.6224
     39  C    Isotropic =    65.8850   Anisotropy =   138.7829
   XX=   -42.0038   YX=    13.7583   ZX=   -30.3544
   XY=    15.6114   YY=   105.3923   ZY=   -27.1969
   XZ=   -33.3370   YZ=   -31.0961   ZZ=   134.2666
   Eigenvalues:   -48.1809    87.4291   158.4070
     40  H    Isotropic =    30.1703   Anisotropy =     6.4430
   XX=    30.2472   YX=    -1.2172   ZX=     1.2209
   XY=    -0.1302   YY=    34.3578   ZY=     0.3543
   XZ=     1.7679   YZ=     0.2213   ZZ=    25.9060
   Eigenvalues:    25.4159    30.6294    34.4657
     41  H    Isotropic =    29.4878   Anisotropy =     3.7315
   XX=    27.6774   YX=     2.7733   ZX=     0.3387
   XY=     2.8422   YY=    29.1150   ZY=    -1.8859
   XZ=     1.0264   YZ=     0.0971   ZZ=    31.6711
   Eigenvalues:    25.3115    31.1765    31.9755
     42  H    Isotropic =    25.6767   Anisotropy =     7.4013
   XX=    24.6161   YX=     3.6503   ZX=     0.4668
   XY=     2.2486   YY=    29.0091   ZY=     1.1175
   XZ=    -0.4475   YZ=     0.9569   ZZ=    23.4048
   Eigenvalues:    22.7504    23.6687    30.6109
     43  H    Isotropic =    26.7357   Anisotropy =     6.8939
   XX=    24.1207   YX=     0.8798   ZX=    -0.0751
   XY=     3.0728   YY=    30.0367   ZY=     2.1602
   XZ=     0.8964   YZ=     1.5952   ZZ=    26.0496
   Eigenvalues:    23.5098    25.3656    31.3316
     44  H    Isotropic =    26.8155   Anisotropy =     7.3675
   XX=    23.1863   YX=     1.3681   ZX=     0.3343
   XY=    -0.5118   YY=    31.1931   ZY=     1.4600
   XZ=    -1.0145   YZ=     1.9767   ZZ=    26.0671
   Eigenvalues:    23.0926    25.6268    31.7272
 End of Minotr F.D. properties file   721 does not exist.
 End of Minotr F.D. properties file   722 does not exist.
 End of Minotr F.D. properties file   788 does not exist.

 **********************************************************************

            Population analysis using the SCF density.

 **********************************************************************

 Orbital symmetries:
       Occupied  (A) (A) (A) (A) (A) (A) (A) (A) (A) (A) (A) (A)
                 (A) (A) (A) (A) (A) (A) (A) (A) (A) (A) (A) (A)
                 (A) (A) (A) (A) (A) (A) (A) (A) (A) (A) (A) (A)
                 (A) (A) (A) (A) (A) (A) (A) (A) (A) (A) (A) (A)
                 (A) (A) (A) (A) (A) (A) (A) (A) (A) (A) (A) (A)
                 (A) (A) (A) (A) (A) (A) (A) (A) (A) (A) (A) (A)
                 (A) (A)
       Virtual   (A) (A) (A) (A) (A) (A) (A) (A) (A) (A) (A) (A)
                 (A) (A) (A) (A) (A) (A) (A) (A) (A) (A) (A) (A)
                 (A) (A) (A) (A) (A) (A) (A) (A) (A) (A) (A) (A)
                 (A) (A) (A) (A) (A) (A) (A) (A) (A) (A) (A) (A)
                 (A) (A) (A) (A) (A) (A) (A) (A) (A) (A) (A) (A)
                 (A) (A) (A) (A) (A) (A) (A) (A) (A) (A) (A) (A)
                 (A) (A) (A) (A) (A) (A) (A) (A) (A) (A) (A) (A)
                 (A) (A) (A) (A) (A) (A) (A) (A) (A) (A) (A) (A)
                 (A) (A) (A) (A) (A) (A) (A) (A) (A) (A) (A) (A)
                 (A) (A) (A) (A) (A) (A) (A) (A) (A) (A) (A) (A)
                 (A) (A) (A) (A) (A) (A) (A) (A) (A) (A) (A) (A)
                 (A) (A) (A) (A) (A) (A) (A) (A) (A) (A) (A) (A)
                 (A) (A) (A) (A) (A) (A) (A) (A) (A) (A) (A) (A)
                 (A) (A) (A) (A) (A) (A) (A) (A) (A) (A) (A) (A)
                 (A) (A) (A) (A) (A) (A) (A) (A) (A) (A) (A) (A)
                 (A) (A) (A) (A) (A) (A) (A) (A) (A) (A) (A) (A)
                 (A) (A) (A) (A) (A) (A) (A) (A) (A) (A) (A) (A)
                 (A) (A) (A) (A) (A) (A) (A) (A) (A) (A) (A) (A)
                 (A) (A) (A) (A) (A) (A) (A) (A) (A) (A) (A) (A)
                 (A) (A) (A) (A) (A) (A) (A) (A) (A) (A) (A) (A)
                 (A) (A) (A) (A) (A) (A) (A) (A) (A) (A) (A) (A)
                 (A) (A) (A) (A) (A) (A) (A) (A) (A) (A) (A) (A)
                 (A) (A) (A) (A) (A) (A) (A) (A) (A) (A) (A) (A)
                 (A) (A) (A) (A) (A) (A) (A) (A) (A) (A) (A) (A)
                 (A) (A) (A) (A) (A) (A) (A) (A) (A) (A) (A) (A)
                 (A) (A) (A) (A) (A) (A) (A) (A) (A) (A) (A) (A)
                 (A) (A) (A) (A) (A) (A) (A) (A) (A) (A) (A) (A)
                 (A) (A) (A) (A) (A) (A) (A) (A) (A) (A) (A) (A)
 The electronic state is 1-A.
 Alpha  occ. eigenvalues --  -66.27216 -19.26059 -19.20581 -19.20069 -10.36897
 Alpha  occ. eigenvalues --  -10.32123 -10.30677 -10.25375 -10.25157 -10.24131
 Alpha  occ. eigenvalues --  -10.24078 -10.24050 -10.23047 -10.22856 -10.22266
 Alpha  occ. eigenvalues --  -10.20694 -10.20535 -10.20372  -5.32949  -3.66841
 Alpha  occ. eigenvalues --   -3.66541  -3.66524  -1.13490  -1.05127  -1.03878
 Alpha  occ. eigenvalues --   -0.85857  -0.83270  -0.80413  -0.77657  -0.73973
 Alpha  occ. eigenvalues --   -0.72515  -0.72366  -0.70080  -0.69898  -0.67205
 Alpha  occ. eigenvalues --   -0.62756  -0.62175  -0.58416  -0.56017  -0.54668
 Alpha  occ. eigenvalues --   -0.52408  -0.51118  -0.49168  -0.48504  -0.46298
 Alpha  occ. eigenvalues --   -0.45893  -0.45435  -0.44913  -0.44360  -0.43058
 Alpha  occ. eigenvalues --   -0.42896  -0.42623  -0.42235  -0.42027  -0.41059
 Alpha  occ. eigenvalues --   -0.40792  -0.40325  -0.39735  -0.39389  -0.38946
 Alpha  occ. eigenvalues --   -0.38279  -0.38015  -0.37709  -0.36535  -0.36186
 Alpha  occ. eigenvalues --   -0.35509  -0.35040  -0.33357  -0.32397  -0.31143
 Alpha  occ. eigenvalues --   -0.30211  -0.28804  -0.28380  -0.27226
 Alpha virt. eigenvalues --    0.00178   0.01193   0.03957   0.05069   0.05789
 Alpha virt. eigenvalues --    0.06861   0.07582   0.08259   0.08419   0.08777
 Alpha virt. eigenvalues --    0.10025   0.10430   0.10603   0.10898   0.11454
 Alpha virt. eigenvalues --    0.11981   0.12440   0.12634   0.13108   0.13474
 Alpha virt. eigenvalues --    0.14167   0.14550   0.15217   0.15314   0.15848
 Alpha virt. eigenvalues --    0.16251   0.16660   0.17179   0.17319   0.18140
 Alpha virt. eigenvalues --    0.18710   0.19029   0.19331   0.20046   0.20573
 Alpha virt. eigenvalues --    0.20853   0.22155   0.23683   0.24214   0.24915
 Alpha virt. eigenvalues --    0.25768   0.26320   0.26634   0.27423   0.27832
 Alpha virt. eigenvalues --    0.29959   0.31081   0.31355   0.32297   0.32885
 Alpha virt. eigenvalues --    0.32959   0.33880   0.34767   0.35388   0.36208
 Alpha virt. eigenvalues --    0.36950   0.38148   0.38684   0.40012   0.40380
 Alpha virt. eigenvalues --    0.41816   0.42987   0.43820   0.44492   0.44806
 Alpha virt. eigenvalues --    0.45044   0.45322   0.46818   0.47541   0.48017
 Alpha virt. eigenvalues --    0.49423   0.50129   0.51292   0.52317   0.52581
 Alpha virt. eigenvalues --    0.52924   0.54025   0.54557   0.55658   0.55956
 Alpha virt. eigenvalues --    0.56777   0.57458   0.57921   0.58171   0.58830
 Alpha virt. eigenvalues --    0.59349   0.59515   0.59749   0.60847   0.60977
 Alpha virt. eigenvalues --    0.61122   0.62307   0.62586   0.62801   0.63207
 Alpha virt. eigenvalues --    0.63663   0.63943   0.64502   0.65413   0.65988
 Alpha virt. eigenvalues --    0.66191   0.66788   0.67448   0.67830   0.67873
 Alpha virt. eigenvalues --    0.68788   0.69382   0.69789   0.70210   0.70973
 Alpha virt. eigenvalues --    0.71503   0.73034   0.73101   0.73687   0.74441
 Alpha virt. eigenvalues --    0.75702   0.76461   0.79609   0.81216   0.81905
 Alpha virt. eigenvalues --    0.83091   0.83991   0.85272   0.87835   0.88271
 Alpha virt. eigenvalues --    0.89496   0.90764   0.92970   0.93578   0.94298
 Alpha virt. eigenvalues --    0.95845   0.96794   0.97592   0.98631   1.01293
 Alpha virt. eigenvalues --    1.02895   1.03848   1.05684   1.07692   1.10957
 Alpha virt. eigenvalues --    1.14168   1.15102   1.16839   1.19360   1.21022
 Alpha virt. eigenvalues --    1.22785   1.23549   1.26829   1.27565   1.28444
 Alpha virt. eigenvalues --    1.29308   1.30833   1.30944   1.33739   1.34927
 Alpha virt. eigenvalues --    1.37387   1.37836   1.38807   1.41176   1.41570
 Alpha virt. eigenvalues --    1.43366   1.44354   1.45774   1.48031   1.48459
 Alpha virt. eigenvalues --    1.50404   1.50909   1.52290   1.53215   1.53934
 Alpha virt. eigenvalues --    1.55732   1.55872   1.56098   1.57651   1.58257
 Alpha virt. eigenvalues --    1.58798   1.59561   1.59648   1.60522   1.60904
 Alpha virt. eigenvalues --    1.61341   1.62503   1.62708   1.63676   1.64468
 Alpha virt. eigenvalues --    1.65011   1.66531   1.67029   1.68606   1.70343
 Alpha virt. eigenvalues --    1.70890   1.71301   1.72339   1.74175   1.74635
 Alpha virt. eigenvalues --    1.75703   1.78776   1.78890   1.80208   1.80582
 Alpha virt. eigenvalues --    1.81710   1.83311   1.84430   1.84714   1.87383
 Alpha virt. eigenvalues --    1.88723   1.91381   1.94250   1.95983   1.96826
 Alpha virt. eigenvalues --    2.00923   2.01927   2.03151   2.08602   2.12004
 Alpha virt. eigenvalues --    2.15858   2.16269   2.19462   2.22016   2.24033
 Alpha virt. eigenvalues --    2.28709   2.30813   2.35309   2.36346   2.40122
 Alpha virt. eigenvalues --    2.41215   2.42250   2.42688   2.42873   2.44268
 Alpha virt. eigenvalues --    2.44739   2.44913   2.45793   2.46793   2.47439
 Alpha virt. eigenvalues --    2.47694   2.49226   2.49521   2.51218   2.52117
 Alpha virt. eigenvalues --    2.53426   2.53694   2.55873   2.57070   2.58660
 Alpha virt. eigenvalues --    2.61672   2.65428   2.67553   2.72797   2.80061
 Alpha virt. eigenvalues --    2.81507   2.87489   2.88599   2.90752   2.91162
 Alpha virt. eigenvalues --    2.91519   2.92880   2.93211   2.94825   2.97037
 Alpha virt. eigenvalues --    2.98627   2.99837   3.02044   3.04169   3.07247
 Alpha virt. eigenvalues --    3.10167   3.11158   3.12027   3.13221   3.15209
 Alpha virt. eigenvalues --    3.16904   3.17309   3.17625   3.20613   3.21876
 Alpha virt. eigenvalues --    3.22945   3.23050   3.23460   3.24001   3.25097
 Alpha virt. eigenvalues --    3.26993   3.27970   3.28279   3.29953   3.32160
 Alpha virt. eigenvalues --    3.34455   3.35122   3.36188   3.39526   3.42393
 Alpha virt. eigenvalues --    3.46059   3.51553   3.57026   3.59695   3.61930
 Alpha virt. eigenvalues --    3.75761   3.88031   3.92464   3.96690   4.05120
 Alpha virt. eigenvalues --    4.07006   4.12741   4.18527   4.24450   4.25571
 Alpha virt. eigenvalues --    4.97082   5.01345   5.04038   5.10940   5.16776
 Alpha virt. eigenvalues --    5.26080   5.52990   5.53692   5.75974   5.84919
 Alpha virt. eigenvalues --   11.52268  11.53650  11.57868  23.42172  23.49626
 Alpha virt. eigenvalues --   23.54200  23.55297  23.57434  23.61582  23.72492
 Alpha virt. eigenvalues --   23.74833  23.77765  23.80949  23.83288  23.87054
 Alpha virt. eigenvalues --   23.91324  24.29368  49.99494  50.06175  50.12716
 Alpha virt. eigenvalues --  141.27034
          Condensed to atoms (all electrons):
               1          2          3          4          5          6
     1  C    5.250533   0.272985  -0.064618  -0.030335  -0.067995   0.391233
     2  C    0.272985   5.495519   0.362852  -0.058231  -0.013576  -0.053662
     3  C   -0.064618   0.362852   5.084446   0.224531  -0.029435  -0.010518
     4  C   -0.030335  -0.058231   0.224531   5.930715   0.251536   0.003897
     5  C   -0.067995  -0.013576  -0.029435   0.251536   4.404682  -0.006865
     6  H    0.391233  -0.053662  -0.010518   0.003897  -0.006865   0.486841
     7  H   -0.051035   0.398637  -0.054974  -0.001251  -0.000267   0.008585
     8  H    0.000483   0.004782  -0.023107   0.375983  -0.024806  -0.000109
     9  H   -0.001078   0.001809  -0.035266   0.358502  -0.025723   0.001303
    10  O    0.197490  -0.030301  -0.000461  -0.104268   0.343717  -0.027815
    11  O    0.004145  -0.001699   0.003960  -0.094265   0.647589  -0.000233
    12  C    0.337977  -0.046613   0.006453  -0.000808   0.002955  -0.046054
    13  C   -0.077834  -0.006014  -0.000197  -0.000080  -0.000094   0.007746
    14  C   -0.056585   0.271933  -0.052651   0.006661   0.000185   0.003221
    15  O    0.004426  -0.049560   0.224205  -0.044348   0.001942   0.000091
    16  Si   0.002840  -0.009315  -0.041215  -0.023877   0.001569  -0.000179
    17  C    0.000051  -0.000297  -0.000510   0.002025  -0.000451   0.000000
    18  C    0.000097  -0.000031   0.001529  -0.000168   0.000473  -0.000012
    19  C    0.000000  -0.000237   0.002417  -0.000262  -0.000008   0.000000
    20  H   -0.000017   0.000237  -0.000082   0.000029   0.000001   0.000001
    21  H   -0.000424   0.000078   0.000200   0.001194   0.003446  -0.000003
    22  H    0.000014   0.000117   0.000315   0.000060   0.000015  -0.000011
    23  H    0.000000   0.000003  -0.000053  -0.000001   0.000002   0.000000
    24  H   -0.000001   0.000023  -0.000010  -0.000035   0.000003   0.000000
    25  H    0.000001  -0.000024  -0.000049  -0.000060   0.000003   0.000000
    26  H    0.000006  -0.000050   0.000408  -0.000124   0.000148   0.000000
    27  H   -0.000005  -0.000037   0.000712  -0.004799   0.000641  -0.000004
    28  H    0.000000   0.000004  -0.000058   0.000292  -0.000037   0.000000
    29  H   -0.003492  -0.038095  -0.009208  -0.000188   0.000015   0.002551
    30  H    0.006738  -0.040789  -0.003118   0.000711  -0.000080  -0.000433
    31  H   -0.008253  -0.030052   0.006574  -0.000250  -0.000022  -0.000476
    32  H   -0.038155  -0.008440  -0.000203   0.000081  -0.000054  -0.000391
    33  H   -0.046821   0.008661  -0.000144   0.000082  -0.000195  -0.007763
    34  H   -0.007970   0.005732   0.000384  -0.000017  -0.000039  -0.000445
    35  H   -0.008666  -0.000548  -0.000237   0.000435   0.000356   0.000459
    36  H    0.008108  -0.000250   0.000003   0.000000   0.000010  -0.000162
    37  C   -0.000036  -0.076594   0.305049  -0.079930   0.004333   0.004169
    38  C   -0.000411   0.008394  -0.052051  -0.024676   0.000341  -0.000252
    39  C   -0.000023  -0.000056  -0.003339   0.001985   0.000026  -0.000055
    40  H    0.000614  -0.001181  -0.042898   0.000571  -0.000402   0.003975
    41  H    0.000617  -0.012226  -0.040592   0.008100  -0.000144  -0.000140
    42  H   -0.000017   0.000064  -0.001872  -0.000449  -0.000023   0.000003
    43  H   -0.000001   0.000017  -0.000354   0.000088   0.000000  -0.000003
    44  H   -0.000004  -0.000047   0.000162  -0.000109  -0.000003   0.000003
               7          8          9         10         11         12
     1  C   -0.051035   0.000483  -0.001078   0.197490   0.004145   0.337977
     2  C    0.398637   0.004782   0.001809  -0.030301  -0.001699  -0.046613
     3  C   -0.054974  -0.023107  -0.035266  -0.000461   0.003960   0.006453
     4  C   -0.001251   0.375983   0.358502  -0.104268  -0.094265  -0.000808
     5  C   -0.000267  -0.024806  -0.025723   0.343717   0.647589   0.002955
     6  H    0.008585  -0.000109   0.001303  -0.027815  -0.000233  -0.046054
     7  H    0.463074  -0.000294  -0.000188   0.004498  -0.001232  -0.010219
     8  H   -0.000294   0.390997  -0.016415   0.003636   0.002361   0.000075
     9  H   -0.000188  -0.016415   0.419952  -0.000282   0.001224   0.000161
    10  O    0.004498   0.003636  -0.000282   8.043756  -0.073157  -0.053949
    11  O   -0.001232   0.002361   0.001224  -0.073157   7.870684  -0.000124
    12  C   -0.010219   0.000075   0.000161  -0.053949  -0.000124   5.299947
    13  C    0.003318   0.000004  -0.000007  -0.002212  -0.000030   0.295539
    14  C   -0.036131  -0.000076  -0.000368   0.004686  -0.000010  -0.007763
    15  O   -0.003644  -0.003968   0.003454  -0.000057   0.000014  -0.000087
    16  Si  -0.001953  -0.005689   0.002967  -0.002827   0.007574  -0.000061
    17  C   -0.000232  -0.002343  -0.000023  -0.000015  -0.006112   0.000000
    18  C   -0.006498   0.000288  -0.000030  -0.000043  -0.001540  -0.000044
    19  C   -0.000400  -0.000199   0.000012   0.000000   0.000002   0.000000
    20  H    0.000963   0.000008  -0.000001   0.000002  -0.000011   0.000001
    21  H   -0.002629  -0.000059   0.000027   0.000063   0.002845  -0.000040
    22  H   -0.002240  -0.000006   0.000006  -0.000071   0.000050   0.000010
    23  H    0.000008   0.000005   0.000000   0.000000   0.000001   0.000000
    24  H   -0.000045  -0.000011   0.000002   0.000000   0.000000   0.000000
    25  H   -0.000010  -0.000036   0.000002   0.000000   0.000001   0.000000
    26  H   -0.000008   0.000288  -0.000071  -0.000003  -0.000067   0.000000
    27  H   -0.000070   0.001186   0.000176   0.000355   0.019272   0.000004
    28  H    0.000005   0.000454  -0.000007   0.000000  -0.000021   0.000000
    29  H    0.007174  -0.000010  -0.000060   0.000014  -0.000001  -0.001864
    30  H   -0.005472  -0.000020  -0.000046  -0.000157   0.000001   0.000261
    31  H   -0.008138   0.000014   0.000025   0.000062   0.000000   0.001701
    32  H    0.000284  -0.000005  -0.000009   0.003460   0.000007   0.389310
    33  H   -0.000578  -0.000010  -0.000029   0.002635  -0.000025   0.403862
    34  H   -0.002918   0.000000   0.000001  -0.000510   0.000003  -0.033572
    35  H    0.000249  -0.000011  -0.000006   0.011495   0.000085  -0.041753
    36  H    0.000277   0.000000   0.000000  -0.000086  -0.000001  -0.036145
    37  C    0.006038  -0.005182  -0.006758  -0.000248  -0.000092  -0.000487
    38  C   -0.000251   0.002725   0.001329  -0.000020  -0.000018   0.000011
    39  C   -0.000006   0.001321   0.003632   0.000000   0.000001   0.000000
    40  H    0.000458   0.000321  -0.001866  -0.000093   0.000004  -0.000037
    41  H   -0.000353  -0.000032   0.000910  -0.000017   0.000005   0.000003
    42  H    0.000016   0.000155  -0.000043   0.000001   0.000000   0.000001
    43  H   -0.000001   0.000067   0.000037   0.000000   0.000000   0.000000
    44  H    0.000001  -0.000021   0.000298   0.000001   0.000000   0.000000
              13         14         15         16         17         18
     1  C   -0.077834  -0.056585   0.004426   0.002840   0.000051   0.000097
     2  C   -0.006014   0.271933  -0.049560  -0.009315  -0.000297  -0.000031
     3  C   -0.000197  -0.052651   0.224205  -0.041215  -0.000510   0.001529
     4  C   -0.000080   0.006661  -0.044348  -0.023877   0.002025  -0.000168
     5  C   -0.000094   0.000185   0.001942   0.001569  -0.000451   0.000473
     6  H    0.007746   0.003221   0.000091  -0.000179   0.000000  -0.000012
     7  H    0.003318  -0.036131  -0.003644  -0.001953  -0.000232  -0.006498
     8  H    0.000004  -0.000076  -0.003968  -0.005689  -0.002343   0.000288
     9  H   -0.000007  -0.000368   0.003454   0.002967  -0.000023  -0.000030
    10  O   -0.002212   0.004686  -0.000057  -0.002827  -0.000015  -0.000043
    11  O   -0.000030  -0.000010   0.000014   0.007574  -0.006112  -0.001540
    12  C    0.295539  -0.007763  -0.000087  -0.000061   0.000000  -0.000044
    13  C    5.377976  -0.002547  -0.000002  -0.000182   0.000000   0.000090
    14  C   -0.002547   5.432418  -0.000521  -0.000642   0.000006   0.000392
    15  O   -0.000002  -0.000521   8.278998   0.359633  -0.025751  -0.024965
    16  Si  -0.000182  -0.000642   0.359633  11.529494   0.313804   0.311756
    17  C    0.000000   0.000006  -0.025751   0.313804   5.814773  -0.054578
    18  C    0.000090   0.000392  -0.024965   0.311756  -0.054578   5.806775
    19  C    0.000000  -0.000005  -0.031360   0.330235  -0.046204  -0.046405
    20  H   -0.000002  -0.000011   0.000811  -0.010585   0.000258   0.363257
    21  H    0.000225   0.000108  -0.001387  -0.024109  -0.001394   0.364960
    22  H    0.000152   0.000095  -0.002104  -0.025717   0.002263   0.369323
    23  H    0.000000  -0.000002   0.001148  -0.014848   0.000329   0.000143
    24  H    0.000000  -0.000005  -0.001999  -0.024194   0.002093  -0.000971
    25  H    0.000000  -0.000004  -0.001938  -0.024278  -0.000817   0.002104
    26  H    0.000000   0.000001  -0.002235  -0.026243   0.369083   0.002181
    27  H    0.000000  -0.000002  -0.001493  -0.025774   0.354225  -0.001375
    28  H    0.000000   0.000000   0.000839  -0.010735   0.361446   0.000493
    29  H    0.000408   0.386626   0.000028  -0.000099   0.000000  -0.000004
    30  H   -0.000158   0.388694   0.005980   0.001861   0.000022  -0.000018
    31  H    0.000349   0.388947  -0.000265  -0.000244  -0.000001   0.000039
    32  H   -0.036179   0.003130  -0.000003  -0.000018   0.000000  -0.000003
    33  H   -0.042687  -0.000402   0.000005   0.000038   0.000000  -0.000001
    34  H    0.382285  -0.000453  -0.000002  -0.000022   0.000001   0.000293
    35  H    0.384621   0.000380   0.000005  -0.000045   0.000001   0.000093
    36  H    0.391157   0.000077   0.000000  -0.000005   0.000000   0.000000
    37  C    0.000005  -0.019533  -0.078430   0.000290   0.000024  -0.000280
    38  C    0.000000  -0.000091   0.008342   0.001194  -0.000216   0.000028
    39  C    0.000000  -0.000036   0.000974   0.000506  -0.000025   0.000001
    40  H    0.000009  -0.001690   0.003896  -0.000037   0.000009   0.000010
    41  H   -0.000002   0.003142   0.002045   0.000307   0.000020  -0.000001
    42  H    0.000000  -0.000084   0.004212   0.001139   0.000257   0.000018
    43  H    0.000000   0.000000   0.000012   0.000005   0.000001   0.000000
    44  H    0.000000  -0.000013   0.000001   0.000001   0.000000   0.000000
              19         20         21         22         23         24
     1  C    0.000000  -0.000017  -0.000424   0.000014   0.000000  -0.000001
     2  C   -0.000237   0.000237   0.000078   0.000117   0.000003   0.000023
     3  C    0.002417  -0.000082   0.000200   0.000315  -0.000053  -0.000010
     4  C   -0.000262   0.000029   0.001194   0.000060  -0.000001  -0.000035
     5  C   -0.000008   0.000001   0.003446   0.000015   0.000002   0.000003
     6  H    0.000000   0.000001  -0.000003  -0.000011   0.000000   0.000000
     7  H   -0.000400   0.000963  -0.002629  -0.002240   0.000008  -0.000045
     8  H   -0.000199   0.000008  -0.000059  -0.000006   0.000005  -0.000011
     9  H    0.000012  -0.000001   0.000027   0.000006   0.000000   0.000002
    10  O    0.000000   0.000002   0.000063  -0.000071   0.000000   0.000000
    11  O    0.000002  -0.000011   0.002845   0.000050   0.000001   0.000000
    12  C    0.000000   0.000001  -0.000040   0.000010   0.000000   0.000000
    13  C    0.000000  -0.000002   0.000225   0.000152   0.000000   0.000000
    14  C   -0.000005  -0.000011   0.000108   0.000095  -0.000002  -0.000005
    15  O   -0.031360   0.000811  -0.001387  -0.002104   0.001148  -0.001999
    16  Si   0.330235  -0.010585  -0.024109  -0.025717  -0.014848  -0.024194
    17  C   -0.046204   0.000258  -0.001394   0.002263   0.000329   0.002093
    18  C   -0.046405   0.363257   0.364960   0.369323   0.000143  -0.000971
    19  C    5.725127  -0.000471   0.002415  -0.000407   0.362767   0.370092
    20  H   -0.000471   0.441864  -0.019838  -0.021524   0.000599  -0.000022
    21  H    0.002415  -0.019838   0.436103  -0.019616  -0.000046  -0.000047
    22  H   -0.000407  -0.021524  -0.019616   0.455682  -0.000028   0.001207
    23  H    0.362767   0.000599  -0.000046  -0.000028   0.460847  -0.021860
    24  H    0.370092  -0.000022  -0.000047   0.001207  -0.021860   0.455756
    25  H    0.371190  -0.000089  -0.000075  -0.000063  -0.021914  -0.019690
    26  H   -0.000272  -0.000056  -0.000046  -0.000083  -0.000036  -0.000076
    27  H    0.002188  -0.000039   0.000657  -0.000015  -0.000034  -0.000078
    28  H   -0.000647   0.000279   0.000066  -0.000051   0.000767  -0.000044
    29  H    0.000000   0.000000  -0.000003  -0.000007   0.000000  -0.000001
    30  H    0.000010  -0.000004  -0.000005   0.000088  -0.000002   0.000086
    31  H    0.000001  -0.000002   0.000013   0.000060   0.000000   0.000000
    32  H    0.000000   0.000000   0.000005   0.000000   0.000000   0.000000
    33  H    0.000000   0.000000  -0.000004   0.000000   0.000000   0.000000
    34  H    0.000000  -0.000011   0.000023   0.000448   0.000000   0.000000
    35  H    0.000000   0.000002   0.000492  -0.000015   0.000000   0.000000
    36  H    0.000000   0.000000  -0.000001  -0.000004   0.000000   0.000000
    37  C    0.000058   0.000005  -0.000064  -0.000062   0.000002   0.000009
    38  C   -0.000079   0.000000   0.000009   0.000006   0.000000   0.000006
    39  C   -0.000002   0.000000   0.000000   0.000000   0.000000   0.000000
    40  H    0.000000   0.000000   0.000001   0.000000   0.000000  -0.000002
    41  H   -0.000082   0.000001  -0.000003   0.000000   0.000002  -0.000018
    42  H    0.000157   0.000000   0.000001   0.000001  -0.000007  -0.000018
    43  H    0.000000   0.000000   0.000000   0.000000   0.000000   0.000000
    44  H    0.000000   0.000000   0.000000   0.000000   0.000000   0.000000
              25         26         27         28         29         30
     1  C    0.000001   0.000006  -0.000005   0.000000  -0.003492   0.006738
     2  C   -0.000024  -0.000050  -0.000037   0.000004  -0.038095  -0.040789
     3  C   -0.000049   0.000408   0.000712  -0.000058  -0.009208  -0.003118
     4  C   -0.000060  -0.000124  -0.004799   0.000292  -0.000188   0.000711
     5  C    0.000003   0.000148   0.000641  -0.000037   0.000015  -0.000080
     6  H    0.000000   0.000000  -0.000004   0.000000   0.002551  -0.000433
     7  H   -0.000010  -0.000008  -0.000070   0.000005   0.007174  -0.005472
     8  H   -0.000036   0.000288   0.001186   0.000454  -0.000010  -0.000020
     9  H    0.000002  -0.000071   0.000176  -0.000007  -0.000060  -0.000046
    10  O    0.000000  -0.000003   0.000355   0.000000   0.000014  -0.000157
    11  O    0.000001  -0.000067   0.019272  -0.000021  -0.000001   0.000001
    12  C    0.000000   0.000000   0.000004   0.000000  -0.001864   0.000261
    13  C    0.000000   0.000000   0.000000   0.000000   0.000408  -0.000158
    14  C   -0.000004   0.000001  -0.000002   0.000000   0.386626   0.388694
    15  O   -0.001938  -0.002235  -0.001493   0.000839   0.000028   0.005980
    16  Si  -0.024278  -0.026243  -0.025774  -0.010735  -0.000099   0.001861
    17  C   -0.000817   0.369083   0.354225   0.361446   0.000000   0.000022
    18  C    0.002104   0.002181  -0.001375   0.000493  -0.000004  -0.000018
    19  C    0.371190  -0.000272   0.002188  -0.000647   0.000000   0.000010
    20  H   -0.000089  -0.000056  -0.000039   0.000279   0.000000  -0.000004
    21  H   -0.000075  -0.000046   0.000657   0.000066  -0.000003  -0.000005
    22  H   -0.000063  -0.000083  -0.000015  -0.000051  -0.000007   0.000088
    23  H   -0.021914  -0.000036  -0.000034   0.000767   0.000000  -0.000002
    24  H   -0.019690  -0.000076  -0.000078  -0.000044  -0.000001   0.000086
    25  H    0.454469   0.000970  -0.000030  -0.000058   0.000000   0.000001
    26  H    0.000970   0.454661  -0.019164  -0.021113   0.000000   0.000002
    27  H   -0.000030  -0.019164   0.438724  -0.020629   0.000000   0.000003
    28  H   -0.000058  -0.021113  -0.020629   0.449679   0.000000   0.000000
    29  H    0.000000   0.000000   0.000000   0.000000   0.464985  -0.024673
    30  H    0.000001   0.000002   0.000003   0.000000  -0.024673   0.442227
    31  H    0.000000   0.000000   0.000000   0.000000  -0.026656  -0.023908
    32  H    0.000000   0.000000   0.000000   0.000000   0.000519   0.000298
    33  H    0.000000   0.000000   0.000000   0.000000  -0.000153   0.000036
    34  H    0.000000   0.000000   0.000000   0.000000  -0.000145   0.000058
    35  H    0.000000   0.000000  -0.000004   0.000000  -0.000011   0.000024
    36  H    0.000000   0.000000   0.000000   0.000000   0.000006  -0.000008
    37  C    0.000080   0.000088  -0.000043   0.000000   0.002860  -0.004806
    38  C   -0.000008   0.000221  -0.000091   0.000000   0.000294  -0.000320
    39  C   -0.000003   0.000011  -0.000008   0.000000  -0.000011  -0.000009
    40  H   -0.000002   0.000002   0.000001   0.000000   0.001164   0.000217
    41  H   -0.000014   0.000004   0.000008   0.000000  -0.002292   0.002185
    42  H    0.000266   0.000467  -0.000002  -0.000002  -0.000003   0.000017
    43  H   -0.000001  -0.000001   0.000000   0.000000   0.000000   0.000000
    44  H    0.000000   0.000001   0.000000   0.000000  -0.000009   0.000001
              31         32         33         34         35         36
     1  C   -0.008253  -0.038155  -0.046821  -0.007970  -0.008666   0.008108
     2  C   -0.030052  -0.008440   0.008661   0.005732  -0.000548  -0.000250
     3  C    0.006574  -0.000203  -0.000144   0.000384  -0.000237   0.000003
     4  C   -0.000250   0.000081   0.000082  -0.000017   0.000435   0.000000
     5  C   -0.000022  -0.000054  -0.000195  -0.000039   0.000356   0.000010
     6  H   -0.000476  -0.000391  -0.007763  -0.000445   0.000459  -0.000162
     7  H   -0.008138   0.000284  -0.000578  -0.002918   0.000249   0.000277
     8  H    0.000014  -0.000005  -0.000010   0.000000  -0.000011   0.000000
     9  H    0.000025  -0.000009  -0.000029   0.000001  -0.000006   0.000000
    10  O    0.000062   0.003460   0.002635  -0.000510   0.011495  -0.000086
    11  O    0.000000   0.000007  -0.000025   0.000003   0.000085  -0.000001
    12  C    0.001701   0.389310   0.403862  -0.033572  -0.041753  -0.036145
    13  C    0.000349  -0.036179  -0.042687   0.382285   0.384621   0.391157
    14  C    0.388947   0.003130  -0.000402  -0.000453   0.000380   0.000077
    15  O   -0.000265  -0.000003   0.000005  -0.000002   0.000005   0.000000
    16  Si  -0.000244  -0.000018   0.000038  -0.000022  -0.000045  -0.000005
    17  C   -0.000001   0.000000   0.000000   0.000001   0.000001   0.000000
    18  C    0.000039  -0.000003  -0.000001   0.000293   0.000093   0.000000
    19  C    0.000001   0.000000   0.000000   0.000000   0.000000   0.000000
    20  H   -0.000002   0.000000   0.000000  -0.000011   0.000002   0.000000
    21  H    0.000013   0.000005  -0.000004   0.000023   0.000492  -0.000001
    22  H    0.000060   0.000000   0.000000   0.000448  -0.000015  -0.000004
    23  H    0.000000   0.000000   0.000000   0.000000   0.000000   0.000000
    24  H    0.000000   0.000000   0.000000   0.000000   0.000000   0.000000
    25  H    0.000000   0.000000   0.000000   0.000000   0.000000   0.000000
    26  H    0.000000   0.000000   0.000000   0.000000   0.000000   0.000000
    27  H    0.000000   0.000000   0.000000   0.000000  -0.000004   0.000000
    28  H    0.000000   0.000000   0.000000   0.000000   0.000000   0.000000
    29  H   -0.026656   0.000519  -0.000153  -0.000145  -0.000011   0.000006
    30  H   -0.023908   0.000298   0.000036   0.000058   0.000024  -0.000008
    31  H    0.449706  -0.001790   0.000256   0.004558  -0.000129  -0.000004
    32  H   -0.001790   0.475325  -0.026595  -0.005502   0.006823  -0.003930
    33  H    0.000256  -0.026595   0.469593   0.006356  -0.003486  -0.005337
    34  H    0.004558  -0.005502   0.006356   0.478395  -0.027247  -0.027379
    35  H   -0.000129   0.006823  -0.003486  -0.027247   0.458900  -0.025122
    36  H   -0.000004  -0.003930  -0.005337  -0.027379  -0.025122   0.464816
    37  C    0.000436  -0.000011   0.000012  -0.000008   0.000004   0.000000
    38  C    0.000017  -0.000001  -0.000001   0.000000   0.000000   0.000000
    39  C    0.000001   0.000000   0.000000   0.000000   0.000000   0.000000
    40  H   -0.000152   0.000005  -0.000019  -0.000002   0.000001   0.000000
    41  H    0.000338  -0.000007   0.000002   0.000001   0.000000   0.000000
    42  H    0.000000   0.000000   0.000000   0.000000   0.000000   0.000000
    43  H    0.000000   0.000000   0.000000   0.000000   0.000000   0.000000
    44  H    0.000000   0.000000   0.000000   0.000000   0.000000   0.000000
              37         38         39         40         41         42
     1  C   -0.000036  -0.000411  -0.000023   0.000614   0.000617  -0.000017
     2  C   -0.076594   0.008394  -0.000056  -0.001181  -0.012226   0.000064
     3  C    0.305049  -0.052051  -0.003339  -0.042898  -0.040592  -0.001872
     4  C   -0.079930  -0.024676   0.001985   0.000571   0.008100  -0.000449
     5  C    0.004333   0.000341   0.000026  -0.000402  -0.000144  -0.000023
     6  H    0.004169  -0.000252  -0.000055   0.003975  -0.000140   0.000003
     7  H    0.006038  -0.000251  -0.000006   0.000458  -0.000353   0.000016
     8  H   -0.005182   0.002725   0.001321   0.000321  -0.000032   0.000155
     9  H   -0.006758   0.001329   0.003632  -0.001866   0.000910  -0.000043
    10  O   -0.000248  -0.000020   0.000000  -0.000093  -0.000017   0.000001
    11  O   -0.000092  -0.000018   0.000001   0.000004   0.000005   0.000000
    12  C   -0.000487   0.000011   0.000000  -0.000037   0.000003   0.000001
    13  C    0.000005   0.000000   0.000000   0.000009  -0.000002   0.000000
    14  C   -0.019533  -0.000091  -0.000036  -0.001690   0.003142  -0.000084
    15  O   -0.078430   0.008342   0.000974   0.003896   0.002045   0.004212
    16  Si   0.000290   0.001194   0.000506  -0.000037   0.000307   0.001139
    17  C    0.000024  -0.000216  -0.000025   0.000009   0.000020   0.000257
    18  C   -0.000280   0.000028   0.000001   0.000010  -0.000001   0.000018
    19  C    0.000058  -0.000079  -0.000002   0.000000  -0.000082   0.000157
    20  H    0.000005   0.000000   0.000000   0.000000   0.000001   0.000000
    21  H   -0.000064   0.000009   0.000000   0.000001  -0.000003   0.000001
    22  H   -0.000062   0.000006   0.000000   0.000000   0.000000   0.000001
    23  H    0.000002   0.000000   0.000000   0.000000   0.000002  -0.000007
    24  H    0.000009   0.000006   0.000000  -0.000002  -0.000018  -0.000018
    25  H    0.000080  -0.000008  -0.000003  -0.000002  -0.000014   0.000266
    26  H    0.000088   0.000221   0.000011   0.000002   0.000004   0.000467
    27  H   -0.000043  -0.000091  -0.000008   0.000001   0.000008  -0.000002
    28  H    0.000000   0.000000   0.000000   0.000000   0.000000  -0.000002
    29  H    0.002860   0.000294  -0.000011   0.001164  -0.002292  -0.000003
    30  H   -0.004806  -0.000320  -0.000009   0.000217   0.002185   0.000017
    31  H    0.000436   0.000017   0.000001  -0.000152   0.000338   0.000000
    32  H   -0.000011  -0.000001   0.000000   0.000005  -0.000007   0.000000
    33  H    0.000012  -0.000001   0.000000  -0.000019   0.000002   0.000000
    34  H   -0.000008   0.000000   0.000000  -0.000002   0.000001   0.000000
    35  H    0.000004   0.000000   0.000000   0.000001   0.000000   0.000000
    36  H    0.000000   0.000000   0.000000   0.000000   0.000000   0.000000
    37  C    5.450947   0.330044  -0.064686   0.388024   0.390424  -0.047919
    38  C    0.330044   5.065904   0.614551  -0.048440  -0.040173   0.398254
    39  C   -0.064686   0.614551   5.153626   0.001992   0.000785  -0.040750
    40  H    0.388024  -0.048440   0.001992   0.466415  -0.020973   0.005364
    41  H    0.390424  -0.040173   0.000785  -0.020973   0.448257  -0.001747
    42  H   -0.047919   0.398254  -0.040750   0.005364  -0.001747   0.459745
    43  H    0.006311  -0.038444   0.392476   0.000137  -0.000313  -0.007781
    44  H   -0.009062  -0.039529   0.386690   0.004863   0.000180   0.005953
              43         44
     1  C   -0.000001  -0.000004
     2  C    0.000017  -0.000047
     3  C   -0.000354   0.000162
     4  C    0.000088  -0.000109
     5  C    0.000000  -0.000003
     6  H   -0.000003   0.000003
     7  H   -0.000001   0.000001
     8  H    0.000067  -0.000021
     9  H    0.000037   0.000298
    10  O    0.000000   0.000001
    11  O    0.000000   0.000000
    12  C    0.000000   0.000000
    13  C    0.000000   0.000000
    14  C    0.000000  -0.000013
    15  O    0.000012   0.000001
    16  Si   0.000005   0.000001
    17  C    0.000001   0.000000
    18  C    0.000000   0.000000
    19  C    0.000000   0.000000
    20  H    0.000000   0.000000
    21  H    0.000000   0.000000
    22  H    0.000000   0.000000
    23  H    0.000000   0.000000
    24  H    0.000000   0.000000
    25  H   -0.000001   0.000000
    26  H   -0.000001   0.000001
    27  H    0.000000   0.000000
    28  H    0.000000   0.000000
    29  H    0.000000  -0.000009
    30  H    0.000000   0.000001
    31  H    0.000000   0.000000
    32  H    0.000000   0.000000
    33  H    0.000000   0.000000
    34  H    0.000000   0.000000
    35  H    0.000000   0.000000
    36  H    0.000000   0.000000
    37  C    0.006311  -0.009062
    38  C   -0.038444  -0.039529
    39  C    0.392476   0.386690
    40  H    0.000137   0.004863
    41  H   -0.000313   0.000180
    42  H   -0.007781   0.005953
    43  H    0.454766  -0.034314
    44  H   -0.034314   0.466543
 Mulliken charges:
               1
     1  C   -0.014580
     2  C   -0.353922
     3  C    0.243021
     4  C   -0.698949
     5  C    0.506229
     6  H    0.241509
     7  H    0.297454
     8  H    0.297253
     9  H    0.292445
    10  O   -0.319278
    11  O   -0.381191
    12  C   -0.458649
    13  C   -0.675658
    14  C   -0.711080
    15  O   -0.626941
    16  Si   1.407677
    17  C   -1.081721
    18  C   -1.087377
    19  C   -1.039631
    20  H    0.244445
    21  H    0.256859
    22  H    0.242115
    23  H    0.232210
    24  H    0.239851
    25  H    0.240078
    26  H    0.241105
    27  H    0.255542
    28  H    0.239077
    29  H    0.240342
    30  H    0.254503
    31  H    0.247243
    32  H    0.242048
    33  H    0.242711
    34  H    0.227706
    35  H    0.242858
    36  H    0.233978
    37  C   -0.494981
    38  C   -0.186598
    39  C   -0.449573
    40  H    0.239743
    41  H    0.261792
    42  H    0.224625
    43  H    0.227295
    44  H    0.218412
 Sum of Mulliken charges =   0.00000
 Mulliken charges with hydrogens summed into heavy atoms:
               1
     1  C    0.226929
     2  C   -0.056469
     3  C    0.243021
     4  C   -0.109251
     5  C    0.506229
    10  O   -0.319278
    11  O   -0.381191
    12  C    0.026110
    13  C    0.028884
    14  C    0.031008
    15  O   -0.626941
    16  Si   1.407677
    17  C   -0.345996
    18  C   -0.343957
    19  C   -0.327492
    37  C    0.006554
    38  C    0.038026
    39  C   -0.003865
 Electronic spatial extent (au):  <R**2>=           5139.1368
 Charge=              0.0000 electrons
 Dipole moment (field-independent basis, Debye):
    X=             -1.0700    Y=              2.3766    Z=             -3.7995  Tot=              4.6076
 Quadrupole moment (field-independent basis, Debye-Ang):
   XX=           -112.1552   YY=           -116.1349   ZZ=           -131.8578
   XY=             -6.0155   XZ=              6.5813   YZ=              8.0498
 Traceless Quadrupole moment (field-independent basis, Debye-Ang):
   XX=              7.8941   YY=              3.9144   ZZ=            -11.8085
   XY=             -6.0155   XZ=              6.5813   YZ=              8.0498
 Octapole moment (field-independent basis, Debye-Ang**2):
  XXX=            -21.5691  YYY=              0.2095  ZZZ=            -34.5647  XYY=              1.3745
  XXY=              1.9597  XXZ=             -0.8847  XZZ=             -2.5136  YZZ=             14.9236
  YYZ=              8.8728  XYZ=             -2.2920
 Hexadecapole moment (field-independent basis, Debye-Ang**3):
 XXXX=          -3232.0186 YYYY=          -2336.6132 ZZZZ=          -1414.8331 XXXY=             12.4500
 XXXZ=             26.4443 YYYX=            -50.1007 YYYZ=             42.5217 ZZZX=              3.4786
 ZZZY=             40.3353 XXYY=           -911.8455 XXZZ=           -803.6508 YYZZ=           -631.3765
 XXYZ=             10.9652 YYXZ=             19.2608 ZZXY=             -7.0441
 N-N= 1.647556496000D+03 E-N=-5.790535339230D+03  KE= 1.060521839701D+03
 1\1\GINC-CPU-E-532\SP\RmPW1PW91\6-311G(d)\C14H26O3Si1\KE291\06-Feb-201
 9\0\\# mPW1PW91/6-311g(d) geom=checkpoint nmr=giao scrf=(solvent=chlor
 oform)\\P_ng_correct1ginp006\\0,1\C,0,1.0738760818,-0.1282424834,0.562
 2925467\C,0,-0.3833699143,-0.523831526,0.8601847249\C,0,-1.0197601777,
 0.4816115333,1.8816194819\C,0,-0.2938788105,1.8549408728,1.7759813938\
 C,0,0.2949289946,2.1554618631,0.4198274881\H,0,1.6361735708,-0.0251530
 759,1.500814602\H,0,-0.9277748149,-0.3652522015,-0.076567558\H,0,-0.95
 34547407,2.6677493448,2.0739262525\H,0,0.5465124519,1.8563023862,2.481
 4647994\O,0,1.065214963,1.1750424764,-0.1019528117\O,0,0.156451863,3.1
 96933179,-0.1896507365\C,0,1.8636823268,-1.0528799911,-0.366789873\C,0
 ,1.2578688456,-1.2535728729,-1.759857087\C,0,-0.5542060455,-1.99848712
 31,1.2459759543\O,0,-2.4160253822,0.5925764012,1.6140486012\Si,0,-3.40
 5207718,1.4022792916,0.5144574062\C,0,-3.3607583657,3.2689454442,0.779
 4359142\C,0,-2.9599506523,1.0258554642,-1.2815793166\C,0,-5.1181123775
 ,0.7272060884,0.9001299485\H,0,-3.6942998998,1.5053916507,-1.940078182
 3\H,0,-1.9750243526,1.4123739675,-1.5624138133\H,0,-2.9807607618,-0.04
 83624958,-1.4938813562\H,0,-5.8719199873,1.1929739853,0.2554278395\H,0
 ,-5.16325241,-0.3550633931,0.7401445548\H,0,-5.3992289818,0.9249548465
 ,1.9397548206\H,0,-3.5516432136,3.5342920395,1.8248786525\H,0,-2.39933
 36805,3.6999781157,0.4834036999\H,0,-4.1388437416,3.7441592795,0.17020
 85848\H,0,0.06665407,-2.2822551015,2.1012502744\H,0,-1.5975632628,-2.2
 027777653,1.5011192333\H,0,-0.2882117686,-2.6519000718,0.4117185919\H,
 0,1.9890409841,-2.0153383935,0.1409673786\H,0,2.868403843,-0.626405282
 5,-0.4658340907\H,0,0.2800536366,-1.7435866974,-1.7193239871\H,0,1.133
 3371251,-0.2959291706,-2.2720356822\H,0,1.9146254797,-1.8802875822,-2.
 3703639145\C,0,-0.9163797652,-0.0166079813,3.3477046286\C,0,-1.4153806
 515,0.9708910734,4.3658887292\C,0,-0.6977182861,1.442050741,5.38690232
 64\H,0,0.1240557002,-0.2829621433,3.5689596321\H,0,-1.5123632173,-0.93
 27343972,3.4220593657\H,0,-2.4467810717,1.2966419617,4.2410294015\H,0,
 -1.11640031,2.1433622265,6.102841036\H,0,0.3338754252,1.1374695172,5.5
 504355462\\Version=ES64L-G09RevD.01\State=1-A\HF=-1064.3837751\RMSD=9.
 078e-09\Dipole=0.0850579,-1.6107268,0.8273088\Quadrupole=4.1976879,-3.
 3542124,-0.8434756,-7.4768849,5.4779482,6.2493901\PG=C01 [X(C14H26O3Si
 1)]\\@


 HONESTY IN A LAWYER IS LIKE A HEN'S HIND LEGS.
  -- MAGNUS OLESON, LAKE WOBEGON PATRIARCH, C.1875
 Job cpu time:       0 days  0 hours 21 minutes 45.9 seconds.
 File lengths (MBytes):  RWF=    233 Int=      0 D2E=      0 Chk=     19 Scr=      1
 Normal termination of Gaussian 09 at Wed Feb  6 11:23:16 2019.
