 Entering Gaussian System, Link 0=/usr/local/Cluster-Apps/gaussian/g09/g09
 Initial command:
 /usr/local/Cluster-Apps/gaussian/g09/l1.exe "/home/ke291/rds/hpc-work/06Feb0927IP1/Gau-319326.inp" -scrdir="/home/ke291/rds/hpc-work/06Feb0927IP1/"
 Entering Link 1 = /usr/local/Cluster-Apps/gaussian/g09/l1.exe PID=    319331.
  
 Copyright (c) 1988,1990,1992,1993,1995,1998,2003,2009,2013,
            Gaussian, Inc.  All Rights Reserved.
  
 This is part of the Gaussian(R) 09 program.  It is based on
 the Gaussian(R) 03 system (copyright 2003, Gaussian, Inc.),
 the Gaussian(R) 98 system (copyright 1998, Gaussian, Inc.),
 the Gaussian(R) 94 system (copyright 1995, Gaussian, Inc.),
 the Gaussian 92(TM) system (copyright 1992, Gaussian, Inc.),
 the Gaussian 90(TM) system (copyright 1990, Gaussian, Inc.),
 the Gaussian 88(TM) system (copyright 1988, Gaussian, Inc.),
 the Gaussian 86(TM) system (copyright 1986, Carnegie Mellon
 University), and the Gaussian 82(TM) system (copyright 1983,
 Carnegie Mellon University). Gaussian is a federally registered
 trademark of Gaussian, Inc.
  
 This software contains proprietary and confidential information,
 including trade secrets, belonging to Gaussian, Inc.
  
 This software is provided under written license and may be
 used, copied, transmitted, or stored only in accord with that
 written license.
  
 The following legend is applicable only to US Government
 contracts under FAR:
  
                    RESTRICTED RIGHTS LEGEND
  
 Use, reproduction and disclosure by the US Government is
 subject to restrictions as set forth in subparagraphs (a)
 and (c) of the Commercial Computer Software - Restricted
 Rights clause in FAR 52.227-19.
  
 Gaussian, Inc.
 340 Quinnipiac St., Bldg. 40, Wallingford CT 06492
  
  
 ---------------------------------------------------------------
 Warning -- This program may not be used in any manner that
 competes with the business of Gaussian, Inc. or will provide
 assistance to any competitor of Gaussian, Inc.  The licensee
 of this program is prohibited from giving any competitor of
 Gaussian, Inc. access to this program.  By using this program,
 the user acknowledges that Gaussian, Inc. is engaged in the
 business of creating and licensing software in the field of
 computational chemistry and represents and warrants to the
 licensee that it is not a competitor of Gaussian, Inc. and that
 it will not use this program in any manner prohibited above.
 ---------------------------------------------------------------
  

 Cite this work as:
 Gaussian 09, Revision D.01,
 M. J. Frisch, G. W. Trucks, H. B. Schlegel, G. E. Scuseria, 
 M. A. Robb, J. R. Cheeseman, G. Scalmani, V. Barone, B. Mennucci, 
 G. A. Petersson, H. Nakatsuji, M. Caricato, X. Li, H. P. Hratchian, 
 A. F. Izmaylov, J. Bloino, G. Zheng, J. L. Sonnenberg, M. Hada, 
 M. Ehara, K. Toyota, R. Fukuda, J. Hasegawa, M. Ishida, T. Nakajima, 
 Y. Honda, O. Kitao, H. Nakai, T. Vreven, J. A. Montgomery, Jr., 
 J. E. Peralta, F. Ogliaro, M. Bearpark, J. J. Heyd, E. Brothers, 
 K. N. Kudin, V. N. Staroverov, T. Keith, R. Kobayashi, J. Normand, 
 K. Raghavachari, A. Rendell, J. C. Burant, S. S. Iyengar, J. Tomasi, 
 M. Cossi, N. Rega, J. M. Millam, M. Klene, J. E. Knox, J. B. Cross, 
 V. Bakken, C. Adamo, J. Jaramillo, R. Gomperts, R. E. Stratmann, 
 O. Yazyev, A. J. Austin, R. Cammi, C. Pomelli, J. W. Ochterski, 
 R. L. Martin, K. Morokuma, V. G. Zakrzewski, G. A. Voth, 
 P. Salvador, J. J. Dannenberg, S. Dapprich, A. D. Daniels, 
 O. Farkas, J. B. Foresman, J. V. Ortiz, J. Cioslowski, 
 and D. J. Fox, Gaussian, Inc., Wallingford CT, 2013.
 
 ******************************************
 Gaussian 09:  ES64L-G09RevD.01 24-Apr-2013
                 6-Feb-2019 
 ******************************************
 %nprocshared=2
 Will use up to    2 processors via shared memory.
 %mem=6000MB
 %chk=/home/ke291/rds/hpc-work/06Feb0927IP1/P_ng_3ginp004.chk
 ----------------------------------------------------------------------
 # mPW1PW91/6-311g(d) geom=checkpoint nmr=giao scrf=(solvent=chloroform
 )
 ----------------------------------------------------------------------
 1/29=2,38=1/1;
 2/12=2,40=1/2;
 3/5=4,6=6,7=1,11=2,14=-4,16=1,25=1,30=1,70=2201,72=7,74=-7/1,2,8,3;
 4//1;
 5/5=2,38=5,53=7/2;
 8/6=1,10=90,11=11/1;
 10/13=100,45=16/2;
 6/7=2,8=2,9=2,10=2,28=1/1;
 99/9=1/99;
 -------------
 P_ng_3ginp004
 -------------
 Structure from the checkpoint file:  "/home/ke291/rds/hpc-work/06Feb0927IP1/P_ng_3ginp004.chk"
 Charge =  0 Multiplicity = 1
 Redundant internal coordinates found in file.
 C,0,-0.1023236788,0.5258698375,-0.148844238
 C,0,-1.5324204006,0.2337444639,0.3255329452
 C,0,-1.7869740325,0.9906463135,1.6586906597
 C,0,-1.6091361923,2.4951638116,1.388020151
 C,0,-0.4134465627,2.8870057978,0.5331512149
 H,0,0.6038257723,0.151570581,0.6005495186
 H,0,-1.5697307319,-0.8359219342,0.5594965044
 H,0,-2.4927574788,2.8630917854,0.8546897344
 H,0,-1.5419770974,3.0743045742,2.3117340999
 O,0,0.1587202416,1.9625589673,-0.2665851098
 O,0,-0.0001735131,4.0276306394,0.4947260602
 C,0,0.2964041503,-0.0654550261,-1.5011508486
 C,0,0.285062817,-1.5974122483,-1.5222581238
 C,0,-2.5955547647,0.5309265287,-0.7445975204
 O,0,-3.1313294838,0.7093928334,2.0408084717
 Si,0,-4.1431155444,1.114220058,3.3249284444
 C,0,-3.8901393238,-0.0588062518,4.7816625913
 C,0,-3.9131303047,2.893472585,3.9137969797
 C,0,-5.8726353468,0.8795910771,2.6239266325
 H,0,-4.6588402724,3.114195704,4.6868075099
 H,0,-2.9269049016,3.0677804715,4.3566819417
 H,0,-4.0537998613,3.6163359452,3.1039808195
 H,0,-6.0111790399,-0.1413614779,2.2529570427
 H,0,-6.633953691,1.0629152817,3.3902987647
 H,0,-6.060952866,1.5664303497,1.7922049075
 H,0,-4.6297140909,0.1551974376,5.5623320807
 H,0,-4.0224673766,-1.103374067,4.480023958
 H,0,-2.898146349,0.0367476854,5.2343763029
 H,0,-3.5938805251,0.4412321615,-0.3147829364
 H,0,-2.491427203,1.53606869,-1.1654860991
 H,0,-2.5194248715,-0.1781954328,-1.5730898423
 H,0,1.3055720062,0.2978530246,-1.7245617464
 H,0,-0.3566672798,0.3340469624,-2.2840509468
 H,0,0.6679317956,-1.9668386261,-2.4778851941
 H,0,0.9157973326,-2.0119933315,-0.7283152362
 H,0,-0.722997737,-2.0035028307,-1.3924180636
 C,0,-0.8128975247,0.5462610607,2.7859908916
 C,0,-0.7669847292,-0.936130245,3.0367566977
 C,0,0.3520290495,-1.6579679265,3.1223637294
 H,0,-1.1380251702,1.0643747067,3.6987704537
 H,0,0.1973630555,0.9183146677,2.5827655574
 H,0,-1.7287529957,-1.4291581385,3.1666310303
 H,0,0.3275488099,-2.7249301105,3.3235316905
 H,0,1.3351339109,-1.2070383554,3.0053405191
 Recover connectivity data from disk.
                          Input orientation:                          
 ---------------------------------------------------------------------
 Center     Atomic      Atomic             Coordinates (Angstroms)
 Number     Number       Type             X           Y           Z
 ---------------------------------------------------------------------
      1          6           0       -0.102324    0.525870   -0.148844
      2          6           0       -1.532420    0.233744    0.325533
      3          6           0       -1.786974    0.990646    1.658691
      4          6           0       -1.609136    2.495164    1.388020
      5          6           0       -0.413447    2.887006    0.533151
      6          1           0        0.603826    0.151571    0.600550
      7          1           0       -1.569731   -0.835922    0.559497
      8          1           0       -2.492757    2.863092    0.854690
      9          1           0       -1.541977    3.074305    2.311734
     10          8           0        0.158720    1.962559   -0.266585
     11          8           0       -0.000174    4.027631    0.494726
     12          6           0        0.296404   -0.065455   -1.501151
     13          6           0        0.285063   -1.597412   -1.522258
     14          6           0       -2.595555    0.530927   -0.744598
     15          8           0       -3.131329    0.709393    2.040808
     16         14           0       -4.143116    1.114220    3.324928
     17          6           0       -3.890139   -0.058806    4.781663
     18          6           0       -3.913130    2.893473    3.913797
     19          6           0       -5.872635    0.879591    2.623927
     20          1           0       -4.658840    3.114196    4.686808
     21          1           0       -2.926905    3.067780    4.356682
     22          1           0       -4.053800    3.616336    3.103981
     23          1           0       -6.011179   -0.141361    2.252957
     24          1           0       -6.633954    1.062915    3.390299
     25          1           0       -6.060953    1.566430    1.792205
     26          1           0       -4.629714    0.155197    5.562332
     27          1           0       -4.022467   -1.103374    4.480024
     28          1           0       -2.898146    0.036748    5.234376
     29          1           0       -3.593881    0.441232   -0.314783
     30          1           0       -2.491427    1.536069   -1.165486
     31          1           0       -2.519425   -0.178195   -1.573090
     32          1           0        1.305572    0.297853   -1.724562
     33          1           0       -0.356667    0.334047   -2.284051
     34          1           0        0.667932   -1.966839   -2.477885
     35          1           0        0.915797   -2.011993   -0.728315
     36          1           0       -0.722998   -2.003503   -1.392418
     37          6           0       -0.812898    0.546261    2.785991
     38          6           0       -0.766985   -0.936130    3.036757
     39          6           0        0.352029   -1.657968    3.122364
     40          1           0       -1.138025    1.064375    3.698770
     41          1           0        0.197363    0.918315    2.582766
     42          1           0       -1.728753   -1.429158    3.166631
     43          1           0        0.327549   -2.724930    3.323532
     44          1           0        1.335134   -1.207038    3.005341
 ---------------------------------------------------------------------
                    Distance matrix (angstroms):
                    1          2          3          4          5
     1  C    0.000000
     2  C    1.534779   0.000000
     3  C    2.514209   1.554029   0.000000
     4  C    2.917286   2.499756   1.538981   0.000000
     5  C    2.477272   2.887041   2.597998   1.521189   0.000000
     6  H    1.095599   2.155443   2.745839   3.318093   2.919245
     7  H    2.123560   1.095590   2.142843   3.432803   3.898446
     8  H    3.490539   2.848811   2.156525   1.095718   2.104161
     9  H    3.823816   3.466103   2.197299   1.092319   2.114715
    10  O    1.464951   2.489851   2.904656   2.479254   1.349650
    11  O    3.561874   4.095116   3.710895   2.394826   1.213794
    12  C    1.528850   2.602094   3.929429   4.305248   3.655037
    13  C    2.558253   3.173439   4.594542   5.367205   4.982231
    14  C    2.563425   1.537450   2.577002   3.062566   3.456204
    15  O    3.742076   2.392681   1.425626   2.435607   3.794986
    16  Si   5.361087   4.072756   2.888429   3.475582   4.984699
    17  C    6.244941   5.049903   3.908658   4.821053   6.230173
    18  C    6.052507   5.061380   3.636866   3.441887   4.865860
    19  C    6.411698   4.953504   4.199600   4.723872   6.180922
    20  H    7.130554   6.090338   4.682581   4.534963   5.943723
    21  H    5.894008   5.121182   3.590694   3.298084   4.579251
    22  H    5.978797   5.051639   3.757873   3.190287   4.515890
    23  H    6.413144   4.890291   4.413446   5.203591   6.592674
    24  H    7.448231   6.008823   5.147514   5.595467   7.084159
    25  H    6.352614   4.943155   4.314655   4.565587   5.934936
    26  H    7.297410   6.084691   4.900772   5.658994   7.108611
    27  H    6.280795   5.024740   4.164406   5.322981   6.672778
    28  H    6.085633   5.099094   3.863956   4.743397   6.033177
    29  H    3.496522   2.168565   2.731550   3.325264   4.100727
    30  H    2.786015   2.199745   2.961370   2.866827   3.004730
    31  H    2.892501   2.179138   3.513841   4.091900   4.273974
    32  H    2.125335   3.501599   4.635752   4.797068   3.841355
    33  H    2.158841   2.863980   4.245246   4.441082   3.802295
    34  H    3.497331   4.188469   5.646640   6.327695   5.813392
    35  H    2.795193   3.485356   4.692400   5.582887   5.230524
    36  H    2.886077   2.934586   4.405251   5.362283   5.265046
    37  C    3.019700   2.582486   1.554705   2.527160   3.273215
    38  C    3.567530   3.050448   2.579130   3.898888   4.583601
    39  C    3.959342   3.866780   3.705783   4.909442   5.286470
    40  H    4.020796   3.496316   2.142078   2.758382   3.723996
    41  H    2.775881   2.925045   2.190146   2.679050   2.906846
    42  H    4.178491   3.297822   2.851794   4.310228   5.224416
    43  H    4.775970   4.604480   4.587855   5.894602   6.311032
    44  H    3.875324   4.180920   4.048560   4.999075   5.092195
                    6          7          8          9         10
     6  H    0.000000
     7  H    2.387713   0.000000
     8  H    4.123804   3.823849   0.000000
     9  H    4.009364   4.284971   1.752590   0.000000
    10  O    2.056628   3.391379   3.016380   3.282694   0.000000
    11  O    3.924265   5.110954   2.774653   2.566614   2.206663
    12  C    2.135124   2.884848   4.680363   5.270278   2.378224
    13  C    2.768910   2.890299   5.767345   6.313676   3.777045
    14  C    3.491327   2.149709   2.829714   4.113388   3.140716
    15  O    4.041893   2.649693   2.540290   2.862211   4.209384
    16  Si   5.557192   4.251232   3.447363   3.410926   5.667843
    17  C    6.141798   4.880050   5.090312   4.629341   6.779674
    18  C    6.236868   5.536356   3.372910   2.867346   5.909498
    19  C    6.824120   5.071474   4.299773   4.865062   6.775332
    20  H    7.291797   6.494669   4.409092   3.918852   7.005088
    21  H    5.922742   5.612435   3.534732   2.469793   5.667203
    22  H    6.321807   5.698035   2.839637   2.688997   5.642785
    23  H    6.824555   4.803820   4.833341   5.506154   6.988722
    24  H    7.810167   6.104538   5.178750   5.580073   7.766761
    25  H    6.916729   5.240414   3.910535   4.792154   6.563526
    26  H    7.211743   5.947620   5.836195   5.349925   7.757057
    27  H    6.166668   4.632276   5.587120   5.320462   7.029408
    28  H    5.809419   4.937686   5.228213   4.428068   6.581319
    29  H    4.306097   2.548072   2.906122   4.247584   4.049540
    30  H    3.823128   3.074318   2.417044   3.919016   2.830759
    31  H    3.819443   2.425376   3.891562   5.160040   3.669093
    32  H    2.433103   3.843141   5.259306   5.666472   2.492431
    33  H    3.045778   3.305467   4.561868   5.480439   2.643453
    34  H    3.737449   3.938501   6.665151   7.296388   4.537544
    35  H    2.558167   3.036355   6.155535   6.415059   4.072275
    36  H    3.221292   2.426968   5.644935   6.338422   4.215990
    37  C    2.634206   2.727729   3.452471   2.673477   3.502593
    38  C    2.999553   2.606005   4.708906   4.148477   4.491258
    39  C    3.114061   3.307145   5.803028   5.161277   4.962918
    40  H    3.669636   3.694934   3.627599   2.475251   4.267590
    41  H    2.163860   3.208362   3.742346   2.783353   3.034920
    42  H    3.811089   2.678501   4.934793   4.587691   5.182014
    43  H    3.970544   3.848105   6.728692   6.176567   5.906775
    44  H    2.857210   3.815510   5.986987   5.204686   4.704869
                   11         12         13         14         15
    11  O    0.000000
    12  C    4.563423   0.000000
    13  C    5.982532   1.532145   0.000000
    14  C    4.527567   3.048191   3.665043   0.000000
    15  O    4.817179   4.989511   5.448718   2.842075   0.000000
    16  Si   5.801894   6.662733   7.103304   4.392746   1.684209
    17  C    7.085804   7.549896   7.716154   5.706425   2.945879
    18  C    5.318608   7.469745   8.206313   5.386861   2.981527
    19  C    6.994959   7.481071   7.825832   4.712513   2.807802
    20  H    6.333331   8.541397   9.230055   6.358505   3.888146
    21  H    4.939815   7.383840   8.163498   5.706879   3.311654
    22  H    4.838312   7.327148   8.210419   5.143713   3.229800
    23  H    7.523567   7.340619   7.484317   4.593887   3.010369
    24  H    7.821823   8.557415   8.892882   5.804226   3.770209
    25  H    6.668883   7.343380   7.827355   4.417762   3.062517
    26  H    7.880927   8.614413   8.798755   6.637495   3.866965
    27  H    7.641247   7.450126   7.404477   5.657180   3.167021
    28  H    6.840298   7.455396   7.645614   6.006988   3.271957
    29  H    5.141234   4.098599   4.545357   1.090614   2.415507
    30  H    3.894936   3.232577   4.201772   1.094669   3.372416
    31  H    5.320852   2.819003   3.143551   1.093183   3.771273
    32  H    4.532268   1.095593   2.162035   4.029075   5.833821
    33  H    4.635866   1.095005   2.173173   2.724205   5.152091
    34  H    6.724317   2.169632   1.093749   4.460209   6.481913
    35  H    6.229919   2.184018   1.095467   4.335470   5.608317
    36  H    6.360689   2.192495   1.094511   3.217060   4.994688
    37  C    4.246216   4.470384   4.935774   3.955143   2.440704
    38  C    5.629284   4.741464   4.725327   4.449108   3.047915
    39  C    6.273321   4.890407   4.645499   5.332251   4.348327
    40  H    4.510154   5.511196   6.030707   4.706642   2.616890
    41  H    3.750570   4.201903   4.815370   4.361399   3.378988
    42  H    6.316930   5.267745   5.105825   4.459931   2.794297
    43  H    7.328480   5.509205   4.975418   5.974514   5.040217
    44  H    5.957180   4.763469   4.664139   5.703759   4.955030
                   16         17         18         19         20
    16  Si   0.000000
    17  C    1.887343   0.000000
    18  C    1.888226   3.077283   0.000000
    19  C    1.880876   3.076801   3.091787   0.000000
    20  H    2.473982   3.266166   1.096516   3.274482   0.000000
    21  H    2.521920   3.299087   1.095067   4.058071   1.763728
    22  H    2.513440   4.043275   1.094587   3.320902   1.767359
    23  H    2.493044   3.301511   4.046037   1.095060   4.283818
    24  H    2.492224   3.274549   3.320824   1.095691   3.128859
    25  H    2.496364   4.036172   3.297777   1.094976   3.569345
    26  H    2.482434   1.096455   3.275563   3.271670   3.085946
    27  H    2.503303   1.095271   4.038236   3.286392   4.270319
    28  H    2.521287   1.094591   3.306811   4.046284   3.587556
    29  H    3.741934   5.129480   4.898601   3.744449   5.770163
    30  H    4.803109   6.314159   5.446366   5.120857   6.437197
    31  H    5.319520   6.501999   6.440768   5.475206   7.389401
    32  H    7.473420   8.333881   8.109450   8.412754   9.198459
    33  H    6.812232   7.909745   7.590284   7.403497   8.650479
    34  H    8.143202   8.781665   9.244585   8.769816  10.272499
    35  H    7.196846   7.567815   8.302490   8.104419   9.310100
    36  H    6.608386   7.206379   7.893873   7.138769   8.867845
    37  C    3.421021   3.717288   4.048801   5.073295   4.999867
    38  C    3.960459   3.683543   5.033219   5.434606   5.854430
    39  C    5.285110   4.827689   6.287572   6.740482   7.094353
    40  H    3.028665   3.163593   3.330622   4.858597   4.192150
    41  H    4.407827   4.743162   4.750689   6.070261   5.729886
    42  H    3.510410   3.026183   4.900500   4.774580   5.615907
    43  H    5.892870   5.198390   7.063867   7.205852   7.798589
    44  H    5.958321   5.637130   6.721887   7.513417   7.578134
                   21         22         23         24         25
    21  H    0.000000
    22  H    1.772023   0.000000
    23  H    4.923109   4.321558   0.000000
    24  H    4.323840   3.641309   1.769654   0.000000
    25  H    4.318895   3.154605   1.769554   1.770808   0.000000
    26  H    3.582777   4.284232   3.598382   3.091708   4.272456
    27  H    4.314395   4.916314   3.136920   3.563730   4.302052
    28  H    3.155683   4.322912   4.314111   4.290676   4.918518
    29  H    5.400574   4.688364   3.574358   4.832822   3.433936
    30  H    5.747184   4.999687   5.185381   6.175725   4.635771
    31  H    6.772340   6.215124   5.179994   6.565434   5.187615
    32  H    7.909986   7.940404   8.339569   9.475399   8.260909
    33  H    7.627500   7.312530   7.265257   8.493163   7.118532
    34  H    9.218544   9.199120   8.385926   9.845432   8.717543
    35  H    8.150316   8.429797   7.769829   9.133279   8.236090
    36  H    7.976670   7.930601   6.687390   8.198579   7.167985
    37  C    3.646115   4.475480   5.270586   5.875101   5.437871
    38  C    4.736957   5.615391   5.361676   6.208261   5.986470
    39  C    5.882826   6.872405   6.598968   7.501930   7.300165
    40  H    2.765244   3.920207   5.224156   5.504579   5.303043
    41  H    4.186649   5.061953   6.306955   6.880400   6.341258
    42  H    4.803566   5.555788   4.564252   5.506492   5.443395
    43  H    6.724163   7.710776   6.928234   7.925576   7.846890
    44  H    6.185885   7.232930   7.461237   8.295013   7.991616
                   26         27         28         29         30
    26  H    0.000000
    27  H    1.767524   0.000000
    28  H    1.766327   1.770035   0.000000
    29  H    5.974550   5.055657   5.607212   0.000000
    30  H    7.193234   6.417361   6.585714   1.771374   0.000000
    31  H    7.448404   6.305179   6.821380   1.766772   1.762279
    32  H    9.399297   8.297489   8.134264   5.100262   4.032734
    33  H    8.936254   7.826684   7.941930   3.790654   2.693185
    34  H    9.859675   8.435515   8.729848   5.351716   4.896356
    35  H    8.661504   7.234559   7.368663   5.150390   4.938526
    36  H    8.263835   6.795757   7.266932   3.921734   3.963257
    37  C    4.735936   3.986525   3.256142   4.166497   4.405832
    38  C    4.742384   3.564991   3.212145   4.595790   5.171490
    39  C    5.835990   4.613787   4.230402   5.638335   6.055805
    40  H    4.060955   3.691815   2.551887   4.746382   5.071014
    41  H    5.723708   5.049137   4.170177   4.795511   4.654095
    42  H    4.082296   2.663130   2.791403   4.370046   5.304854
    43  H    6.154821   4.784303   4.656533   6.216070   6.801031
    44  H    6.631237   5.557817   4.943305   6.167268   6.289913
                   31         32         33         34         35
    31  H    0.000000
    32  H    3.857482   0.000000
    33  H    2.333533   1.754246   0.000000
    34  H    3.765255   2.470407   2.526153   0.000000
    35  H    3.984622   2.545549   3.089237   1.767617   0.000000
    36  H    2.567399   3.085718   2.528507   1.764729   1.768263
    37  C    4.736946   4.989459   5.094949   6.018049   4.677970
    38  C    4.989609   5.337449   5.485682   5.790736   4.262042
    39  C    5.699321   5.312924   5.805144   5.617649   3.907800
    40  H    5.589701   5.997604   6.077668   7.113425   5.768996
    41  H    5.084723   4.490676   4.932973   5.844290   4.479521
    42  H    4.965383   6.009448   5.890793   6.155791   4.743833
    43  H    6.210316   5.964645   6.424210   5.860631   4.155933
    44  H    6.072740   4.963622   5.763228   5.575681   3.842393
                   36         37         38         39         40
    36  H    0.000000
    37  C    4.895761   0.000000
    38  C    4.556184   1.504153   0.000000
    39  C    4.653851   2.515716   1.334380   0.000000
    40  H    5.958550   1.098779   2.139615   3.156526   0.000000
    41  H    5.018582   1.095605   2.138934   2.636725   1.746443
    42  H    4.703865   2.210421   1.088550   2.093793   2.617219
    43  H    4.885109   3.505747   2.116613   1.086037   4.080140
    44  H    4.920421   2.781405   2.119736   1.087900   3.428801
                   41         42         43         44
    41  H    0.000000
    42  H    3.092160   0.000000
    43  H    3.720069   2.435574   0.000000
    44  H    2.447492   3.076159   1.849451   0.000000
 Stoichiometry    C14H26O3Si
 Framework group  C1[X(C14H26O3Si)]
 Deg. of freedom   126
 Full point group                 C1      NOp   1
 Largest Abelian subgroup         C1      NOp   1
 Largest concise Abelian subgroup C1      NOp   1
                         Standard orientation:                         
 ---------------------------------------------------------------------
 Center     Atomic      Atomic             Coordinates (Angstroms)
 Number     Number       Type             X           Y           Z
 ---------------------------------------------------------------------
      1          6           0        2.443277    0.007076    0.030721
      2          6           0        1.130563    0.255321    0.786170
      3          6           0       -0.062517   -0.102815   -0.142973
      4          6           0        0.064678   -1.588958   -0.521998
      5          6           0        1.459300   -2.070657   -0.892150
      6          1           0        2.478759    0.664389   -0.845076
      7          1           0        1.075275    1.334530    0.966641
      8          1           0       -0.245581   -2.197831    0.334513
      9          1           0       -0.594638   -1.860444   -1.349500
     10          8           0        2.533115   -1.360193   -0.487533
     11          8           0        1.640034   -3.115891   -1.482165
     12          6           0        3.732116    0.219389    0.825201
     13          6           0        3.928137    1.665741    1.291150
     14          6           0        1.070117   -0.464524    2.143344
     15          8           0       -1.251789    0.118179    0.611482
     16         14           0       -2.908920   -0.009015    0.338908
     17          6           0       -3.585327    1.560087   -0.462626
     18          6           0       -3.369937   -1.498294   -0.726414
     19          6           0       -3.633983   -0.194344    2.064489
     20          1           0       -4.462336   -1.569090   -0.789655
     21          1           0       -2.991193   -1.418438   -1.750790
     22          1           0       -3.002699   -2.437737   -0.301320
     23          1           0       -3.351391    0.649772    2.702272
     24          1           0       -4.728345   -0.233421    2.027256
     25          1           0       -3.281278   -1.111599    2.547413
     26          1           0       -4.677779    1.498628   -0.533233
     27          1           0       -3.343078    2.447627    0.131685
     28          1           0       -3.199476    1.718234   -1.474673
     29          1           0        0.071703   -0.370773    2.572086
     30          1           0        1.309793   -1.529347    2.059635
     31          1           0        1.782437   -0.025014    2.846537
     32          1           0        4.562380   -0.072368    0.172619
     33          1           0        3.754518   -0.465418    1.679353
     34          1           0        4.905200    1.781663    1.768850
     35          1           0        3.884033    2.365467    0.449434
     36          1           0        3.168350    1.970852    2.017500
     37          6           0       -0.086865    0.763008   -1.434046
     38          6           0       -0.043134    2.248580   -1.202445
     39          6           0        0.787318    3.089945   -1.821335
     40          1           0       -1.011563    0.500216   -1.966201
     41          1           0        0.729208    0.468986   -2.103319
     42          1           0       -0.759089    2.641637   -0.482823
     43          1           0        0.763437    4.158497   -1.628716
     44          1           0        1.514895    2.743102   -2.551992
 ---------------------------------------------------------------------
 Rotational constants (GHZ):      0.5092653      0.2603734      0.2300412
 Standard basis: 6-311G(d) (5D, 7F)
 There are   428 symmetry adapted cartesian basis functions of A   symmetry.
 There are   410 symmetry adapted basis functions of A   symmetry.
   410 basis functions,   720 primitive gaussians,   428 cartesian basis functions
    74 alpha electrons       74 beta electrons
       nuclear repulsion energy      1625.9907399787 Hartrees.
 NAtoms=   44 NActive=   44 NUniq=   44 SFac= 1.00D+00 NAtFMM=   60 NAOKFM=F Big=F
 Integral buffers will be    131072 words long.
 Raffenetti 2 integral format.
 Two-electron integral symmetry is turned on.
 ------------------------------------------------------------------------------
 Polarizable Continuum Model (PCM)
 =================================
 Model                : PCM (using non-symmetric T matrix).
 Atomic radii         : UFF (Universal Force Field).
 Polarization charges : Total charges.
 Charge compensation  : None.
 Solution method      : On-the-fly selection.
 Cavity type          : Scaled VdW (van der Waals Surface) (Alpha=1.100).
 Cavity algorithm     : GePol (No added spheres)
                        Default sphere list used, NSphG=   44.
                        Lebedev-Laikov grids with approx.  5.0 points / Ang**2.
                        Smoothing algorithm: Karplus/York (Gamma=1.0000).
                        Polarization charges: spherical gaussians, with
                                              point-specific exponents (IZeta= 3).
                        Self-potential: point-specific (ISelfS= 7).
                        Self-field    : sphere-specific E.n sum rule (ISelfD= 2).
 Solvent              : Chloroform, Eps=   4.711300 Eps(inf)=   2.090627
 ------------------------------------------------------------------------------
 One-electron integrals computed using PRISM.
 NBasis=   410 RedAO= T EigKep=  1.02D-03  NBF=   410
 NBsUse=   410 1.00D-06 EigRej= -1.00D+00 NBFU=   410
 ExpMin= 6.54D-02 ExpMax= 6.94D+04 ExpMxC= 2.33D+03 IAcc=2 IRadAn=         4 AccDes= 0.00D+00
 Harris functional with IExCor=  908 and IRadAn=       4 diagonalized for initial guess.
 HarFok:  IExCor=  908 AccDes= 0.00D+00 IRadAn=         4 IDoV= 1 UseB2=F ITyADJ=14
 ICtDFT=  3500011 ScaDFX=  1.000000  1.000000  1.000000  1.000000
 FoFCou: FMM=F IPFlag=           0 FMFlag=      100000 FMFlg1=           0
         NFxFlg=           0 DoJE=T BraDBF=F KetDBF=T FulRan=T
         wScrn=  0.000000 ICntrl=     500 IOpCl=  0 I1Cent=   200000004 NGrid=           0
         NMat0=    1 NMatS0=      1 NMatT0=    0 NMatD0=    1 NMtDS0=    0 NMtDT0=    0
 Petite list used in FoFCou.
 Requested convergence on RMS density matrix=1.00D-08 within 128 cycles.
 Requested convergence on MAX density matrix=1.00D-06.
 Requested convergence on             energy=1.00D-06.
 No special actions if energy rises.
 Inv3:  Mode=1 IEnd=    24316227.
 Iteration    1 A*A^-1 deviation from unit magnitude is 5.22D-15 for   2838.
 Iteration    1 A*A^-1 deviation from orthogonality  is 4.72D-15 for   2809   1287.
 Iteration    1 A^-1*A deviation from unit magnitude is 5.77D-15 for   2837.
 Iteration    1 A^-1*A deviation from orthogonality  is 5.18D-13 for   2847   2468.
 Error on total polarization charges =  0.01105
 SCF Done:  E(RmPW1PW91) =  -1064.38398449     A.U. after   12 cycles
            NFock= 12  Conv=0.91D-08     -V/T= 2.0036
 DoSCS=F DFT=T ScalE2(SS,OS)=  1.000000  1.000000
 Range of M.O.s used for correlation:     1   410
 NBasis=   410 NAE=    74 NBE=    74 NFC=     0 NFV=     0
 NROrb=    410 NOA=    74 NOB=    74 NVA=   336 NVB=   336
 NEqPCM:  Using equilibrium solvation (IEInf=0, Eps=   4.7113, EpsInf=   2.0906)
          Differentiating once with respect to magnetic field using GIAOs.
          Electric field/nuclear overlap derivatives assumed to be zero.
 FoFJK:  IHMeth= 1 ICntrl=    6127 DoSepK=F KAlg= 0 I1Cent=   0 FoldK=F
 IRaf=         1 NMat=   1 IRICut=       1 DoRegI=T DoRafI=F ISym2E= 0.
          There are     3 degrees of freedom in the 1st order CPHF.  IDoFFX=0 NUNeed=     3.
      3 vectors produced by pass  0 Test12= 8.29D-13 3.33D-08 XBig12= 3.80D+01 8.42D-01.
 AX will form     3 AO Fock derivatives at one time.
      3 vectors produced by pass  1 Test12= 8.29D-13 3.33D-08 XBig12= 7.53D-02 8.96D-02.
      3 vectors produced by pass  2 Test12= 8.29D-13 3.33D-08 XBig12= 8.91D-04 9.68D-03.
      3 vectors produced by pass  3 Test12= 8.29D-13 3.33D-08 XBig12= 5.18D-06 5.94D-04.
      3 vectors produced by pass  4 Test12= 8.29D-13 3.33D-08 XBig12= 3.11D-08 4.14D-05.
      3 vectors produced by pass  5 Test12= 8.29D-13 3.33D-08 XBig12= 8.01D-11 1.72D-06.
      2 vectors produced by pass  6 Test12= 8.29D-13 3.33D-08 XBig12= 2.27D-13 9.91D-08.
 InvSVY:  IOpt=1 It=  1 EMax= 8.88D-16
 Solved reduced A of dimension    20 with     3 vectors.
 Calculating GIAO nuclear magnetic shielding tensors.
 SCF GIAO Magnetic shielding tensor (ppm):
      1  C    Isotropic =   104.9154   Anisotropy =    62.8889
   XX=    94.7345   YX=     9.2935   ZX=     5.8053
   XY=     0.0203   YY=   137.3768   ZY=    23.5096
   XZ=     3.9270   YZ=    23.6562   ZZ=    82.6350
   Eigenvalues:    73.4605    94.4445   146.8414
      2  C    Isotropic =   148.9338   Anisotropy =    15.6203
   XX=   158.8117   YX=     2.6761   ZX=    -1.8918
   XY=     3.1561   YY=   137.7371   ZY=    -3.7560
   XZ=     5.7164   YZ=    -9.8514   ZZ=   150.2526
   Eigenvalues:   134.2688   153.1853   159.3474
      3  C    Isotropic =   108.0340   Anisotropy =    55.5825
   XX=   134.0957   YX=    -6.0964   ZX=   -22.1329
   XY=    -0.6759   YY=    85.7970   ZY=     2.5079
   XZ=   -19.4288   YZ=     3.9820   ZZ=   104.2091
   Eigenvalues:    85.2408    93.7721   145.0890
      4  C    Isotropic =   143.2578   Anisotropy =    39.7580
   XX=   149.2336   YX=   -16.0888   ZX=    -6.5628
   XY=   -13.2184   YY=   152.2542   ZY=     2.6319
   XZ=   -14.5520   YZ=    14.1792   ZZ=   128.2857
   Eigenvalues:   123.6534   136.3570   169.7632
      5  C    Isotropic =    13.0169   Anisotropy =    88.7077
   XX=   -67.1131   YX=   -26.0991   ZX=    -9.8651
   XY=   -37.5584   YY=    41.5288   ZY=   -15.5897
   XZ=   -18.1616   YZ=   -14.7063   ZZ=    64.6349
   Eigenvalues:   -77.9117    44.8070    72.1553
      6  H    Isotropic =    27.8731   Anisotropy =     2.4761
   XX=    29.0702   YX=     0.3478   ZX=     0.1545
   XY=     0.8665   YY=    27.3623   ZY=    -2.2886
   XZ=     0.6977   YZ=    -2.0848   ZZ=    27.1868
   Eigenvalues:    24.9572    29.1383    29.5238
      7  H    Isotropic =    30.1160   Anisotropy =     4.3903
   XX=    29.6247   YX=     0.3690   ZX=     2.7257
   XY=    -0.2928   YY=    32.7434   ZY=    -0.7390
   XZ=     2.1087   YZ=    -1.3176   ZZ=    27.9799
   Eigenvalues:    26.1365    31.1687    33.0429
      8  H    Isotropic =    29.5787   Anisotropy =     4.0223
   XX=    29.3837   YX=     0.6983   ZX=    -0.3432
   XY=     1.1862   YY=    31.7508   ZY=    -1.1760
   XZ=    -0.7477   YZ=    -0.3793   ZZ=    27.6016
   Eigenvalues:    27.3838    29.0921    32.2603
      9  H    Isotropic =    29.6291   Anisotropy =     4.0856
   XX=    31.8815   YX=     0.0445   ZX=     1.6281
   XY=    -1.1864   YY=    29.5969   ZY=     3.1900
   XZ=     1.0333   YZ=     3.1645   ZZ=    27.4089
   Eigenvalues:    24.8571    31.6774    32.3529
     10  O    Isotropic =   104.1563   Anisotropy =   178.7371
   XX=   188.5136   YX=    66.8770   ZX=    43.4065
   XY=    80.7154   YY=   -28.8173   ZY=  -108.3477
   XZ=    53.6520   YZ=  -130.5940   ZZ=   152.7727
   Eigenvalues:  -113.5559   202.7105   223.3144
     11  O    Isotropic =  -104.6344   Anisotropy =   568.0656
   XX=  -237.2798   YX=   -74.2201   ZX=   -25.3568
   XY=   -68.1504   YY=  -191.6209   ZY=  -254.8733
   XZ=   -15.1064   YZ=  -287.9417   ZZ=   114.9974
   Eigenvalues:  -384.9417  -203.0376   274.0760
     12  C    Isotropic =   159.8207   Anisotropy =    24.4977
   XX=   166.9710   YX=     4.1175   ZX=    12.3394
   XY=     0.4815   YY=   163.0061   ZY=     7.2692
   XZ=    11.1606   YZ=    11.0279   ZZ=   149.4851
   Eigenvalues:   141.1168   162.1928   176.1526
     13  C    Isotropic =   178.3479   Anisotropy =    16.6295
   XX=   174.3823   YX=     2.7816   ZX=     2.6331
   XY=     4.9588   YY=   187.1267   ZY=     4.1139
   XZ=     2.8130   YZ=     3.4790   ZZ=   173.5346
   Eigenvalues:   171.1900   174.4194   189.4342
     14  C    Isotropic =   181.4946   Anisotropy =    12.5559
   XX=   178.6005   YX=     2.1878   ZX=     1.7347
   XY=     1.5760   YY=   180.3414   ZY=    -6.9393
   XZ=     1.9792   YZ=    -5.8460   ZZ=   185.5420
   Eigenvalues:   174.4199   180.1987   189.8653
     15  O    Isotropic =   245.2000   Anisotropy =    13.7832
   XX=   238.3535   YX=    -3.2221   ZX=     0.2995
   XY=    -6.4057   YY=   246.5173   ZY=     7.3917
   XZ=     3.5108   YZ=     3.1465   ZZ=   250.7292
   Eigenvalues:   235.0529   246.1583   254.3888
     16  Si   Isotropic =   332.6202   Anisotropy =    43.3645
   XX=   360.2577   YX=    10.2242   ZX=    11.3783
   XY=     5.0241   YY=   314.2226   ZY=    -2.5074
   XZ=    -7.6809   YZ=    -4.5200   ZZ=   323.3803
   Eigenvalues:   311.7696   324.5611   361.5298
     17  C    Isotropic =   185.0737   Anisotropy =    11.0523
   XX=   186.7172   YX=    -2.6401   ZX=     1.5491
   XY=    -0.3345   YY=   189.2286   ZY=    -5.6268
   XZ=     2.4313   YZ=    -5.2160   ZZ=   179.2754
   Eigenvalues:   176.7379   186.0414   192.4419
     18  C    Isotropic =   185.3278   Anisotropy =     8.3086
   XX=   188.1856   YX=     1.4516   ZX=     1.5971
   XY=    -1.1255   YY=   187.2314   ZY=     5.6683
   XZ=     0.0502   YZ=     6.3025   ZZ=   180.5664
   Eigenvalues:   177.0130   188.1035   190.8669
     19  C    Isotropic =   186.5561   Anisotropy =    12.5619
   XX=   188.9210   YX=     0.5763   ZX=    -3.0453
   XY=     0.0725   YY=   177.5928   ZY=    -2.0703
   XZ=    -2.7552   YZ=    -2.7250   ZZ=   193.1544
   Eigenvalues:   177.2307   187.5069   194.9307
     20  H    Isotropic =    32.1527   Anisotropy =    10.5249
   XX=    38.2953   YX=     2.5590   ZX=     1.6919
   XY=     2.0750   YY=    29.4976   ZY=     1.1598
   XZ=     1.3809   YZ=     1.1915   ZZ=    28.6653
   Eigenvalues:    27.8334    29.4554    39.1694
     21  H    Isotropic =    31.8614   Anisotropy =     6.4820
   XX=    31.0340   YX=     1.1505   ZX=    -1.0030
   XY=     0.6820   YY=    28.9212   ZY=     1.6929
   XZ=    -1.6575   YZ=     1.2231   ZZ=    35.6289
   Eigenvalues:    28.1224    31.2790    36.1827
     22  H    Isotropic =    31.8790   Anisotropy =     7.3106
   XX=    30.8943   YX=    -0.5367   ZX=     0.9566
   XY=    -1.1636   YY=    36.3486   ZY=    -1.7476
   XZ=     0.4885   YZ=    -1.0899   ZZ=    28.3939
   Eigenvalues:    28.0318    30.8524    36.7527
     23  H    Isotropic =    31.8620   Anisotropy =     8.1691
   XX=    29.6832   YX=     0.9662   ZX=    -0.5578
   XY=     1.0051   YY=    31.9377   ZY=     3.8969
   XZ=    -0.1556   YZ=     4.5475   ZZ=    33.9652
   Eigenvalues:    28.0126    30.2654    37.3081
     24  H    Isotropic =    32.3289   Anisotropy =    10.3653
   XX=    38.7269   YX=     0.5212   ZX=    -2.2640
   XY=     0.5023   YY=    28.2446   ZY=    -0.2953
   XZ=    -1.9555   YZ=    -0.2132   ZZ=    30.0150
   Eigenvalues:    28.2031    29.5444    39.2390
     25  H    Isotropic =    31.9523   Anisotropy =     7.9980
   XX=    30.0765   YX=    -1.3590   ZX=    -0.5321
   XY=    -1.4519   YY=    33.2019   ZY=    -3.9931
   XZ=     0.0138   YZ=    -4.5663   ZZ=    32.5784
   Eigenvalues:    27.9552    30.6173    37.2843
     26  H    Isotropic =    32.2159   Anisotropy =    10.3059
   XX=    38.6204   YX=    -1.6644   ZX=     1.3803
   XY=    -1.3928   YY=    29.5517   ZY=    -0.7967
   XZ=     1.4341   YZ=    -0.6985   ZZ=    28.4754
   Eigenvalues:    28.0559    29.5053    39.0865
     27  H    Isotropic =    31.8467   Anisotropy =     7.9206
   XX=    29.9962   YX=    -0.3331   ZX=     0.2494
   XY=     0.2523   YY=    36.0896   ZY=     3.1856
   XZ=     0.3729   YZ=     2.4552   ZZ=    29.4543
   Eigenvalues:    28.3602    30.0528    37.1271
     28  H    Isotropic =    31.8969   Anisotropy =     6.5057
   XX=    31.4690   YX=    -0.6703   ZX=    -1.5684
   XY=    -0.3331   YY=    29.5770   ZY=    -3.2406
   XZ=    -1.5950   YZ=    -2.3952   ZZ=    34.6446
   Eigenvalues:    27.9554    31.5012    36.2340
     29  H    Isotropic =    30.7176   Anisotropy =     8.6282
   XX=    35.1482   YX=    -0.9320   ZX=    -2.0195
   XY=    -0.3081   YY=    24.0073   ZY=    -1.0102
   XZ=    -2.2646   YZ=    -1.1281   ZZ=    32.9972
   Eigenvalues:    23.8131    31.8699    36.4697
     30  H    Isotropic =    31.5050   Anisotropy =     7.8661
   XX=    28.5680   YX=    -1.3098   ZX=     0.6894
   XY=    -1.2356   YY=    35.1387   ZY=    -2.9736
   XZ=     0.7296   YZ=    -2.5688   ZZ=    30.8084
   Eigenvalues:    28.3039    29.4621    36.7491
     31  H    Isotropic =    31.2612   Anisotropy =     9.8784
   XX=    31.5148   YX=     2.7337   ZX=     3.1798
   XY=     2.7147   YY=    26.8327   ZY=     0.9570
   XZ=     3.5745   YZ=     1.0351   ZZ=    35.4362
   Eigenvalues:    25.5508    30.3861    37.8468
     32  H    Isotropic =    30.2259   Anisotropy =     9.0612
   XX=    34.8758   YX=    -1.0818   ZX=    -2.8813
   XY=    -1.3329   YY=    28.2076   ZY=     3.5141
   XZ=    -2.2439   YZ=     2.5625   ZZ=    27.5942
   Eigenvalues:    24.7158    29.6952    36.2666
     33  H    Isotropic =    30.3692   Anisotropy =     5.4848
   XX=    31.2542   YX=    -0.4965   ZX=     2.3744
   XY=    -0.1490   YY=    30.2153   ZY=    -3.3621
   XZ=     1.8187   YZ=    -2.6519   ZZ=    29.6381
   Eigenvalues:    26.4952    30.5867    34.0257
     34  H    Isotropic =    31.0383   Anisotropy =    12.0075
   XX=    35.2922   YX=     2.7813   ZX=     4.3563
   XY=     3.6154   YY=    29.3194   ZY=     2.2965
   XZ=     4.6979   YZ=     1.9028   ZZ=    28.5033
   Eigenvalues:    26.1351    27.9365    39.0433
     35  H    Isotropic =    31.3742   Anisotropy =     8.3556
   XX=    29.3111   YX=     2.1827   ZX=     0.7641
   XY=     2.4342   YY=    34.4312   ZY=    -4.0481
   XZ=     0.7843   YZ=    -3.2826   ZZ=    30.3802
   Eigenvalues:    26.7488    30.4291    36.9446
     36  H    Isotropic =    31.3203   Anisotropy =     6.0931
   XX=    31.8953   YX=     0.8047   ZX=    -1.7637
   XY=     0.3425   YY=    30.9774   ZY=     4.4499
   XZ=    -1.8905   YZ=     3.7364   ZZ=    31.0882
   Eigenvalues:    26.4088    32.1697    35.3824
     37  C    Isotropic =   140.3006   Anisotropy =    34.4128
   XX=   122.5648   YX=     0.9293   ZX=     2.5873
   XY=     4.1322   YY=   158.6267   ZY=   -10.7841
   XZ=     2.3770   YZ=    -9.9443   ZZ=   139.7103
   Eigenvalues:   121.7155   135.9438   163.2425
     38  C    Isotropic =    46.7372   Anisotropy =   179.2466
   XX=    76.3373   YX=    29.9658   ZX=    86.6074
   XY=    31.0257   YY=   -14.2894   ZY=   -61.9282
   XZ=    85.1941   YZ=   -60.2050   ZZ=    78.1639
   Eigenvalues:   -77.2167    51.1935   166.2350
     39  C    Isotropic =    65.1375   Anisotropy =   142.4430
   XX=    95.6028   YX=    32.9109   ZX=    64.4732
   XY=    34.6271   YY=     7.8205   ZY=   -58.3671
   XZ=    62.3327   YZ=   -63.8224   ZZ=    91.9892
   Eigenvalues:   -50.1425    85.4555   160.0995
     40  H    Isotropic =    29.5619   Anisotropy =     4.4288
   XX=    31.0005   YX=     1.6501   ZX=     1.0441
   XY=     1.4148   YY=    28.0409   ZY=    -1.1788
   XZ=     2.7186   YZ=    -0.1357   ZZ=    29.6443
   Eigenvalues:    26.6797    29.4916    32.5144
     41  H    Isotropic =    29.6276   Anisotropy =     5.2134
   XX=    28.8480   YX=     0.3189   ZX=    -2.1210
   XY=    -0.7304   YY=    28.2635   ZY=    -0.9268
   XZ=    -1.5893   YZ=    -2.4315   ZZ=    31.7712
   Eigenvalues:    27.0090    28.7705    33.1031
     42  H    Isotropic =    25.7947   Anisotropy =     6.5451
   XX=    26.9868   YX=     1.2422   ZX=     0.1255
   XY=     2.4144   YY=    28.2113   ZY=    -3.0823
   XZ=    -0.0309   YZ=    -2.3076   ZZ=    22.1861
   Eigenvalues:    21.0695    26.1566    30.1581
     43  H    Isotropic =    26.6837   Anisotropy =     6.8118
   XX=    26.2241   YX=     3.0959   ZX=     0.0614
   XY=     1.4883   YY=    28.5815   ZY=    -2.0852
   XZ=    -0.2044   YZ=    -4.0210   ZZ=    25.2455
   Eigenvalues:    22.9799    25.8463    31.2249
     44  H    Isotropic =    26.7506   Anisotropy =     7.1638
   XX=    26.8122   YX=     1.5446   ZX=    -0.7644
   XY=     3.4674   YY=    26.5251   ZY=    -4.6359
   XZ=    -0.3108   YZ=    -2.9650   ZZ=    26.9146
   Eigenvalues:    22.3761    26.3493    31.5265
 End of Minotr F.D. properties file   721 does not exist.
 End of Minotr F.D. properties file   722 does not exist.
 End of Minotr F.D. properties file   788 does not exist.

 **********************************************************************

            Population analysis using the SCF density.

 **********************************************************************

 Orbital symmetries:
       Occupied  (A) (A) (A) (A) (A) (A) (A) (A) (A) (A) (A) (A)
                 (A) (A) (A) (A) (A) (A) (A) (A) (A) (A) (A) (A)
                 (A) (A) (A) (A) (A) (A) (A) (A) (A) (A) (A) (A)
                 (A) (A) (A) (A) (A) (A) (A) (A) (A) (A) (A) (A)
                 (A) (A) (A) (A) (A) (A) (A) (A) (A) (A) (A) (A)
                 (A) (A) (A) (A) (A) (A) (A) (A) (A) (A) (A) (A)
                 (A) (A)
       Virtual   (A) (A) (A) (A) (A) (A) (A) (A) (A) (A) (A) (A)
                 (A) (A) (A) (A) (A) (A) (A) (A) (A) (A) (A) (A)
                 (A) (A) (A) (A) (A) (A) (A) (A) (A) (A) (A) (A)
                 (A) (A) (A) (A) (A) (A) (A) (A) (A) (A) (A) (A)
                 (A) (A) (A) (A) (A) (A) (A) (A) (A) (A) (A) (A)
                 (A) (A) (A) (A) (A) (A) (A) (A) (A) (A) (A) (A)
                 (A) (A) (A) (A) (A) (A) (A) (A) (A) (A) (A) (A)
                 (A) (A) (A) (A) (A) (A) (A) (A) (A) (A) (A) (A)
                 (A) (A) (A) (A) (A) (A) (A) (A) (A) (A) (A) (A)
                 (A) (A) (A) (A) (A) (A) (A) (A) (A) (A) (A) (A)
                 (A) (A) (A) (A) (A) (A) (A) (A) (A) (A) (A) (A)
                 (A) (A) (A) (A) (A) (A) (A) (A) (A) (A) (A) (A)
                 (A) (A) (A) (A) (A) (A) (A) (A) (A) (A) (A) (A)
                 (A) (A) (A) (A) (A) (A) (A) (A) (A) (A) (A) (A)
                 (A) (A) (A) (A) (A) (A) (A) (A) (A) (A) (A) (A)
                 (A) (A) (A) (A) (A) (A) (A) (A) (A) (A) (A) (A)
                 (A) (A) (A) (A) (A) (A) (A) (A) (A) (A) (A) (A)
                 (A) (A) (A) (A) (A) (A) (A) (A) (A) (A) (A) (A)
                 (A) (A) (A) (A) (A) (A) (A) (A) (A) (A) (A) (A)
                 (A) (A) (A) (A) (A) (A) (A) (A) (A) (A) (A) (A)
                 (A) (A) (A) (A) (A) (A) (A) (A) (A) (A) (A) (A)
                 (A) (A) (A) (A) (A) (A) (A) (A) (A) (A) (A) (A)
                 (A) (A) (A) (A) (A) (A) (A) (A) (A) (A) (A) (A)
                 (A) (A) (A) (A) (A) (A) (A) (A) (A) (A) (A) (A)
                 (A) (A) (A) (A) (A) (A) (A) (A) (A) (A) (A) (A)
                 (A) (A) (A) (A) (A) (A) (A) (A) (A) (A) (A) (A)
                 (A) (A) (A) (A) (A) (A) (A) (A) (A) (A) (A) (A)
                 (A) (A) (A) (A) (A) (A) (A) (A) (A) (A) (A) (A)
 The electronic state is 1-A.
 Alpha  occ. eigenvalues --  -66.27483 -19.25847 -19.20719 -19.19527 -10.36945
 Alpha  occ. eigenvalues --  -10.31763 -10.30291 -10.25056 -10.24975 -10.24654
 Alpha  occ. eigenvalues --  -10.24485 -10.23679 -10.23178 -10.22623 -10.22233
 Alpha  occ. eigenvalues --  -10.21080 -10.20848 -10.20690  -5.33215  -3.67103
 Alpha  occ. eigenvalues --   -3.66809  -3.66793  -1.13091  -1.04738  -1.04038
 Alpha  occ. eigenvalues --   -0.85988  -0.83053  -0.80933  -0.77250  -0.74006
 Alpha  occ. eigenvalues --   -0.73418  -0.71742  -0.70388  -0.70170  -0.67025
 Alpha  occ. eigenvalues --   -0.63293  -0.61929  -0.58845  -0.54453  -0.53008
 Alpha  occ. eigenvalues --   -0.52760  -0.51424  -0.51293  -0.48085  -0.46956
 Alpha  occ. eigenvalues --   -0.46557  -0.45157  -0.44951  -0.44439  -0.43791
 Alpha  occ. eigenvalues --   -0.42860  -0.42647  -0.42044  -0.41348  -0.40912
 Alpha  occ. eigenvalues --   -0.40668  -0.40285  -0.39768  -0.39379  -0.39068
 Alpha  occ. eigenvalues --   -0.38331  -0.37931  -0.37344  -0.37077  -0.36418
 Alpha  occ. eigenvalues --   -0.35382  -0.34287  -0.33350  -0.32242  -0.31023
 Alpha  occ. eigenvalues --   -0.30121  -0.29700  -0.28203  -0.27349
 Alpha virt. eigenvalues --    0.00306   0.00703   0.03810   0.05355   0.06384
 Alpha virt. eigenvalues --    0.06513   0.07016   0.07913   0.08133   0.09163
 Alpha virt. eigenvalues --    0.09584   0.10272   0.10441   0.10962   0.11510
 Alpha virt. eigenvalues --    0.12036   0.12724   0.12955   0.13789   0.14223
 Alpha virt. eigenvalues --    0.14360   0.14599   0.14939   0.15083   0.15292
 Alpha virt. eigenvalues --    0.16132   0.16195   0.16768   0.17362   0.17910
 Alpha virt. eigenvalues --    0.18440   0.19397   0.19734   0.20009   0.21090
 Alpha virt. eigenvalues --    0.21962   0.22764   0.23133   0.23720   0.24629
 Alpha virt. eigenvalues --    0.25229   0.25816   0.26486   0.27370   0.28877
 Alpha virt. eigenvalues --    0.29344   0.30768   0.31169   0.31961   0.32086
 Alpha virt. eigenvalues --    0.33106   0.33662   0.34858   0.35612   0.36260
 Alpha virt. eigenvalues --    0.37528   0.38102   0.38928   0.39171   0.40707
 Alpha virt. eigenvalues --    0.41178   0.41899   0.42068   0.43030   0.43922
 Alpha virt. eigenvalues --    0.44844   0.46591   0.47095   0.47634   0.48577
 Alpha virt. eigenvalues --    0.48875   0.49720   0.50670   0.51975   0.52427
 Alpha virt. eigenvalues --    0.52934   0.53919   0.54472   0.55282   0.56068
 Alpha virt. eigenvalues --    0.56747   0.57062   0.57587   0.58010   0.59228
 Alpha virt. eigenvalues --    0.59282   0.59407   0.59984   0.60858   0.61141
 Alpha virt. eigenvalues --    0.61664   0.61840   0.62225   0.62745   0.63484
 Alpha virt. eigenvalues --    0.63677   0.63895   0.64563   0.65162   0.65717
 Alpha virt. eigenvalues --    0.66307   0.66643   0.66927   0.67478   0.67976
 Alpha virt. eigenvalues --    0.68651   0.69537   0.69818   0.70890   0.71179
 Alpha virt. eigenvalues --    0.72058   0.73247   0.73664   0.74113   0.74736
 Alpha virt. eigenvalues --    0.74933   0.77579   0.78187   0.79273   0.81081
 Alpha virt. eigenvalues --    0.82048   0.82842   0.86360   0.86841   0.87978
 Alpha virt. eigenvalues --    0.90098   0.90765   0.91536   0.92951   0.94632
 Alpha virt. eigenvalues --    0.95691   0.96728   0.97348   0.98532   1.00071
 Alpha virt. eigenvalues --    1.02484   1.03510   1.04748   1.06965   1.10023
 Alpha virt. eigenvalues --    1.12170   1.13417   1.16295   1.19068   1.20240
 Alpha virt. eigenvalues --    1.21000   1.23457   1.24674   1.26445   1.28314
 Alpha virt. eigenvalues --    1.29001   1.29405   1.31759   1.31936   1.32566
 Alpha virt. eigenvalues --    1.33364   1.35614   1.38090   1.39738   1.40762
 Alpha virt. eigenvalues --    1.41485   1.44415   1.45232   1.47919   1.48348
 Alpha virt. eigenvalues --    1.51069   1.51551   1.52651   1.53100   1.53712
 Alpha virt. eigenvalues --    1.54697   1.54989   1.56684   1.57674   1.58399
 Alpha virt. eigenvalues --    1.59086   1.59634   1.59799   1.60386   1.60707
 Alpha virt. eigenvalues --    1.60925   1.61609   1.63119   1.63751   1.64559
 Alpha virt. eigenvalues --    1.64997   1.65240   1.67330   1.68297   1.69629
 Alpha virt. eigenvalues --    1.69712   1.72179   1.72722   1.74052   1.75256
 Alpha virt. eigenvalues --    1.76116   1.76174   1.77967   1.78719   1.80257
 Alpha virt. eigenvalues --    1.80670   1.82300   1.83376   1.84348   1.87673
 Alpha virt. eigenvalues --    1.89692   1.92130   1.94414   1.94660   1.97455
 Alpha virt. eigenvalues --    2.01116   2.03889   2.06545   2.10310   2.12674
 Alpha virt. eigenvalues --    2.14474   2.16298   2.20633   2.22917   2.25305
 Alpha virt. eigenvalues --    2.28284   2.29703   2.34183   2.36903   2.41142
 Alpha virt. eigenvalues --    2.41386   2.41779   2.42024   2.42407   2.43106
 Alpha virt. eigenvalues --    2.44635   2.45093   2.46471   2.46602   2.47497
 Alpha virt. eigenvalues --    2.48073   2.48397   2.49990   2.51034   2.52304
 Alpha virt. eigenvalues --    2.53403   2.53752   2.55197   2.58921   2.59624
 Alpha virt. eigenvalues --    2.61460   2.63479   2.65834   2.72425   2.81241
 Alpha virt. eigenvalues --    2.82992   2.86593   2.87679   2.90342   2.91674
 Alpha virt. eigenvalues --    2.92152   2.92840   2.94881   2.96426   2.97652
 Alpha virt. eigenvalues --    2.99907   3.00399   3.01615   3.03186   3.06874
 Alpha virt. eigenvalues --    3.09215   3.10024   3.14064   3.14663   3.15351
 Alpha virt. eigenvalues --    3.16122   3.17295   3.18152   3.19255   3.21012
 Alpha virt. eigenvalues --    3.22009   3.22570   3.23398   3.23870   3.24216
 Alpha virt. eigenvalues --    3.25646   3.26978   3.27628   3.29572   3.34718
 Alpha virt. eigenvalues --    3.35632   3.35856   3.37755   3.39612   3.40792
 Alpha virt. eigenvalues --    3.44912   3.50974   3.57191   3.59532   3.63244
 Alpha virt. eigenvalues --    3.78109   3.88053   3.90561   3.99257   4.01997
 Alpha virt. eigenvalues --    4.08090   4.14122   4.20667   4.22979   4.25250
 Alpha virt. eigenvalues --    4.94237   5.00052   5.01486   5.10611   5.14953
 Alpha virt. eigenvalues --    5.23537   5.52949   5.56216   5.76613   5.85153
 Alpha virt. eigenvalues --   11.52764  11.53278  11.57125  23.41413  23.48679
 Alpha virt. eigenvalues --   23.53956  23.54210  23.57446  23.60616  23.71148
 Alpha virt. eigenvalues --   23.75751  23.77873  23.79413  23.81737  23.87355
 Alpha virt. eigenvalues --   23.87828  24.28801  49.98576  50.05228  50.13000
 Alpha virt. eigenvalues --  141.27850
          Condensed to atoms (all electrons):
               1          2          3          4          5          6
     1  C    5.238583   0.235205  -0.062319  -0.003781  -0.051878   0.394228
     2  C    0.235205   5.638944   0.283314  -0.069733  -0.016476  -0.051265
     3  C   -0.062319   0.283314   5.171509   0.214148  -0.018851  -0.016679
     4  C   -0.003781  -0.069733   0.214148   5.872972   0.237281   0.002778
     5  C   -0.051878  -0.016476  -0.018851   0.237281   4.392952  -0.002391
     6  H    0.394228  -0.051265  -0.016679   0.002778  -0.002391   0.476800
     7  H   -0.028711   0.388686  -0.043419   0.008578   0.000263  -0.000608
     8  H    0.002062  -0.008766  -0.032290   0.372301  -0.021342  -0.000305
     9  H   -0.000881   0.007532  -0.028123   0.359610  -0.025221   0.000218
    10  O    0.210466  -0.040720   0.005959  -0.104786   0.350200  -0.031307
    11  O    0.002457  -0.000462   0.005097  -0.095913   0.667148  -0.000040
    12  C    0.343806  -0.053451   0.008892  -0.001440   0.003552  -0.048097
    13  C   -0.075866   0.003042  -0.000562   0.000112  -0.000133   0.001382
    14  C   -0.075821   0.287074  -0.072019  -0.010956   0.001252   0.007485
    15  O    0.003547  -0.058086   0.219365  -0.032965   0.001707  -0.000055
    16  Si  -0.000055   0.003239  -0.045417  -0.010061   0.001411  -0.000035
    17  C    0.000003  -0.000314   0.000337  -0.000163   0.000003   0.000001
    18  C    0.000011  -0.000220   0.001194  -0.005172  -0.000202   0.000000
    19  C   -0.000001   0.000078   0.002535  -0.000323  -0.000005   0.000000
    20  H    0.000000   0.000005  -0.000118   0.000310   0.000001   0.000000
    21  H    0.000007  -0.000073   0.001017  -0.000800  -0.000138  -0.000002
    22  H    0.000004  -0.000067   0.000357   0.000355  -0.000125   0.000000
    23  H   -0.000001   0.000074  -0.000131  -0.000022   0.000000   0.000000
    24  H    0.000000   0.000000  -0.000062  -0.000002   0.000000   0.000000
    25  H    0.000000   0.000027   0.000005   0.000023  -0.000002   0.000000
    26  H    0.000000   0.000007  -0.000020  -0.000010   0.000000   0.000000
    27  H   -0.000002   0.000007   0.000335  -0.000023   0.000001   0.000000
    28  H    0.000002  -0.000058   0.000310  -0.000033   0.000003  -0.000001
    29  H    0.006760  -0.038520  -0.005884  -0.000464  -0.000084  -0.000157
    30  H   -0.005575  -0.040472  -0.009750   0.005686  -0.000742   0.000548
    31  H   -0.006206  -0.033741   0.007229  -0.000483  -0.000065  -0.000335
    32  H   -0.050273   0.009707  -0.000230   0.000315  -0.000109  -0.007288
    33  H   -0.040135  -0.013877  -0.000485   0.000164  -0.000050   0.007447
    34  H    0.007692  -0.000178   0.000013  -0.000002   0.000004  -0.000236
    35  H   -0.002334  -0.002453  -0.000200   0.000004  -0.000007   0.005287
    36  H   -0.009163   0.004633   0.000160  -0.000008   0.000002  -0.000556
    37  C    0.004847  -0.097272   0.331608  -0.101942   0.003304   0.005155
    38  C   -0.004560  -0.015012  -0.060734   0.008734  -0.000315  -0.000320
    39  C   -0.000925   0.000219  -0.002337  -0.000084  -0.000026   0.003521
    40  H   -0.000285   0.007552  -0.046460  -0.003542  -0.000201   0.000838
    41  H   -0.000787  -0.001268  -0.024918  -0.006257   0.002067  -0.003863
    42  H    0.000242  -0.001684  -0.000722   0.000085  -0.000010  -0.000008
    43  H    0.000040   0.000035  -0.000350   0.000015   0.000000   0.000034
    44  H    0.000097  -0.000205   0.000303  -0.000044  -0.000009   0.000846
               7          8          9         10         11         12
     1  C   -0.028711   0.002062  -0.000881   0.210466   0.002457   0.343806
     2  C    0.388686  -0.008766   0.007532  -0.040720  -0.000462  -0.053451
     3  C   -0.043419  -0.032290  -0.028123   0.005959   0.005097   0.008892
     4  C    0.008578   0.372301   0.359610  -0.104786  -0.095913  -0.001440
     5  C    0.000263  -0.021342  -0.025221   0.350200   0.667148   0.003552
     6  H   -0.000608  -0.000305   0.000218  -0.031307  -0.000040  -0.048097
     7  H    0.446630  -0.000274  -0.000075   0.003188   0.000019  -0.008510
     8  H   -0.000274   0.400988  -0.015546   0.000300   0.001195   0.000057
     9  H   -0.000075  -0.015546   0.418960   0.004429   0.010371   0.000033
    10  O    0.003188   0.000300   0.004429   8.039071  -0.076847  -0.051394
    11  O    0.000019   0.001195   0.010371  -0.076847   7.871041  -0.000170
    12  C   -0.008510   0.000057   0.000033  -0.051394  -0.000170   5.309920
    13  C    0.002123  -0.000013  -0.000001   0.004058   0.000001   0.284948
    14  C   -0.033395   0.000919  -0.000034  -0.000345  -0.000032  -0.008885
    15  O    0.002736  -0.000662  -0.000916  -0.000023  -0.000019  -0.000060
    16  Si   0.000440   0.000403  -0.001421  -0.000125  -0.000291   0.000011
    17  C   -0.000031   0.000063  -0.000163   0.000000   0.000000   0.000000
    18  C    0.000026   0.000403  -0.002684  -0.000002  -0.000012   0.000000
    19  C    0.000000  -0.000152   0.000031   0.000000   0.000000   0.000000
    20  H    0.000000  -0.000015   0.000254   0.000000   0.000000   0.000000
    21  H    0.000002  -0.000143   0.001429  -0.000001  -0.000037   0.000000
    22  H    0.000005   0.001217  -0.001054   0.000000   0.000006   0.000000
    23  H   -0.000001  -0.000021  -0.000003   0.000000   0.000000   0.000000
    24  H   -0.000001   0.000005  -0.000002   0.000000   0.000000   0.000000
    25  H    0.000004   0.000066   0.000005   0.000000   0.000000   0.000000
    26  H   -0.000002   0.000000   0.000001   0.000000   0.000000   0.000000
    27  H   -0.000037  -0.000002  -0.000002   0.000000   0.000000   0.000000
    28  H   -0.000008   0.000013  -0.000054   0.000000   0.000000   0.000000
    29  H   -0.002013   0.000684  -0.000166  -0.000123   0.000003   0.000162
    30  H    0.006505  -0.001147   0.000354   0.007399  -0.000392  -0.003983
    31  H   -0.007103   0.000192   0.000020  -0.000035   0.000001   0.001606
    32  H   -0.000353   0.000010  -0.000013   0.004520  -0.000027   0.403632
    33  H    0.000205  -0.000075   0.000003   0.003291  -0.000043   0.390400
    34  H    0.000201   0.000000   0.000000  -0.000124   0.000000  -0.033507
    35  H    0.000235  -0.000001   0.000000  -0.000025   0.000000  -0.041743
    36  H   -0.000202   0.000000   0.000000  -0.000061   0.000000  -0.032798
    37  C   -0.011425   0.006048  -0.007132  -0.003632  -0.000052  -0.000556
    38  C    0.009532  -0.000186   0.000076   0.000395   0.000000  -0.000144
    39  C    0.001933   0.000000   0.000001  -0.000025   0.000000  -0.000108
    40  H    0.000327  -0.000334   0.003403  -0.000136  -0.000005  -0.000007
    41  H   -0.000165   0.000245  -0.000037   0.001666  -0.000142   0.000713
    42  H    0.000241   0.000026  -0.000007   0.000004   0.000000   0.000021
    43  H    0.000119  -0.000001   0.000001   0.000000   0.000000  -0.000009
    44  H   -0.000038   0.000002   0.000004  -0.000029   0.000000   0.000031
              13         14         15         16         17         18
     1  C   -0.075866  -0.075821   0.003547  -0.000055   0.000003   0.000011
     2  C    0.003042   0.287074  -0.058086   0.003239  -0.000314  -0.000220
     3  C   -0.000562  -0.072019   0.219365  -0.045417   0.000337   0.001194
     4  C    0.000112  -0.010956  -0.032965  -0.010061  -0.000163  -0.005172
     5  C   -0.000133   0.001252   0.001707   0.001411   0.000003  -0.000202
     6  H    0.001382   0.007485  -0.000055  -0.000035   0.000001   0.000000
     7  H    0.002123  -0.033395   0.002736   0.000440  -0.000031   0.000026
     8  H   -0.000013   0.000919  -0.000662   0.000403   0.000063   0.000403
     9  H   -0.000001  -0.000034  -0.000916  -0.001421  -0.000163  -0.002684
    10  O    0.004058  -0.000345  -0.000023  -0.000125   0.000000  -0.000002
    11  O    0.000001  -0.000032  -0.000019  -0.000291   0.000000  -0.000012
    12  C    0.284948  -0.008885  -0.000060   0.000011   0.000000   0.000000
    13  C    5.373116  -0.002161   0.000000  -0.000004   0.000000   0.000000
    14  C   -0.002161   5.418897  -0.007942  -0.000463   0.000012  -0.000053
    15  O    0.000000  -0.007942   8.275676   0.356275  -0.025680  -0.024448
    16  Si  -0.000004  -0.000463   0.356275  11.510973   0.315782   0.313035
    17  C    0.000000   0.000012  -0.025680   0.315782   5.776624  -0.054627
    18  C    0.000000  -0.000053  -0.024448   0.313035  -0.054627   5.786727
    19  C    0.000000   0.000049  -0.030865   0.334413  -0.049424  -0.042683
    20  H    0.000000   0.000001   0.000752  -0.009877  -0.000063   0.363534
    21  H    0.000000  -0.000003  -0.001387  -0.027260  -0.000845   0.369429
    22  H    0.000000  -0.000016  -0.002135  -0.025581   0.002147   0.369493
    23  H    0.000000   0.000071  -0.001762  -0.021787  -0.000984   0.002162
    24  H    0.000000   0.000000   0.001191  -0.014009   0.000783   0.000001
    25  H    0.000000   0.000128  -0.001738  -0.024197   0.002147  -0.000725
    26  H    0.000000   0.000000   0.000924  -0.010424   0.361738   0.000109
    27  H    0.000000   0.000003  -0.002747  -0.025816   0.370842   0.002047
    28  H    0.000000   0.000002  -0.001761  -0.027664   0.370323  -0.001130
    29  H   -0.000083   0.386206   0.009886   0.000632  -0.000007   0.000048
    30  H    0.000614   0.387377   0.000057  -0.000187   0.000001  -0.000004
    31  H   -0.000258   0.388798   0.000157   0.000066   0.000001  -0.000001
    32  H   -0.036139  -0.000473   0.000004   0.000000   0.000000   0.000000
    33  H   -0.035510   0.006292  -0.000001   0.000000   0.000000   0.000000
    34  H    0.389369  -0.000060   0.000000   0.000000   0.000000   0.000000
    35  H    0.384042   0.000457   0.000000   0.000001   0.000000   0.000000
    36  H    0.382880   0.000052  -0.000013  -0.000007   0.000000   0.000000
    37  C    0.000041   0.008294  -0.056195  -0.004402   0.000074  -0.001515
    38  C   -0.000024  -0.000259   0.003989  -0.002091  -0.002952   0.000135
    39  C   -0.000013  -0.000010   0.000636   0.000572  -0.000182   0.000000
    40  H    0.000000  -0.000134  -0.004827   0.006634   0.000847   0.000902
    41  H   -0.000049  -0.000393   0.004131   0.001388   0.000005  -0.000054
    42  H    0.000002  -0.000075   0.004794   0.001024  -0.000823   0.000078
    43  H    0.000020  -0.000002   0.000015   0.000018   0.000010   0.000000
    44  H    0.000037   0.000003  -0.000006  -0.000013  -0.000006   0.000000
              19         20         21         22         23         24
     1  C   -0.000001   0.000000   0.000007   0.000004  -0.000001   0.000000
     2  C    0.000078   0.000005  -0.000073  -0.000067   0.000074   0.000000
     3  C    0.002535  -0.000118   0.001017   0.000357  -0.000131  -0.000062
     4  C   -0.000323   0.000310  -0.000800   0.000355  -0.000022  -0.000002
     5  C   -0.000005   0.000001  -0.000138  -0.000125   0.000000   0.000000
     6  H    0.000000   0.000000  -0.000002   0.000000   0.000000   0.000000
     7  H    0.000000   0.000000   0.000002   0.000005  -0.000001  -0.000001
     8  H   -0.000152  -0.000015  -0.000143   0.001217  -0.000021   0.000005
     9  H    0.000031   0.000254   0.001429  -0.001054  -0.000003  -0.000002
    10  O    0.000000   0.000000  -0.000001   0.000000   0.000000   0.000000
    11  O    0.000000   0.000000  -0.000037   0.000006   0.000000   0.000000
    12  C    0.000000   0.000000   0.000000   0.000000   0.000000   0.000000
    13  C    0.000000   0.000000   0.000000   0.000000   0.000000   0.000000
    14  C    0.000049   0.000001  -0.000003  -0.000016   0.000071   0.000000
    15  O   -0.030865   0.000752  -0.001387  -0.002135  -0.001762   0.001191
    16  Si   0.334413  -0.009877  -0.027260  -0.025581  -0.021787  -0.014009
    17  C   -0.049424  -0.000063  -0.000845   0.002147  -0.000984   0.000783
    18  C   -0.042683   0.363534   0.369429   0.369493   0.002162   0.000001
    19  C    5.720401  -0.000363   0.002321  -0.000363   0.369053   0.361671
    20  H   -0.000363   0.441913  -0.020807  -0.020696  -0.000065   0.000447
    21  H    0.002321  -0.020807   0.447594  -0.020174  -0.000078  -0.000068
    22  H   -0.000363  -0.020696  -0.020174   0.445681  -0.000050  -0.000062
    23  H    0.369053  -0.000065  -0.000078  -0.000050   0.452749  -0.021770
    24  H    0.361671   0.000447  -0.000068  -0.000062  -0.021770   0.460673
    25  H    0.370528  -0.000055  -0.000073   0.001127  -0.019629  -0.021823
    26  H    0.000099   0.000375   0.000035  -0.000045  -0.000060   0.000508
    27  H   -0.000596  -0.000053  -0.000030  -0.000087   0.001124   0.000027
    28  H    0.002244   0.000030   0.000726  -0.000041  -0.000105  -0.000044
    29  H   -0.000066  -0.000001   0.000004   0.000014   0.000102   0.000025
    30  H   -0.000001   0.000000  -0.000002  -0.000003  -0.000006  -0.000001
    31  H   -0.000001   0.000000   0.000000  -0.000001   0.000002   0.000000
    32  H    0.000000   0.000000   0.000000   0.000000   0.000000   0.000000
    33  H    0.000000   0.000000   0.000000   0.000000   0.000000   0.000000
    34  H    0.000000   0.000000   0.000000   0.000000   0.000000   0.000000
    35  H    0.000000   0.000000   0.000000   0.000000   0.000000   0.000000
    36  H    0.000000   0.000000   0.000000   0.000000   0.000000   0.000000
    37  C   -0.000112   0.000046  -0.000008   0.000118  -0.000023   0.000011
    38  C   -0.000052  -0.000004   0.000051   0.000007  -0.000003  -0.000002
    39  C   -0.000001   0.000000  -0.000001   0.000000   0.000000   0.000000
    40  H    0.000006   0.000018   0.002327  -0.000168   0.000008   0.000011
    41  H    0.000012  -0.000001  -0.000041   0.000006   0.000000  -0.000001
    42  H   -0.000076   0.000000   0.000020   0.000001  -0.000014   0.000000
    43  H    0.000000   0.000000   0.000000   0.000000   0.000000   0.000000
    44  H    0.000000   0.000000   0.000000   0.000000   0.000000   0.000000
              25         26         27         28         29         30
     1  C    0.000000   0.000000  -0.000002   0.000002   0.006760  -0.005575
     2  C    0.000027   0.000007   0.000007  -0.000058  -0.038520  -0.040472
     3  C    0.000005  -0.000020   0.000335   0.000310  -0.005884  -0.009750
     4  C    0.000023  -0.000010  -0.000023  -0.000033  -0.000464   0.005686
     5  C   -0.000002   0.000000   0.000001   0.000003  -0.000084  -0.000742
     6  H    0.000000   0.000000   0.000000  -0.000001  -0.000157   0.000548
     7  H    0.000004  -0.000002  -0.000037  -0.000008  -0.002013   0.006505
     8  H    0.000066   0.000000  -0.000002   0.000013   0.000684  -0.001147
     9  H    0.000005   0.000001  -0.000002  -0.000054  -0.000166   0.000354
    10  O    0.000000   0.000000   0.000000   0.000000  -0.000123   0.007399
    11  O    0.000000   0.000000   0.000000   0.000000   0.000003  -0.000392
    12  C    0.000000   0.000000   0.000000   0.000000   0.000162  -0.003983
    13  C    0.000000   0.000000   0.000000   0.000000  -0.000083   0.000614
    14  C    0.000128   0.000000   0.000003   0.000002   0.386206   0.387377
    15  O   -0.001738   0.000924  -0.002747  -0.001761   0.009886   0.000057
    16  Si  -0.024197  -0.010424  -0.025816  -0.027664   0.000632  -0.000187
    17  C    0.002147   0.361738   0.370842   0.370323  -0.000007   0.000001
    18  C   -0.000725   0.000109   0.002047  -0.001130   0.000048  -0.000004
    19  C    0.370528   0.000099  -0.000596   0.002244  -0.000066  -0.000001
    20  H   -0.000055   0.000375  -0.000053   0.000030  -0.000001   0.000000
    21  H   -0.000073   0.000035  -0.000030   0.000726   0.000004  -0.000002
    22  H    0.001127  -0.000045  -0.000087  -0.000041   0.000014  -0.000003
    23  H   -0.019629  -0.000060   0.001124  -0.000105   0.000102  -0.000006
    24  H   -0.021823   0.000508   0.000027  -0.000044   0.000025  -0.000001
    25  H    0.454717  -0.000062  -0.000064  -0.000092   0.000280  -0.000007
    26  H   -0.000062   0.451198  -0.021987  -0.021851   0.000000   0.000000
    27  H   -0.000064  -0.021987   0.451316  -0.019658  -0.000009   0.000000
    28  H   -0.000092  -0.021851  -0.019658   0.448572   0.000000   0.000000
    29  H    0.000280   0.000000  -0.000009   0.000000   0.425652  -0.024093
    30  H   -0.000007   0.000000   0.000000   0.000000  -0.024093   0.474316
    31  H   -0.000003   0.000000   0.000001   0.000000  -0.023698  -0.027797
    32  H    0.000000   0.000000   0.000000   0.000000   0.000023  -0.000275
    33  H    0.000000   0.000000   0.000000   0.000000   0.000192   0.001419
    34  H    0.000000   0.000000   0.000000   0.000000  -0.000004   0.000005
    35  H    0.000000   0.000000   0.000000   0.000000   0.000009  -0.000006
    36  H    0.000000   0.000000   0.000000   0.000000  -0.000043  -0.000130
    37  C   -0.000018   0.000011   0.000184   0.000748   0.000452  -0.000110
    38  C    0.000002   0.000141  -0.000281   0.000544   0.000020  -0.000045
    39  C    0.000000   0.000004  -0.000077   0.000251   0.000003  -0.000003
    40  H    0.000001   0.000033  -0.000103   0.001610  -0.000021   0.000014
    41  H    0.000001   0.000000  -0.000018  -0.000025  -0.000053  -0.000026
    42  H    0.000001   0.000248   0.001162  -0.001334   0.000020  -0.000008
    43  H    0.000000  -0.000001  -0.000011   0.000012   0.000000   0.000000
    44  H    0.000000   0.000001   0.000001  -0.000009   0.000000   0.000000
              31         32         33         34         35         36
     1  C   -0.006206  -0.050273  -0.040135   0.007692  -0.002334  -0.009163
     2  C   -0.033741   0.009707  -0.013877  -0.000178  -0.002453   0.004633
     3  C    0.007229  -0.000230  -0.000485   0.000013  -0.000200   0.000160
     4  C   -0.000483   0.000315   0.000164  -0.000002   0.000004  -0.000008
     5  C   -0.000065  -0.000109  -0.000050   0.000004  -0.000007   0.000002
     6  H   -0.000335  -0.007288   0.007447  -0.000236   0.005287  -0.000556
     7  H   -0.007103  -0.000353   0.000205   0.000201   0.000235  -0.000202
     8  H    0.000192   0.000010  -0.000075   0.000000  -0.000001   0.000000
     9  H    0.000020  -0.000013   0.000003   0.000000   0.000000   0.000000
    10  O   -0.000035   0.004520   0.003291  -0.000124  -0.000025  -0.000061
    11  O    0.000001  -0.000027  -0.000043   0.000000   0.000000   0.000000
    12  C    0.001606   0.403632   0.390400  -0.033507  -0.041743  -0.032798
    13  C   -0.000258  -0.036139  -0.035510   0.389369   0.384042   0.382880
    14  C    0.388798  -0.000473   0.006292  -0.000060   0.000457   0.000052
    15  O    0.000157   0.000004  -0.000001   0.000000   0.000000  -0.000013
    16  Si   0.000066   0.000000   0.000000   0.000000   0.000001  -0.000007
    17  C    0.000001   0.000000   0.000000   0.000000   0.000000   0.000000
    18  C   -0.000001   0.000000   0.000000   0.000000   0.000000   0.000000
    19  C   -0.000001   0.000000   0.000000   0.000000   0.000000   0.000000
    20  H    0.000000   0.000000   0.000000   0.000000   0.000000   0.000000
    21  H    0.000000   0.000000   0.000000   0.000000   0.000000   0.000000
    22  H   -0.000001   0.000000   0.000000   0.000000   0.000000   0.000000
    23  H    0.000002   0.000000   0.000000   0.000000   0.000000   0.000000
    24  H    0.000000   0.000000   0.000000   0.000000   0.000000   0.000000
    25  H   -0.000003   0.000000   0.000000   0.000000   0.000000   0.000000
    26  H    0.000000   0.000000   0.000000   0.000000   0.000000   0.000000
    27  H    0.000001   0.000000   0.000000   0.000000   0.000000   0.000000
    28  H    0.000000   0.000000   0.000000   0.000000   0.000000   0.000000
    29  H   -0.023698   0.000023   0.000192  -0.000004   0.000009  -0.000043
    30  H   -0.027797  -0.000275   0.001419   0.000005  -0.000006  -0.000130
    31  H    0.458814   0.000236  -0.001924   0.000004  -0.000082   0.003185
    32  H    0.000236   0.470411  -0.030756  -0.005840  -0.004287   0.006008
    33  H   -0.001924  -0.030756   0.475456  -0.003970   0.006609  -0.005554
    34  H    0.000004  -0.005840  -0.003970   0.461711  -0.025672  -0.026567
    35  H   -0.000082  -0.004287   0.006609  -0.025672   0.475916  -0.027681
    36  H    0.003185   0.006008  -0.005554  -0.026567  -0.027681   0.472986
    37  C   -0.000130   0.000014   0.000003  -0.000001  -0.000065   0.000017
    38  C   -0.000036  -0.000012  -0.000026   0.000004   0.000477   0.000015
    39  C    0.000001  -0.000001  -0.000003   0.000002   0.001090   0.000035
    40  H    0.000013  -0.000003   0.000003   0.000000   0.000007   0.000000
    41  H   -0.000006  -0.000003  -0.000039   0.000002  -0.000072   0.000008
    42  H    0.000002   0.000000  -0.000001   0.000000   0.000001   0.000004
    43  H    0.000000   0.000000   0.000000  -0.000001   0.000033   0.000003
    44  H    0.000001  -0.000002   0.000001  -0.000002   0.000036   0.000003
              37         38         39         40         41         42
     1  C    0.004847  -0.004560  -0.000925  -0.000285  -0.000787   0.000242
     2  C   -0.097272  -0.015012   0.000219   0.007552  -0.001268  -0.001684
     3  C    0.331608  -0.060734  -0.002337  -0.046460  -0.024918  -0.000722
     4  C   -0.101942   0.008734  -0.000084  -0.003542  -0.006257   0.000085
     5  C    0.003304  -0.000315  -0.000026  -0.000201   0.002067  -0.000010
     6  H    0.005155  -0.000320   0.003521   0.000838  -0.003863  -0.000008
     7  H   -0.011425   0.009532   0.001933   0.000327  -0.000165   0.000241
     8  H    0.006048  -0.000186   0.000000  -0.000334   0.000245   0.000026
     9  H   -0.007132   0.000076   0.000001   0.003403  -0.000037  -0.000007
    10  O   -0.003632   0.000395  -0.000025  -0.000136   0.001666   0.000004
    11  O   -0.000052   0.000000   0.000000  -0.000005  -0.000142   0.000000
    12  C   -0.000556  -0.000144  -0.000108  -0.000007   0.000713   0.000021
    13  C    0.000041  -0.000024  -0.000013   0.000000  -0.000049   0.000002
    14  C    0.008294  -0.000259  -0.000010  -0.000134  -0.000393  -0.000075
    15  O   -0.056195   0.003989   0.000636  -0.004827   0.004131   0.004794
    16  Si  -0.004402  -0.002091   0.000572   0.006634   0.001388   0.001024
    17  C    0.000074  -0.002952  -0.000182   0.000847   0.000005  -0.000823
    18  C   -0.001515   0.000135   0.000000   0.000902  -0.000054   0.000078
    19  C   -0.000112  -0.000052  -0.000001   0.000006   0.000012  -0.000076
    20  H    0.000046  -0.000004   0.000000   0.000018  -0.000001   0.000000
    21  H   -0.000008   0.000051  -0.000001   0.002327  -0.000041   0.000020
    22  H    0.000118   0.000007   0.000000  -0.000168   0.000006   0.000001
    23  H   -0.000023  -0.000003   0.000000   0.000008   0.000000  -0.000014
    24  H    0.000011  -0.000002   0.000000   0.000011  -0.000001   0.000000
    25  H   -0.000018   0.000002   0.000000   0.000001   0.000001   0.000001
    26  H    0.000011   0.000141   0.000004   0.000033   0.000000   0.000248
    27  H    0.000184  -0.000281  -0.000077  -0.000103  -0.000018   0.001162
    28  H    0.000748   0.000544   0.000251   0.001610  -0.000025  -0.001334
    29  H    0.000452   0.000020   0.000003  -0.000021  -0.000053   0.000020
    30  H   -0.000110  -0.000045  -0.000003   0.000014  -0.000026  -0.000008
    31  H   -0.000130  -0.000036   0.000001   0.000013  -0.000006   0.000002
    32  H    0.000014  -0.000012  -0.000001  -0.000003  -0.000003   0.000000
    33  H    0.000003  -0.000026  -0.000003   0.000003  -0.000039  -0.000001
    34  H   -0.000001   0.000004   0.000002   0.000000   0.000002   0.000000
    35  H   -0.000065   0.000477   0.001090   0.000007  -0.000072   0.000001
    36  H    0.000017   0.000015   0.000035   0.000000   0.000008   0.000004
    37  C    5.479082   0.311577  -0.056032   0.392886   0.383233  -0.050490
    38  C    0.311577   5.076459   0.619029  -0.038188  -0.045983   0.397511
    39  C   -0.056032   0.619029   5.141694  -0.002781   0.002162  -0.037877
    40  H    0.392886  -0.038188  -0.002781   0.449499  -0.025955  -0.001046
    41  H    0.383233  -0.045983   0.002162  -0.025955   0.453857   0.004701
    42  H   -0.050490   0.397511  -0.037877  -0.001046   0.004701   0.455174
    43  H    0.006318  -0.038566   0.392908  -0.000296   0.000115  -0.007809
    44  H   -0.009133  -0.041377   0.388332   0.000167   0.004423   0.005922
              43         44
     1  C    0.000040   0.000097
     2  C    0.000035  -0.000205
     3  C   -0.000350   0.000303
     4  C    0.000015  -0.000044
     5  C    0.000000  -0.000009
     6  H    0.000034   0.000846
     7  H    0.000119  -0.000038
     8  H   -0.000001   0.000002
     9  H    0.000001   0.000004
    10  O    0.000000  -0.000029
    11  O    0.000000   0.000000
    12  C   -0.000009   0.000031
    13  C    0.000020   0.000037
    14  C   -0.000002   0.000003
    15  O    0.000015  -0.000006
    16  Si   0.000018  -0.000013
    17  C    0.000010  -0.000006
    18  C    0.000000   0.000000
    19  C    0.000000   0.000000
    20  H    0.000000   0.000000
    21  H    0.000000   0.000000
    22  H    0.000000   0.000000
    23  H    0.000000   0.000000
    24  H    0.000000   0.000000
    25  H    0.000000   0.000000
    26  H   -0.000001   0.000001
    27  H   -0.000011   0.000001
    28  H    0.000012  -0.000009
    29  H    0.000000   0.000000
    30  H    0.000000   0.000000
    31  H    0.000000   0.000001
    32  H    0.000000  -0.000002
    33  H    0.000000   0.000001
    34  H   -0.000001  -0.000002
    35  H    0.000033   0.000036
    36  H    0.000003   0.000003
    37  C    0.006318  -0.009133
    38  C   -0.038566  -0.041377
    39  C    0.392908   0.388332
    40  H   -0.000296   0.000167
    41  H    0.000115   0.004423
    42  H   -0.007809   0.005922
    43  H    0.451725  -0.033477
    44  H   -0.033477   0.460890
 Mulliken charges:
               1
     1  C   -0.030497
     2  C   -0.325006
     3  C    0.218394
     4  C   -0.634462
     5  C    0.477233
     6  H    0.256980
     7  H    0.264374
     8  H    0.294079
     9  H    0.276801
    10  O   -0.325206
    11  O   -0.382852
    12  C   -0.462924
    13  C   -0.674968
    14  C   -0.679839
    15  O   -0.631551
    16  Si   1.404869
    17  C   -1.065479
    18  C   -1.075802
    19  C   -1.038359
    20  H    0.244434
    21  H    0.247008
    22  H    0.250128
    23  H    0.241168
    24  H    0.232494
    25  H    0.239425
    26  H    0.239031
    27  H    0.244554
    28  H    0.248477
    29  H    0.264311
    30  H    0.230469
    31  H    0.241580
    32  H    0.241203
    33  H    0.240965
    34  H    0.237156
    35  H    0.230424
    36  H    0.232789
    37  C   -0.533826
    38  C   -0.177523
    39  C   -0.451907
    40  H    0.257388
    41  H    0.251417
    42  H    0.230700
    43  H    0.229100
    44  H    0.223251
 Sum of Mulliken charges =   0.00000
 Mulliken charges with hydrogens summed into heavy atoms:
               1
     1  C    0.226482
     2  C   -0.060632
     3  C    0.218394
     4  C   -0.063583
     5  C    0.477233
    10  O   -0.325206
    11  O   -0.382852
    12  C    0.019244
    13  C    0.025401
    14  C    0.056522
    15  O   -0.631551
    16  Si   1.404869
    17  C   -0.333417
    18  C   -0.334232
    19  C   -0.325272
    37  C   -0.025022
    38  C    0.053177
    39  C    0.000444
 Electronic spatial extent (au):  <R**2>=           5534.8386
 Charge=              0.0000 electrons
 Dipole moment (field-independent basis, Debye):
    X=             -2.3170    Y=              4.3336    Z=              1.5487  Tot=              5.1524
 Quadrupole moment (field-independent basis, Debye-Ang):
   XX=           -114.9340   YY=           -132.2253   ZZ=           -120.9428
   XY=             13.1987   XZ=              5.6407   YZ=             -8.0254
 Traceless Quadrupole moment (field-independent basis, Debye-Ang):
   XX=              7.7667   YY=             -9.5246   ZZ=              1.7579
   XY=             13.1987   XZ=              5.6407   YZ=             -8.0254
 Octapole moment (field-independent basis, Debye-Ang**2):
  XXX=            -10.5690  YYY=             45.5792  ZZZ=             -0.6427  XYY=            -24.7948
  XXY=             21.3249  XXZ=             12.2904  XZZ=              8.5061  YZZ=              6.4309
  YYZ=             31.5922  XYZ=            -20.3556
 Hexadecapole moment (field-independent basis, Debye-Ang**3):
 XXXX=          -4298.7166 YYYY=          -1924.8171 ZZZZ=          -1221.8340 XXXY=             54.8700
 XXXZ=             32.2147 YYYX=             82.6561 YYYZ=            -88.2240 ZZZX=              3.6738
 ZZZY=             14.6394 XXYY=          -1131.9261 XXZZ=           -960.2848 YYZZ=           -549.5358
 XXYZ=            -21.1572 YYXZ=             18.8433 ZZXY=             25.5016
 N-N= 1.625990739979D+03 E-N=-5.747098163667D+03  KE= 1.060531056689D+03
 1\1\GINC-CPU-E-611\SP\RmPW1PW91\6-311G(d)\C14H26O3Si1\KE291\06-Feb-201
 9\0\\# mPW1PW91/6-311g(d) geom=checkpoint nmr=giao scrf=(solvent=chlor
 oform)\\P_ng_3ginp004\\0,1\C,0,-0.1023236788,0.5258698375,-0.148844238
 \C,0,-1.5324204006,0.2337444639,0.3255329452\C,0,-1.7869740325,0.99064
 63135,1.6586906597\C,0,-1.6091361923,2.4951638116,1.388020151\C,0,-0.4
 134465627,2.8870057978,0.5331512149\H,0,0.6038257723,0.151570581,0.600
 5495186\H,0,-1.5697307319,-0.8359219342,0.5594965044\H,0,-2.4927574788
 ,2.8630917854,0.8546897344\H,0,-1.5419770974,3.0743045742,2.3117340999
 \O,0,0.1587202416,1.9625589673,-0.2665851098\O,0,-0.0001735131,4.02763
 06394,0.4947260602\C,0,0.2964041503,-0.0654550261,-1.5011508486\C,0,0.
 285062817,-1.5974122483,-1.5222581238\C,0,-2.5955547647,0.5309265287,-
 0.7445975204\O,0,-3.1313294838,0.7093928334,2.0408084717\Si,0,-4.14311
 55444,1.114220058,3.3249284444\C,0,-3.8901393238,-0.0588062518,4.78166
 25913\C,0,-3.9131303047,2.893472585,3.9137969797\C,0,-5.8726353468,0.8
 795910771,2.6239266325\H,0,-4.6588402724,3.114195704,4.6868075099\H,0,
 -2.9269049016,3.0677804715,4.3566819417\H,0,-4.0537998613,3.6163359452
 ,3.1039808195\H,0,-6.0111790399,-0.1413614779,2.2529570427\H,0,-6.6339
 53691,1.0629152817,3.3902987647\H,0,-6.060952866,1.5664303497,1.792204
 9075\H,0,-4.6297140909,0.1551974376,5.5623320807\H,0,-4.0224673766,-1.
 103374067,4.480023958\H,0,-2.898146349,0.0367476854,5.2343763029\H,0,-
 3.5938805251,0.4412321615,-0.3147829364\H,0,-2.491427203,1.53606869,-1
 .1654860991\H,0,-2.5194248715,-0.1781954328,-1.5730898423\H,0,1.305572
 0062,0.2978530246,-1.7245617464\H,0,-0.3566672798,0.3340469624,-2.2840
 509468\H,0,0.6679317956,-1.9668386261,-2.4778851941\H,0,0.9157973326,-
 2.0119933315,-0.7283152362\H,0,-0.722997737,-2.0035028307,-1.392418063
 6\C,0,-0.8128975247,0.5462610607,2.7859908916\C,0,-0.7669847292,-0.936
 130245,3.0367566977\C,0,0.3520290495,-1.6579679265,3.1223637294\H,0,-1
 .1380251702,1.0643747067,3.6987704537\H,0,0.1973630555,0.9183146677,2.
 5827655574\H,0,-1.7287529957,-1.4291581385,3.1666310303\H,0,0.32754880
 99,-2.7249301105,3.3235316905\H,0,1.3351339109,-1.2070383554,3.0053405
 191\\Version=ES64L-G09RevD.01\State=1-A\HF=-1064.3839845\RMSD=9.073e-0
 9\Dipole=-0.8716839,-1.6818724,0.7215697\Quadrupole=1.9527934,-6.85642
 18,4.9036284,-10.4733325,0.4410147,6.6902728\PG=C01 [X(C14H26O3Si1)]\\
 @


 YOU ARE IN A MAZE OF TWISTY LITTLE PASSAGES.
 Job cpu time:       0 days  0 hours 19 minutes 18.4 seconds.
 File lengths (MBytes):  RWF=    233 Int=      0 D2E=      0 Chk=     19 Scr=      1
 Normal termination of Gaussian 09 at Wed Feb  6 11:30:08 2019.
