 Entering Gaussian System, Link 0=/usr/local/Cluster-Apps/gaussian/g09/g09
 Initial command:
 /usr/local/Cluster-Apps/gaussian/g09/l1.exe "/home/ke291/rds/hpc-work/06Feb0927IP1/Gau-387860.inp" -scrdir="/home/ke291/rds/hpc-work/06Feb0927IP1/"
 Entering Link 1 = /usr/local/Cluster-Apps/gaussian/g09/l1.exe PID=    387865.
  
 Copyright (c) 1988,1990,1992,1993,1995,1998,2003,2009,2013,
            Gaussian, Inc.  All Rights Reserved.
  
 This is part of the Gaussian(R) 09 program.  It is based on
 the Gaussian(R) 03 system (copyright 2003, Gaussian, Inc.),
 the Gaussian(R) 98 system (copyright 1998, Gaussian, Inc.),
 the Gaussian(R) 94 system (copyright 1995, Gaussian, Inc.),
 the Gaussian 92(TM) system (copyright 1992, Gaussian, Inc.),
 the Gaussian 90(TM) system (copyright 1990, Gaussian, Inc.),
 the Gaussian 88(TM) system (copyright 1988, Gaussian, Inc.),
 the Gaussian 86(TM) system (copyright 1986, Carnegie Mellon
 University), and the Gaussian 82(TM) system (copyright 1983,
 Carnegie Mellon University). Gaussian is a federally registered
 trademark of Gaussian, Inc.
  
 This software contains proprietary and confidential information,
 including trade secrets, belonging to Gaussian, Inc.
  
 This software is provided under written license and may be
 used, copied, transmitted, or stored only in accord with that
 written license.
  
 The following legend is applicable only to US Government
 contracts under FAR:
  
                    RESTRICTED RIGHTS LEGEND
  
 Use, reproduction and disclosure by the US Government is
 subject to restrictions as set forth in subparagraphs (a)
 and (c) of the Commercial Computer Software - Restricted
 Rights clause in FAR 52.227-19.
  
 Gaussian, Inc.
 340 Quinnipiac St., Bldg. 40, Wallingford CT 06492
  
  
 ---------------------------------------------------------------
 Warning -- This program may not be used in any manner that
 competes with the business of Gaussian, Inc. or will provide
 assistance to any competitor of Gaussian, Inc.  The licensee
 of this program is prohibited from giving any competitor of
 Gaussian, Inc. access to this program.  By using this program,
 the user acknowledges that Gaussian, Inc. is engaged in the
 business of creating and licensing software in the field of
 computational chemistry and represents and warrants to the
 licensee that it is not a competitor of Gaussian, Inc. and that
 it will not use this program in any manner prohibited above.
 ---------------------------------------------------------------
  

 Cite this work as:
 Gaussian 09, Revision D.01,
 M. J. Frisch, G. W. Trucks, H. B. Schlegel, G. E. Scuseria, 
 M. A. Robb, J. R. Cheeseman, G. Scalmani, V. Barone, B. Mennucci, 
 G. A. Petersson, H. Nakatsuji, M. Caricato, X. Li, H. P. Hratchian, 
 A. F. Izmaylov, J. Bloino, G. Zheng, J. L. Sonnenberg, M. Hada, 
 M. Ehara, K. Toyota, R. Fukuda, J. Hasegawa, M. Ishida, T. Nakajima, 
 Y. Honda, O. Kitao, H. Nakai, T. Vreven, J. A. Montgomery, Jr., 
 J. E. Peralta, F. Ogliaro, M. Bearpark, J. J. Heyd, E. Brothers, 
 K. N. Kudin, V. N. Staroverov, T. Keith, R. Kobayashi, J. Normand, 
 K. Raghavachari, A. Rendell, J. C. Burant, S. S. Iyengar, J. Tomasi, 
 M. Cossi, N. Rega, J. M. Millam, M. Klene, J. E. Knox, J. B. Cross, 
 V. Bakken, C. Adamo, J. Jaramillo, R. Gomperts, R. E. Stratmann, 
 O. Yazyev, A. J. Austin, R. Cammi, C. Pomelli, J. W. Ochterski, 
 R. L. Martin, K. Morokuma, V. G. Zakrzewski, G. A. Voth, 
 P. Salvador, J. J. Dannenberg, S. Dapprich, A. D. Daniels, 
 O. Farkas, J. B. Foresman, J. V. Ortiz, J. Cioslowski, 
 and D. J. Fox, Gaussian, Inc., Wallingford CT, 2013.
 
 ******************************************
 Gaussian 09:  ES64L-G09RevD.01 24-Apr-2013
                 6-Feb-2019 
 ******************************************
 %nprocshared=2
 Will use up to    2 processors via shared memory.
 %mem=6000MB
 %chk=/home/ke291/rds/hpc-work/06Feb0927IP1/P_ng_4ginp001.chk
 ----------------------------------------------------------------------
 # mPW1PW91/6-311g(d) geom=checkpoint nmr=giao scrf=(solvent=chloroform
 )
 ----------------------------------------------------------------------
 1/29=2,38=1/1;
 2/12=2,40=1/2;
 3/5=4,6=6,7=1,11=2,14=-4,16=1,25=1,30=1,70=2201,72=7,74=-7/1,2,8,3;
 4//1;
 5/5=2,38=5,53=7/2;
 8/6=1,10=90,11=11/1;
 10/13=100,45=16/2;
 6/7=2,8=2,9=2,10=2,28=1/1;
 99/9=1/99;
 -------------
 P_ng_4ginp001
 -------------
 Structure from the checkpoint file:  "/home/ke291/rds/hpc-work/06Feb0927IP1/P_ng_4ginp001.chk"
 Charge =  0 Multiplicity = 1
 Redundant internal coordinates found in file.
 C,0,0.1011199684,1.7822673739,-0.3954674253
 C,0,-0.1743396747,1.1803721318,0.9898953072
 C,0,-1.2729485127,2.0204517944,1.6976549255
 C,0,-0.7473664927,3.4586253029,1.835880235
 C,0,-0.096621253,4.0473679416,0.5935727378
 H,0,-0.8088251267,1.7042121437,-1.0007866068
 H,0,-0.6012759128,0.1871248382,0.8079216395
 H,0,-1.5314065676,4.154157161,2.1474776408
 H,0,0.0246376492,3.4841267182,2.6126111264
 O,0,0.4162251913,3.2120999926,-0.3339979961
 O,0,0.046697642,5.2435307112,0.4480703306
 C,0,1.2427011553,1.1313839138,-1.1741945896
 C,0,1.3473407792,1.6248976906,-2.6205601933
 C,0,1.0936794764,1.0089145402,1.8418393284
 O,0,-1.506444563,1.4217792967,2.9701412697
 Si,0,-2.1526977464,1.920553637,4.4427187192
 C,0,-0.9724604146,3.0730821033,5.3606366966
 C,0,-3.8276635277,2.7714427312,4.2514612427
 C,0,-2.3503656849,0.3137574826,5.3998432824
 H,0,-4.2415822202,2.9898399229,5.2430651648
 H,0,-3.7577956151,3.7228608708,3.7135476831
 H,0,-4.5480349176,2.1365419695,3.7252335311
 H,0,-2.7457932955,0.5053023843,6.4036168565
 H,0,-3.0402586209,-0.3682317789,4.8920176072
 H,0,-1.3906694495,-0.2015013145,5.5110246464
 H,0,-1.3417677166,3.2437623101,6.378797153
 H,0,0.030387435,2.6404389634,5.4417739272
 H,0,-0.8810443229,4.0512555641,4.8781216751
 H,0,1.744685782,0.2427447157,1.4135594552
 H,0,1.6774981676,1.9325832285,1.9101816045
 H,0,0.8261441866,0.6965040579,2.8522606391
 H,0,1.0742410387,0.0473689753,-1.1612037977
 H,0,2.1859594705,1.312727029,-0.6483075251
 H,0,2.1766882097,1.1335893792,-3.1380894998
 H,0,0.4298335706,1.4098324241,-3.1797407778
 H,0,1.5173527488,2.7042158791,-2.654878278
 C,0,-2.6123292495,2.0281616729,0.9065469391
 C,0,-3.1773285746,0.663475031,0.6252060421
 C,0,-3.577559236,0.2345821658,-0.5732384053
 H,0,-2.5019883692,2.5874607445,-0.029108191
 H,0,-3.3250038677,2.5980980529,1.5155933565
 H,0,-3.2639525122,0.0016156865,1.4855341208
 H,0,-3.9951338935,-0.7583022878,-0.7127560332
 H,0,-3.5121271331,0.863569849,-1.4585855644
 Recover connectivity data from disk.
                          Input orientation:                          
 ---------------------------------------------------------------------
 Center     Atomic      Atomic             Coordinates (Angstroms)
 Number     Number       Type             X           Y           Z
 ---------------------------------------------------------------------
      1          6           0        0.101120    1.782267   -0.395467
      2          6           0       -0.174340    1.180372    0.989895
      3          6           0       -1.272949    2.020452    1.697655
      4          6           0       -0.747366    3.458625    1.835880
      5          6           0       -0.096621    4.047368    0.593573
      6          1           0       -0.808825    1.704212   -1.000787
      7          1           0       -0.601276    0.187125    0.807922
      8          1           0       -1.531407    4.154157    2.147478
      9          1           0        0.024638    3.484127    2.612611
     10          8           0        0.416225    3.212100   -0.333998
     11          8           0        0.046698    5.243531    0.448070
     12          6           0        1.242701    1.131384   -1.174195
     13          6           0        1.347341    1.624898   -2.620560
     14          6           0        1.093679    1.008915    1.841839
     15          8           0       -1.506445    1.421779    2.970141
     16         14           0       -2.152698    1.920554    4.442719
     17          6           0       -0.972460    3.073082    5.360637
     18          6           0       -3.827664    2.771443    4.251461
     19          6           0       -2.350366    0.313757    5.399843
     20          1           0       -4.241582    2.989840    5.243065
     21          1           0       -3.757796    3.722861    3.713548
     22          1           0       -4.548035    2.136542    3.725234
     23          1           0       -2.745793    0.505302    6.403617
     24          1           0       -3.040259   -0.368232    4.892018
     25          1           0       -1.390669   -0.201501    5.511025
     26          1           0       -1.341768    3.243762    6.378797
     27          1           0        0.030387    2.640439    5.441774
     28          1           0       -0.881044    4.051256    4.878122
     29          1           0        1.744686    0.242745    1.413559
     30          1           0        1.677498    1.932583    1.910182
     31          1           0        0.826144    0.696504    2.852261
     32          1           0        1.074241    0.047369   -1.161204
     33          1           0        2.185959    1.312727   -0.648308
     34          1           0        2.176688    1.133589   -3.138089
     35          1           0        0.429834    1.409832   -3.179741
     36          1           0        1.517353    2.704216   -2.654878
     37          6           0       -2.612329    2.028162    0.906547
     38          6           0       -3.177329    0.663475    0.625206
     39          6           0       -3.577559    0.234582   -0.573238
     40          1           0       -2.501988    2.587461   -0.029108
     41          1           0       -3.325004    2.598098    1.515593
     42          1           0       -3.263953    0.001616    1.485534
     43          1           0       -3.995134   -0.758302   -0.712756
     44          1           0       -3.512127    0.863570   -1.458586
 ---------------------------------------------------------------------
                    Distance matrix (angstroms):
                    1          2          3          4          5
     1  C    0.000000
     2  C    1.535378   0.000000
     3  C    2.515146   1.553576   0.000000
     4  C    2.917022   2.496896   1.537428   0.000000
     5  C    2.479513   2.895303   2.590585   1.520992   0.000000
     6  H    1.095675   2.154018   2.756266   3.335929   2.922259
     7  H    2.118014   1.096325   2.145660   3.432311   3.898987
     8  H    3.841559   3.467712   2.195869   1.093424   2.117695
     9  H    3.456980   2.824904   2.159449   1.095423   2.099633
    10  O    1.465432   2.495872   2.898439   2.474488   1.349471
    11  O    3.562985   4.105081   3.700157   2.396339   1.213473
    12  C    1.527505   2.587217   3.920007   4.293830   3.663570
    13  C    2.555165   3.943159   5.066494   5.254542   4.275984
    14  C    2.566864   1.537231   2.577775   3.064403   3.493878
    15  O    3.747204   2.398782   1.425535   2.451834   3.811744
    16  Si   5.339182   4.047686   2.884322   3.337099   4.854556
    17  C    5.995958   4.829361   3.823056   3.552917   4.943807
    18  C    6.165043   5.149378   3.689510   3.974353   5.378551
    19  C    6.461573   4.993371   4.216614   5.016137   6.489950
    20  H    7.218749   6.156792   4.724662   4.902878   6.317978
    21  H    5.961639   5.169496   3.624429   3.557828   4.821177
    22  H    6.222566   5.246479   3.853666   4.445519   5.768331
    23  H    7.480849   6.031291   5.158588   5.794829   7.302120
    24  H    6.515397   5.083131   4.362700   5.407603   6.829286
    25  H    6.406826   4.881562   4.415056   5.226572   6.626370
    26  H    7.078739   5.887336   4.838834   4.586673   5.972018
    27  H    5.900411   4.689662   4.012667   3.778465   5.049815
    28  H    5.824405   4.884640   3.793827   3.102308   4.355766
    29  H    2.888601   2.177452   3.513840   4.090302   4.305572
    30  H    2.797066   2.200466   2.959396   2.866059   3.058312
    31  H    3.500326   2.168756   2.737178   3.337406   4.145052
    32  H    2.131476   2.733108   4.192306   4.892590   4.522184
    33  H    2.151965   2.876150   4.238922   4.402325   3.772360
    34  H    3.500106   4.750766   6.005909   6.220632   5.251985
    35  H    2.828239   4.219424   5.202049   5.544349   4.633750
    36  H    2.821461   4.297476   5.215157   5.085764   3.867997
    37  C    3.019687   2.582535   1.555587   2.527444   3.240977
    38  C    3.611329   3.068896   2.572585   3.896577   4.576296
    39  C    3.994948   3.862617   3.695608   4.920193   5.292987
    40  H    2.749314   2.904516   2.194026   2.704775   2.881814
    41  H    4.007001   3.494709   2.139568   2.736294   3.656906
    42  H    4.246481   3.343775   2.843377   4.290322   5.214949
    43  H    4.830576   4.610417   4.576226   5.901357   6.324505
    44  H    3.876826   4.151656   4.039078   5.023118   5.100353
                    6          7          8          9         10
     6  H    0.000000
     7  H    2.369822   0.000000
     8  H    4.054124   4.289161   0.000000
     9  H    4.113320   3.810367   1.756862   0.000000
    10  O    2.054040   3.389655   3.292182   2.984936   0.000000
    11  O    3.918913   5.110441   2.562252   2.789485   2.207916
    12  C    2.137045   2.867170   5.278858   4.621577   2.391312
    13  C    2.697964   4.197474   6.117068   5.708972   2.935056
    14  C    3.490485   2.148767   4.108168   2.804214   3.169738
    15  O    4.041622   2.649320   2.853645   2.593322   4.221285
    16  Si   5.611109   4.315488   3.262379   3.245742   5.575346
    17  C    6.509093   5.403123   3.435918   2.952085   5.863159
    18  C    6.151299   5.380171   3.407557   4.246643   6.263482
    19  C    6.728876   4.915394   5.098749   4.843609   6.995095
    20  H    7.240328   6.385729   4.275903   5.036292   7.269677
    21  H    5.915769   5.559470   2.755975   3.946626   5.836605
    22  H    6.041843   5.280894   3.957288   4.895227   6.502158
    23  H    7.746898   6.001000   5.736166   5.560612   7.919632
    24  H    6.633209   4.789248   5.501012   5.424938   7.216460
    25  H    6.809844   4.784700   5.504999   4.897729   7.005843
    26  H    7.557281   6.397344   4.332303   4.013601   6.939248
    27  H    6.564098   5.281130   3.947522   2.952288   5.816804
    28  H    6.330513   5.619280   2.808910   2.504882   5.436293
    29  H    3.805965   2.423515   5.154664   3.860421   3.692673
    30  H    3.835061   3.074803   3.910086   2.373319   2.874772
    31  H    4.305180   2.544861   4.243834   2.910444   4.080257
    32  H    2.513325   2.589275   5.882387   5.211012   3.336582
    33  H    3.040763   3.340100   5.450592   4.474358   2.615027
    34  H    3.715772   4.917711   7.128185   6.574717   3.909267
    35  H    2.523643   4.296470   6.305318   6.165892   3.368472
    36  H    3.024422   4.776538   5.870254   5.530181   2.618571
    37  C    2.644899   2.728274   2.688524   3.461804   3.480345
    38  C    3.055617   2.626089   4.148642   4.707275   4.508790
    39  C    3.163621   3.281481   5.191542   5.803878   4.987300
    40  H    2.142683   3.174104   2.852033   3.763845   2.999850
    41  H    3.669108   3.705710   2.457151   3.634363   4.218386
    42  H    3.886937   2.753801   4.547910   4.920672   5.211681
    43  H    4.037264   3.837260   6.195413   6.724198   5.947070
    44  H    2.867769   3.750692   5.268293   5.995887   4.712987
                   11         12         13         14         15
    11  O    0.000000
    12  C    4.579511   0.000000
    13  C    4.919621   1.531822   0.000000
    14  C    4.579382   3.022196   4.511850   0.000000
    15  O    4.835171   4.981732   6.280230   2.864292   0.000000
    16  Si   5.642405   6.610691   7.888447   4.258477   1.683717
    17  C    5.466520   7.168065   8.436719   4.572926   2.954049
    18  C    5.965541   7.605007   8.678705   5.756075   2.975135
    19  C    7.387058   7.536353   8.928549   5.000408   2.800601
    20  H    6.816190   8.643636   9.743497   6.630039   3.886641
    21  H    5.239270   7.457261   8.401475   5.865629   3.303969
    22  H    6.442418   7.651625   8.676770   6.053731   3.214393
    23  H    8.106624   8.586227   9.972112   5.983727   3.763598
    24  H    7.795502   7.575719   8.925381   5.318793   3.041436
    25  H    7.572840   7.307762   8.772406   4.593475   3.017372
    26  H    6.410962   8.257682   9.531026   5.613371   3.868550
    27  H    5.631468   6.893329   8.232067   4.092920   3.155305
    28  H    4.680553   7.047445   8.190430   4.730157   3.308423
    29  H    5.368724   2.781751   4.282797   1.092817   3.792482
    30  H    3.969843   3.216263   4.553163   1.094842   3.394396
    31  H    5.202223   4.071238   5.575422   1.090929   2.445586
    32  H    5.535856   1.097103   2.166311   3.153286   5.061319
    33  H    4.607570   1.095070   2.165759   2.736094   5.170968
    34  H    5.855683   2.174677   1.094092   5.097857   7.138558
    35  H    5.291980   2.181858   1.095790   5.081111   6.447508
    36  H    4.270742   2.177535   1.093165   4.824315   6.513742
    37  C    4.197526   4.471572   5.318091   3.955773   2.418492
    38  C    5.603805   4.795148   5.650838   4.454328   2.977516
    39  C    6.266408   4.939667   5.511728   5.315323   4.272528
    40  H    3.711901   4.177808   4.739144   4.349837   3.368296
    41  H    4.416593   5.500013   6.315512   4.707091   2.608945
    42  H    6.286049   5.353547   6.384284   4.486709   2.703656
    43  H    7.328432   5.587375   6.153161   5.961966   4.950764
    44  H    5.956897   4.770848   5.054130   5.668102   4.893668
                   16         17         18         19         20
    16  Si   0.000000
    17  C    1.887818   0.000000
    18  C    1.888413   3.077896   0.000000
    19  C    1.880679   3.084483   3.088917   0.000000
    20  H    2.479388   3.272294   1.096496   3.280655   0.000000
    21  H    2.521178   3.300486   1.095184   4.055421   1.763744
    22  H    2.509796   4.041829   1.094966   3.310077   1.768006
    23  H    2.489944   3.290290   3.307206   1.095725   3.123650
    24  H    2.495631   4.042033   3.299678   1.094965   3.583721
    25  H    2.495011   3.304605   4.045224   1.094929   4.287676
    26  H    2.481308   1.096435   3.305801   3.249700   3.124626
    27  H    2.506433   1.095202   4.039624   3.329143   4.290838
    28  H    2.519240   1.094532   3.273101   4.049690   3.543022
    29  H    5.213487   5.565349   6.745300   5.715326   7.618862
    30  H    4.591763   4.497628   6.040868   5.569742   6.874694
    31  H    3.591845   3.895517   5.284038   4.089852   6.054518
    32  H    6.732451   7.475181   7.793984   7.405824   8.827841
    33  H    6.716543   7.012979   7.892987   7.626029   8.878867
    34  H    8.765361   9.268609   9.661276   9.698589  10.718377
    35  H    8.064254   8.813108   8.671968   9.085161   9.760236
    36  H    8.028654   8.401411   8.733341   9.249437   9.778774
    37  C    3.567541   4.860035   3.635651   4.816380   4.731245
    38  C    4.147712   5.752561   4.244548   4.858326   5.279132
    39  C    5.480197   7.074920   5.456733   6.098359   6.470066
    40  H    4.534755   5.623578   4.484923   5.887804   5.566319
    41  H    3.225125   4.532596   2.787057   4.610372   3.858448
    42  H    3.696235   5.449886   3.954752   4.031611   4.899417
    43  H    6.095060   7.791159   6.093488   6.420159   7.041386
    44  H    6.147410   7.604843   6.028613   6.977824   7.068610
                   21         22         23         24         25
    21  H    0.000000
    22  H    1.772293   0.000000
    23  H    4.314314   3.617009   0.000000
    24  H    4.317487   3.147803   1.770510   0.000000
    25  H    4.922888   4.315606   1.769930   1.769778   0.000000
    26  H    3.629088   4.306679   3.077510   4.259329   3.553204
    27  H    4.302178   4.915524   3.631959   4.333959   3.178179
    28  H    3.120861   4.294427   4.286981   4.918767   4.329691
    29  H    6.904959   6.966250   6.718185   5.947155   5.178516
    30  H    5.999970   6.487933   6.464797   6.036748   5.189802
    31  H    5.559960   5.631837   5.040578   4.499260   3.576269
    32  H    7.785950   7.736401   8.486983   7.330984   7.117328
    33  H    7.756465   8.071754   8.643134   7.799627   7.281657
    34  H    9.426948   9.660902  10.754986   9.693019   9.450698
    35  H    8.390695   8.543182  10.136248   8.964170   9.024413
    36  H    8.331967   8.821395  10.250169   9.336348   9.142306
    37  C    3.473234   3.421067   5.705672   4.670097   5.259759
    38  C    4.385731   3.695799   5.796660   4.391912   5.273666
    39  C    5.529657   4.799597   7.031474   5.524590   6.480040
    40  H    4.107756   4.299386   6.765706   5.765703   6.301302
    41  H    2.506672   2.567362   5.348650   4.503380   5.248131
    42  H    4.365271   3.350079   4.970888   3.433796   4.444662
    43  H    6.303120   5.327436   7.334870   5.698897   6.769690
    44  H    5.914969   5.437421   7.907582   6.486151   7.362773
                   26         27         28         29         30
    26  H    0.000000
    27  H    1.767716   0.000000
    28  H    1.765315   1.771670   0.000000
    29  H    6.571597   4.991419   5.779481   0.000000
    30  H    5.550106   3.960578   4.454613   1.762584   0.000000
    31  H    4.860538   3.334320   4.274689   1.766204   1.772063
    32  H    8.538480   7.170283   7.505178   2.667784   3.653951
    33  H    8.096540   6.595332   6.888212   2.364504   2.681160
    34  H   10.363566   8.971692   9.062127   4.658083   5.135428
    35  H    9.892801   8.718054   8.580482   4.918266   5.266616
    36  H    9.490678   8.232309   8.019533   4.760536   4.632584
    37  C    5.747829   5.284612   4.781596   4.735858   4.406704
    38  C    6.567418   6.115321   5.902311   5.002473   5.179878
    39  C    7.898400   7.415241   7.180217   5.680997   6.055263
    40  H    6.545082   6.028788   5.371318   5.060951   4.653796
    41  H    5.291584   5.164817   4.403544   5.591051   5.061980
    42  H    6.176596   5.785145   5.795471   5.014956   5.322302
    43  H    8.564286   8.101512   8.005455   6.202326   6.804368
    44  H    8.473508   7.957489   7.565566   6.022352   6.278821
                   31         32         33         34         35
    31  H    0.000000
    32  H    4.073184   0.000000
    33  H    3.805628   1.760713   0.000000
    34  H    6.156241   2.510646   2.496235   0.000000
    35  H    6.086948   2.519139   3.082460   1.769052   0.000000
    36  H    5.902309   3.079975   2.531719   1.770617   1.770200
    37  C    4.169198   4.667969   5.094408   6.331985   5.131748
    38  C    4.581338   4.652600   5.550516   6.561166   5.295875
    39  C    5.598216   4.692547   5.863973   6.363807   4.922831
    40  H    4.791082   4.530245   4.897470   5.802544   4.461936
    41  H    4.757601   5.746722   6.058495   7.353242   6.128372
    42  H    4.368032   5.082051   5.997819   7.229096   6.114893
    43  H    6.170132   5.152550   6.519143   6.895860   5.510641
    44  H    6.118162   4.667911   5.772909   5.937699   4.335877
                   36         37         38         39         40
    36  H    0.000000
    37  C    5.495004   0.000000
    38  C    6.079770   1.503578   0.000000
    39  C    6.032449   2.517610   1.334317   0.000000
    40  H    4.802437   1.095646   2.141479   2.643666   0.000000
    41  H    6.391597   1.097119   2.134798   3.164366   1.750306
    42  H    6.878077   2.206066   1.088910   2.095511   3.092139
    43  H    6.793260   3.506946   2.116695   1.086118   3.727062
    44  H    5.487692   2.785635   2.119980   1.088001   2.456743
                   41         42         43         44
    41  H    0.000000
    42  H    2.597374   0.000000
    43  H    4.084120   2.438151   0.000000
    44  H    3.448093   3.077726   1.849331   0.000000
 Stoichiometry    C14H26O3Si
 Framework group  C1[X(C14H26O3Si)]
 Deg. of freedom   126
 Full point group                 C1      NOp   1
 Largest Abelian subgroup         C1      NOp   1
 Largest concise Abelian subgroup C1      NOp   1
                         Standard orientation:                         
 ---------------------------------------------------------------------
 Center     Atomic      Atomic             Coordinates (Angstroms)
 Number     Number       Type             X           Y           Z
 ---------------------------------------------------------------------
      1          6           0       -2.358632    0.147914    0.302777
      2          6           0       -0.982900    0.262237    0.974847
      3          6           0        0.122638    0.124925   -0.107987
      4          6           0       -0.035737   -1.254757   -0.767594
      5          6           0       -1.454701   -1.645572   -1.151287
      6          1           0       -2.480572    0.984034   -0.394744
      7          1           0       -0.921374    1.285207    1.364304
      8          1           0        0.578260   -1.352796   -1.667022
      9          1           0        0.303081   -2.026601   -0.068014
     10          8           0       -2.489209   -1.066959   -0.506250
     11          8           0       -1.684384   -2.518213   -1.962619
     12          6           0       -3.552414    0.150966    1.255745
     13          6           0       -4.901468    0.240683    0.535686
     14          6           0       -0.797291   -0.710754    2.150396
     15          8           0        1.378728    0.249537    0.554480
     16         14           0        2.968770   -0.198933    0.229603
     17          6           0        3.214379   -2.061016    0.419803
     18          6           0        3.536519    0.329343   -1.492224
     19          6           0        3.957384    0.713678    1.543656
     20          1           0        4.600974    0.095737   -1.613342
     21          1           0        2.998268   -0.191277   -2.291392
     22          1           0        3.414890    1.406421   -1.647334
     23          1           0        5.025031    0.482921    1.457074
     24          1           0        3.839625    1.797994    1.447005
     25          1           0        3.634315    0.429745    2.550571
     26          1           0        4.283541   -2.298660    0.368926
     27          1           0        2.842511   -2.419256    1.385643
     28          1           0        2.714826   -2.632944   -0.368452
     29          1           0       -1.452465   -0.439523    2.981919
     30          1           0       -1.029339   -1.744852    1.875673
     31          1           0        0.232750   -0.673536    2.507826
     32          1           0       -3.432468    1.007101    1.931231
     33          1           0       -3.519341   -0.750614    1.876421
     34          1           0       -5.725304    0.239106    1.255637
     35          1           0       -4.974908    1.161013   -0.054531
     36          1           0       -5.040961   -0.605799   -0.141822
     37          6           0        0.028444    1.235832   -1.192821
     38          6           0        0.075279    2.638566   -0.653478
     39          6           0       -0.796304    3.602659   -0.955586
     40          1           0       -0.870695    1.099930   -1.803983
     41          1           0        0.878282    1.077640   -1.868410
     42          1           0        0.899588    2.856921    0.023695
     43          1           0       -0.701275    4.604831   -0.547819
     44          1           0       -1.632264    3.429162   -1.629987
 ---------------------------------------------------------------------
 Rotational constants (GHZ):      0.5480351      0.2479676      0.2218323
 Standard basis: 6-311G(d) (5D, 7F)
 There are   428 symmetry adapted cartesian basis functions of A   symmetry.
 There are   410 symmetry adapted basis functions of A   symmetry.
   410 basis functions,   720 primitive gaussians,   428 cartesian basis functions
    74 alpha electrons       74 beta electrons
       nuclear repulsion energy      1621.0536385566 Hartrees.
 NAtoms=   44 NActive=   44 NUniq=   44 SFac= 1.00D+00 NAtFMM=   60 NAOKFM=F Big=F
 Integral buffers will be    131072 words long.
 Raffenetti 2 integral format.
 Two-electron integral symmetry is turned on.
 ------------------------------------------------------------------------------
 Polarizable Continuum Model (PCM)
 =================================
 Model                : PCM (using non-symmetric T matrix).
 Atomic radii         : UFF (Universal Force Field).
 Polarization charges : Total charges.
 Charge compensation  : None.
 Solution method      : On-the-fly selection.
 Cavity type          : Scaled VdW (van der Waals Surface) (Alpha=1.100).
 Cavity algorithm     : GePol (No added spheres)
                        Default sphere list used, NSphG=   44.
                        Lebedev-Laikov grids with approx.  5.0 points / Ang**2.
                        Smoothing algorithm: Karplus/York (Gamma=1.0000).
                        Polarization charges: spherical gaussians, with
                                              point-specific exponents (IZeta= 3).
                        Self-potential: point-specific (ISelfS= 7).
                        Self-field    : sphere-specific E.n sum rule (ISelfD= 2).
 Solvent              : Chloroform, Eps=   4.711300 Eps(inf)=   2.090627
 ------------------------------------------------------------------------------
 One-electron integrals computed using PRISM.
 NBasis=   410 RedAO= T EigKep=  9.89D-04  NBF=   410
 NBsUse=   410 1.00D-06 EigRej= -1.00D+00 NBFU=   410
 ExpMin= 6.54D-02 ExpMax= 6.94D+04 ExpMxC= 2.33D+03 IAcc=2 IRadAn=         4 AccDes= 0.00D+00
 Harris functional with IExCor=  908 and IRadAn=       4 diagonalized for initial guess.
 HarFok:  IExCor=  908 AccDes= 0.00D+00 IRadAn=         4 IDoV= 1 UseB2=F ITyADJ=14
 ICtDFT=  3500011 ScaDFX=  1.000000  1.000000  1.000000  1.000000
 FoFCou: FMM=F IPFlag=           0 FMFlag=      100000 FMFlg1=           0
         NFxFlg=           0 DoJE=T BraDBF=F KetDBF=T FulRan=T
         wScrn=  0.000000 ICntrl=     500 IOpCl=  0 I1Cent=   200000004 NGrid=           0
         NMat0=    1 NMatS0=      1 NMatT0=    0 NMatD0=    1 NMtDS0=    0 NMtDT0=    0
 Petite list used in FoFCou.
 Requested convergence on RMS density matrix=1.00D-08 within 128 cycles.
 Requested convergence on MAX density matrix=1.00D-06.
 Requested convergence on             energy=1.00D-06.
 No special actions if energy rises.
 Inv3:  Mode=1 IEnd=    25719552.
 Iteration    1 A*A^-1 deviation from unit magnitude is 6.88D-15 for   2920.
 Iteration    1 A*A^-1 deviation from orthogonality  is 5.82D-15 for   2920   1543.
 Iteration    1 A^-1*A deviation from unit magnitude is 6.88D-15 for   2920.
 Iteration    1 A^-1*A deviation from orthogonality  is 5.93D-13 for   2106   2082.
 Error on total polarization charges =  0.01134
 SCF Done:  E(RmPW1PW91) =  -1064.38503366     A.U. after   12 cycles
            NFock= 12  Conv=0.86D-08     -V/T= 2.0036
 DoSCS=F DFT=T ScalE2(SS,OS)=  1.000000  1.000000
 Range of M.O.s used for correlation:     1   410
 NBasis=   410 NAE=    74 NBE=    74 NFC=     0 NFV=     0
 NROrb=    410 NOA=    74 NOB=    74 NVA=   336 NVB=   336
 NEqPCM:  Using equilibrium solvation (IEInf=0, Eps=   4.7113, EpsInf=   2.0906)
          Differentiating once with respect to magnetic field using GIAOs.
          Electric field/nuclear overlap derivatives assumed to be zero.
 FoFJK:  IHMeth= 1 ICntrl=    6127 DoSepK=F KAlg= 0 I1Cent=   0 FoldK=F
 IRaf=         1 NMat=   1 IRICut=       1 DoRegI=T DoRafI=F ISym2E= 0.
          There are     3 degrees of freedom in the 1st order CPHF.  IDoFFX=0 NUNeed=     3.
      3 vectors produced by pass  0 Test12= 8.29D-13 3.33D-08 XBig12= 3.58D+01 9.21D-01.
 AX will form     3 AO Fock derivatives at one time.
      3 vectors produced by pass  1 Test12= 8.29D-13 3.33D-08 XBig12= 8.07D-02 9.12D-02.
      3 vectors produced by pass  2 Test12= 8.29D-13 3.33D-08 XBig12= 7.04D-04 1.14D-02.
      3 vectors produced by pass  3 Test12= 8.29D-13 3.33D-08 XBig12= 4.08D-06 5.69D-04.
      3 vectors produced by pass  4 Test12= 8.29D-13 3.33D-08 XBig12= 2.19D-08 4.50D-05.
      3 vectors produced by pass  5 Test12= 8.29D-13 3.33D-08 XBig12= 6.53D-11 1.66D-06.
      2 vectors produced by pass  6 Test12= 8.29D-13 3.33D-08 XBig12= 1.84D-13 9.48D-08.
 InvSVY:  IOpt=1 It=  1 EMax= 1.78D-15
 Solved reduced A of dimension    20 with     3 vectors.
 Calculating GIAO nuclear magnetic shielding tensors.
 SCF GIAO Magnetic shielding tensor (ppm):
      1  C    Isotropic =   104.2354   Anisotropy =    48.2270
   XX=    98.7193   YX=     2.1411   ZX=    -1.9515
   XY=    -2.7088   YY=   118.6384   ZY=    25.2563
   XZ=    -4.7605   YZ=    28.4693   ZZ=    95.3485
   Eigenvalues:    77.3850    98.9345   136.3867
      2  C    Isotropic =   145.6815   Anisotropy =    21.1535
   XX=   159.1811   YX=    -2.1149   ZX=    -1.0308
   XY=    -2.2920   YY=   136.9573   ZY=     2.0562
   XZ=    -4.8776   YZ=    -7.5303   ZZ=   140.9063
   Eigenvalues:   135.0957   142.1650   159.7839
      3  C    Isotropic =   108.0847   Anisotropy =    55.5027
   XX=   137.6979   YX=     2.5210   ZX=    19.8782
   XY=    -1.4260   YY=    85.0650   ZY=    -2.0806
   XZ=    16.0148   YZ=    -1.6072   ZZ=   101.4913
   Eigenvalues:    84.6759    94.4917   145.0865
      4  C    Isotropic =   144.3442   Anisotropy =    37.1203
   XX=   153.6733   YX=    14.5553   ZX=     6.3533
   XY=    10.4607   YY=   146.7659   ZY=     6.0706
   XZ=    12.3161   YZ=    17.5460   ZZ=   132.5935
   Eigenvalues:   125.7093   138.2323   169.0910
      5  C    Isotropic =    13.2060   Anisotropy =    87.8808
   XX=   -64.0361   YX=    20.3904   ZX=    24.8590
   XY=    28.1576   YY=    51.0057   ZY=   -20.7990
   XZ=    36.0594   YZ=   -18.5529   ZZ=    52.6484
   Eigenvalues:   -77.7741    45.5988    71.7932
      6  H    Isotropic =    27.9318   Anisotropy =     3.9193
   XX=    30.3643   YX=     0.0857   ZX=    -0.6909
   XY=    -0.0066   YY=    28.8132   ZY=    -2.4541
   XZ=    -0.6604   YZ=    -2.0864   ZZ=    24.6178
   Eigenvalues:    23.5708    29.6799    30.5446
      7  H    Isotropic =    30.2218   Anisotropy =     5.5245
   XX=    28.2432   YX=     0.5241   ZX=    -1.9725
   XY=     0.9269   YY=    33.7584   ZY=    -0.0962
   XZ=    -1.2326   YZ=    -0.5048   ZZ=    28.6637
   Eigenvalues:    26.8195    29.9411    33.9048
      8  H    Isotropic =    29.7788   Anisotropy =     3.8550
   XX=    30.9147   YX=     0.4714   ZX=    -1.6581
   XY=     1.4383   YY=    28.6755   ZY=     2.9578
   XZ=    -0.6831   YZ=     3.0745   ZZ=    29.7462
   Eigenvalues:    25.7225    31.2651    32.3488
      9  H    Isotropic =    29.4267   Anisotropy =     4.3992
   XX=    30.4926   YX=    -1.2710   ZX=     0.8571
   XY=    -1.7822   YY=    31.0007   ZY=    -0.3435
   XZ=     1.0570   YZ=     0.4112   ZZ=    26.7867
   Eigenvalues:    26.5151    29.4055    32.3595
     10  O    Isotropic =   110.7178   Anisotropy =   192.5717
   XX=   175.7638   YX=   -61.6661   ZX=   -63.4081
   XY=   -70.2466   YY=    53.7230   ZY=  -139.9876
   XZ=   -76.8570   YZ=  -171.7111   ZZ=   102.6666
   Eigenvalues:  -111.4874   204.5420   239.0990
     11  O    Isotropic =  -104.9712   Anisotropy =   569.9125
   XX=  -232.1195   YX=    43.2669   ZX=    62.0124
   XY=    37.7076   YY=   -44.7718   ZY=  -299.6821
   XZ=    50.3219   YZ=  -332.4921   ZZ=   -38.0224
   Eigenvalues:  -387.5415  -202.3427   274.9704
     12  C    Isotropic =   157.6626   Anisotropy =    19.9162
   XX=   165.4673   YX=    -2.7294   ZX=   -11.1684
   XY=     0.6999   YY=   150.3177   ZY=     6.3331
   XZ=    -4.3145   YZ=     5.8884   ZZ=   157.2028
   Eigenvalues:   146.1640   155.8837   170.9401
     13  C    Isotropic =   175.1576   Anisotropy =    22.7190
   XX=   187.6449   YX=    -2.4046   ZX=     4.0145
   XY=    -0.4718   YY=   165.5745   ZY=    -7.3627
   XZ=     8.0952   YZ=    -6.2912   ZZ=   172.2534
   Eigenvalues:   161.1513   174.0179   190.3036
     14  C    Isotropic =   180.0468   Anisotropy =    12.5128
   XX=   178.1110   YX=    -2.7194   ZX=    -0.9462
   XY=    -2.7174   YY=   180.6361   ZY=    -8.1653
   XZ=    -1.5760   YZ=    -6.3747   ZZ=   181.3933
   Eigenvalues:   172.3267   179.4250   188.3887
     15  O    Isotropic =   245.5707   Anisotropy =    20.8332
   XX=   237.4157   YX=    12.4563   ZX=    -4.2461
   XY=    14.0261   YY=   248.8474   ZY=     7.4115
   XZ=    -9.8169   YZ=     9.5189   ZZ=   250.4490
   Eigenvalues:   224.4039   252.8487   259.4595
     16  Si   Isotropic =   332.7358   Anisotropy =    43.0954
   XX=   360.5476   YX=   -10.0561   ZX=   -10.9590
   XY=    -0.3615   YY=   320.0337   ZY=     7.4674
   XZ=     5.7571   YZ=     4.6907   ZZ=   317.6262
   Eigenvalues:   312.5958   324.1455   361.4661
     17  C    Isotropic =   185.4124   Anisotropy =    11.4309
   XX=   186.5315   YX=    -2.5366   ZX=    -0.5675
   XY=    -0.2583   YY=   192.4794   ZY=    -2.4386
   XZ=    -0.7556   YZ=    -1.8388   ZZ=   177.2264
   Eigenvalues:   176.8574   186.3469   193.0330
     18  C    Isotropic =   185.9279   Anisotropy =     8.6177
   XX=   186.8952   YX=    -0.4517   ZX=    -3.1688
   XY=    -2.5293   YY=   181.8398   ZY=    -4.2932
   XZ=    -1.5642   YZ=    -4.5604   ZZ=   189.0485
   Eigenvalues:   179.0109   187.0997   191.6730
     19  C    Isotropic =   186.8845   Anisotropy =    12.5910
   XX=   190.2409   YX=     0.8090   ZX=     3.5063
   XY=     0.4253   YY=   183.5977   ZY=     7.7061
   XZ=     3.4627   YZ=     8.2032   ZZ=   186.8150
   Eigenvalues:   176.8573   188.5177   195.2785
     20  H    Isotropic =    32.1598   Anisotropy =    10.4863
   XX=    38.0594   YX=    -1.1319   ZX=    -3.1231
   XY=    -1.3601   YY=    28.3214   ZY=    -0.0489
   XZ=    -2.7463   YZ=    -0.0445   ZZ=    30.0987
   Eigenvalues:    28.0272    29.3015    39.1507
     21  H    Isotropic =    31.8788   Anisotropy =     6.7676
   XX=    31.7215   YX=     1.4060   ZX=     0.8469
   XY=     1.4019   YY=    29.0647   ZY=     2.1551
   XZ=     1.7239   YZ=     2.7962   ZZ=    34.8500
   Eigenvalues:    27.9285    31.3173    36.3905
     22  H    Isotropic =    31.8852   Anisotropy =     7.5934
   XX=    30.2311   YX=     0.0474   ZX=    -1.0633
   XY=    -0.0511   YY=    35.8954   ZY=    -2.4764
   XZ=    -0.9092   YZ=    -3.0570   ZZ=    29.5292
   Eigenvalues:    28.0927    30.6154    36.9475
     23  H    Isotropic =    32.3437   Anisotropy =    10.3176
   XX=    39.0244   YX=    -0.4702   ZX=     1.4587
   XY=    -0.7094   YY=    28.8146   ZY=     0.6257
   XZ=     1.1769   YZ=     0.6699   ZZ=    29.1921
   Eigenvalues:    28.1771    29.6319    39.2221
     24  H    Isotropic =    31.9180   Anisotropy =     8.4741
   XX=    29.6918   YX=     0.8857   ZX=     1.5274
   XY=     0.4876   YY=    37.3088   ZY=     0.8191
   XZ=     1.2569   YZ=     1.5476   ZZ=    28.7533
   Eigenvalues:    27.7188    30.4678    37.5674
     25  H    Isotropic =    31.8947   Anisotropy =     8.2787
   XX=    30.0583   YX=     1.1653   ZX=     0.0182
   XY=     0.9008   YY=    28.2654   ZY=    -0.3265
   XZ=    -0.4829   YZ=    -0.8966   ZZ=    37.3604
   Eigenvalues:    27.7718    30.4985    37.4138
     26  H    Isotropic =    32.2202   Anisotropy =    10.4459
   XX=    37.3858   YX=    -3.9349   ZX=     0.0631
   XY=    -3.6305   YY=    31.2264   ZY=    -0.0607
   XZ=     0.0014   YZ=     0.0143   ZZ=    28.0483
   Eigenvalues:    28.0481    29.4283    39.1841
     27  H    Isotropic =    31.8889   Anisotropy =     7.5574
   XX=    30.2758   YX=    -0.3302   ZX=    -1.5673
   XY=     0.1517   YY=    31.5008   ZY=    -4.2345
   XZ=    -1.6116   YZ=    -3.4018   ZZ=    33.8900
   Eigenvalues:    28.1642    30.5753    36.9271
     28  H    Isotropic =    31.8984   Anisotropy =     6.7585
   XX=    31.5277   YX=     0.1120   ZX=     2.4295
   XY=     0.9450   YY=    33.2008   ZY=     3.6719
   XZ=     2.6196   YZ=     2.9903   ZZ=    30.9666
   Eigenvalues:    27.6772    31.6138    36.4040
     29  H    Isotropic =    31.1855   Anisotropy =    10.0349
   XX=    31.1608   YX=    -1.6751   ZX=    -3.0231
   XY=    -1.2526   YY=    26.1478   ZY=    -0.3935
   XZ=    -3.5713   YZ=    -0.4248   ZZ=    36.2479
   Eigenvalues:    25.5779    30.1031    37.8754
     30  H    Isotropic =    31.4683   Anisotropy =     7.2032
   XX=    28.9462   YX=     0.9517   ZX=    -0.4283
   XY=     1.0092   YY=    35.5098   ZY=    -2.0712
   XZ=    -0.1808   YZ=    -1.8325   ZZ=    29.9488
   Eigenvalues:    28.8023    29.3322    36.2704
     31  H    Isotropic =    30.7751   Anisotropy =     8.2325
   XX=    35.3409   YX=     0.4402   ZX=     1.7577
   XY=    -0.2499   YY=    24.9192   ZY=    -2.3107
   XZ=     1.9665   YZ=    -2.5372   ZZ=    32.0652
   Eigenvalues:    24.1371    31.9248    36.2634
     32  H    Isotropic =    30.7476   Anisotropy =     6.7148
   XX=    32.2723   YX=    -0.8617   ZX=    -0.2248
   XY=    -1.2720   YY=    29.3404   ZY=     5.0400
   XZ=    -0.5147   YZ=     4.6934   ZZ=    30.6302
   Eigenvalues:    25.0323    31.9864    35.2242
     33  H    Isotropic =    30.3329   Anisotropy =     4.5904
   XX=    33.2009   YX=    -0.1625   ZX=    -0.1499
   XY=    -0.2027   YY=    27.9112   ZY=    -4.2823
   XZ=     0.0059   YZ=    -4.4502   ZZ=    29.8866
   Eigenvalues:    24.4183    33.1872    33.3932
     34  H    Isotropic =    30.9906   Anisotropy =    11.5527
   XX=    37.2489   YX=    -0.4081   ZX=    -4.0188
   XY=    -0.2114   YY=    26.0626   ZY=    -0.3712
   XZ=    -3.1966   YZ=    -0.3005   ZZ=    29.6602
   Eigenvalues:    25.9792    28.3002    38.6924
     35  H    Isotropic =    31.2060   Anisotropy =     8.8417
   XX=    32.0161   YX=    -2.7603   ZX=     2.3793
   XY=    -2.4235   YY=    32.3768   ZY=    -3.5712
   XZ=     1.4831   YZ=    -4.3188   ZZ=    29.2252
   Eigenvalues:    26.5479    29.9696    37.1005
     36  H    Isotropic =    30.6065   Anisotropy =     8.0173
   XX=    32.9235   YX=     1.6369   ZX=     2.6098
   XY=     1.4615   YY=    29.9407   ZY=     3.9012
   XZ=     1.9373   YZ=     4.2791   ZZ=    28.9554
   Eigenvalues:    25.2618    30.6064    35.9514
     37  C    Isotropic =   140.6916   Anisotropy =    34.1704
   XX=   122.7019   YX=     0.4965   ZX=    -0.0047
   XY=    -3.3345   YY=   162.3849   ZY=    -5.3633
   XZ=    -0.8672   YZ=    -5.1504   ZZ=   136.9881
   Eigenvalues:   122.6228   135.9802   163.4719
     38  C    Isotropic =    46.4137   Anisotropy =   179.7144
   XX=    47.7267   YX=   -20.8777   ZX=   -91.8304
   XY=   -23.3846   YY=    16.3317   ZY=   -71.5973
   XZ=   -91.7119   YZ=   -70.5787   ZZ=    75.1826
   Eigenvalues:   -77.2612    50.2790   166.2233
     39  C    Isotropic =    65.7684   Anisotropy =   141.0155
   XX=    75.4651   YX=   -29.7785   ZX=   -71.7298
   XY=   -31.3951   YY=    38.7683   ZY=   -65.6937
   XZ=   -70.7228   YZ=   -71.2510   ZZ=    83.0719
   Eigenvalues:   -49.2806    86.8071   159.7788
     40  H    Isotropic =    29.7187   Anisotropy =     5.1410
   XX=    29.6699   YX=    -0.9418   ZX=     2.1119
   XY=     0.4128   YY=    29.2002   ZY=    -1.6811
   XZ=     1.9462   YZ=    -3.1396   ZZ=    30.2861
   Eigenvalues:    26.7870    29.2230    33.1461
     41  H    Isotropic =    29.5320   Anisotropy =     5.8563
   XX=    31.2826   YX=    -2.0870   ZX=    -2.0883
   XY=    -1.6681   YY=    27.9885   ZY=    -1.5178
   XZ=    -3.4515   YZ=    -0.4200   ZZ=    29.3250
   Eigenvalues:    25.7227    29.4372    33.4362
     42  H    Isotropic =    25.7300   Anisotropy =     7.3791
   XX=    25.2641   YX=    -0.9342   ZX=    -0.4161
   XY=    -2.2048   YY=    30.0725   ZY=    -1.4487
   XZ=    -0.5981   YZ=    -0.8916   ZZ=    21.8534
   Eigenvalues:    21.5409    24.9996    30.6494
     43  H    Isotropic =    26.7127   Anisotropy =     6.8669
   XX=    25.8836   YX=    -3.3043   ZX=    -0.8221
   XY=    -1.5579   YY=    29.9365   ZY=    -0.7362
   XZ=    -0.2447   YZ=    -2.4316   ZZ=    24.3180
   Eigenvalues:    23.2435    25.6039    31.2906
     44  H    Isotropic =    26.7585   Anisotropy =     7.2098
   XX=    26.7911   YX=    -1.8508   ZX=     0.3285
   XY=    -3.8470   YY=    28.4677   ZY=    -3.8211
   XZ=    -0.5451   YZ=    -2.3566   ZZ=    25.0165
   Eigenvalues:    22.5331    26.1773    31.5650
 End of Minotr F.D. properties file   721 does not exist.
 End of Minotr F.D. properties file   722 does not exist.
 End of Minotr F.D. properties file   788 does not exist.

 **********************************************************************

            Population analysis using the SCF density.

 **********************************************************************

 Orbital symmetries:
       Occupied  (A) (A) (A) (A) (A) (A) (A) (A) (A) (A) (A) (A)
                 (A) (A) (A) (A) (A) (A) (A) (A) (A) (A) (A) (A)
                 (A) (A) (A) (A) (A) (A) (A) (A) (A) (A) (A) (A)
                 (A) (A) (A) (A) (A) (A) (A) (A) (A) (A) (A) (A)
                 (A) (A) (A) (A) (A) (A) (A) (A) (A) (A) (A) (A)
                 (A) (A) (A) (A) (A) (A) (A) (A) (A) (A) (A) (A)
                 (A) (A)
       Virtual   (A) (A) (A) (A) (A) (A) (A) (A) (A) (A) (A) (A)
                 (A) (A) (A) (A) (A) (A) (A) (A) (A) (A) (A) (A)
                 (A) (A) (A) (A) (A) (A) (A) (A) (A) (A) (A) (A)
                 (A) (A) (A) (A) (A) (A) (A) (A) (A) (A) (A) (A)
                 (A) (A) (A) (A) (A) (A) (A) (A) (A) (A) (A) (A)
                 (A) (A) (A) (A) (A) (A) (A) (A) (A) (A) (A) (A)
                 (A) (A) (A) (A) (A) (A) (A) (A) (A) (A) (A) (A)
                 (A) (A) (A) (A) (A) (A) (A) (A) (A) (A) (A) (A)
                 (A) (A) (A) (A) (A) (A) (A) (A) (A) (A) (A) (A)
                 (A) (A) (A) (A) (A) (A) (A) (A) (A) (A) (A) (A)
                 (A) (A) (A) (A) (A) (A) (A) (A) (A) (A) (A) (A)
                 (A) (A) (A) (A) (A) (A) (A) (A) (A) (A) (A) (A)
                 (A) (A) (A) (A) (A) (A) (A) (A) (A) (A) (A) (A)
                 (A) (A) (A) (A) (A) (A) (A) (A) (A) (A) (A) (A)
                 (A) (A) (A) (A) (A) (A) (A) (A) (A) (A) (A) (A)
                 (A) (A) (A) (A) (A) (A) (A) (A) (A) (A) (A) (A)
                 (A) (A) (A) (A) (A) (A) (A) (A) (A) (A) (A) (A)
                 (A) (A) (A) (A) (A) (A) (A) (A) (A) (A) (A) (A)
                 (A) (A) (A) (A) (A) (A) (A) (A) (A) (A) (A) (A)
                 (A) (A) (A) (A) (A) (A) (A) (A) (A) (A) (A) (A)
                 (A) (A) (A) (A) (A) (A) (A) (A) (A) (A) (A) (A)
                 (A) (A) (A) (A) (A) (A) (A) (A) (A) (A) (A) (A)
                 (A) (A) (A) (A) (A) (A) (A) (A) (A) (A) (A) (A)
                 (A) (A) (A) (A) (A) (A) (A) (A) (A) (A) (A) (A)
                 (A) (A) (A) (A) (A) (A) (A) (A) (A) (A) (A) (A)
                 (A) (A) (A) (A) (A) (A) (A) (A) (A) (A) (A) (A)
                 (A) (A) (A) (A) (A) (A) (A) (A) (A) (A) (A) (A)
                 (A) (A) (A) (A) (A) (A) (A) (A) (A) (A) (A) (A)
 The electronic state is 1-A.
 Alpha  occ. eigenvalues --  -66.27470 -19.25896 -19.20731 -19.19657 -10.37078
 Alpha  occ. eigenvalues --  -10.31727 -10.30323 -10.25292 -10.25008 -10.24342
 Alpha  occ. eigenvalues --  -10.24313 -10.23739 -10.23022 -10.22292 -10.22058
 Alpha  occ. eigenvalues --  -10.21058 -10.20868 -10.20719  -5.33204  -3.67092
 Alpha  occ. eigenvalues --   -3.66797  -3.66785  -1.13160  -1.04840  -1.04062
 Alpha  occ. eigenvalues --   -0.85927  -0.82990  -0.80930  -0.77441  -0.74057
 Alpha  occ. eigenvalues --   -0.73204  -0.71369  -0.70344  -0.70215  -0.66623
 Alpha  occ. eigenvalues --   -0.63743  -0.62326  -0.58696  -0.54563  -0.53127
 Alpha  occ. eigenvalues --   -0.52788  -0.51209  -0.50441  -0.47874  -0.47264
 Alpha  occ. eigenvalues --   -0.46437  -0.45079  -0.44858  -0.44342  -0.43886
 Alpha  occ. eigenvalues --   -0.42768  -0.42603  -0.42503  -0.41574  -0.40962
 Alpha  occ. eigenvalues --   -0.40727  -0.40305  -0.39759  -0.39553  -0.38633
 Alpha  occ. eigenvalues --   -0.38321  -0.37909  -0.37093  -0.36673  -0.36393
 Alpha  occ. eigenvalues --   -0.35559  -0.34318  -0.33320  -0.32149  -0.31007
 Alpha  occ. eigenvalues --   -0.30347  -0.29525  -0.28305  -0.27244
 Alpha virt. eigenvalues --    0.00359   0.00890   0.03681   0.05569   0.06255
 Alpha virt. eigenvalues --    0.06579   0.07299   0.08014   0.08376   0.09084
 Alpha virt. eigenvalues --    0.09324   0.09774   0.10353   0.10715   0.11064
 Alpha virt. eigenvalues --    0.11990   0.12820   0.12991   0.13919   0.14221
 Alpha virt. eigenvalues --    0.14432   0.14714   0.14780   0.15093   0.15567
 Alpha virt. eigenvalues --    0.16043   0.16501   0.16978   0.17370   0.17708
 Alpha virt. eigenvalues --    0.18388   0.19231   0.19586   0.20568   0.20893
 Alpha virt. eigenvalues --    0.21870   0.22047   0.22776   0.23900   0.24739
 Alpha virt. eigenvalues --    0.24975   0.25560   0.26987   0.28091   0.28615
 Alpha virt. eigenvalues --    0.29499   0.30206   0.30924   0.31630   0.32007
 Alpha virt. eigenvalues --    0.33048   0.33437   0.34864   0.35681   0.36224
 Alpha virt. eigenvalues --    0.37183   0.38015   0.39088   0.39865   0.40773
 Alpha virt. eigenvalues --    0.41304   0.42079   0.43012   0.44027   0.44199
 Alpha virt. eigenvalues --    0.45345   0.45961   0.46674   0.47666   0.48080
 Alpha virt. eigenvalues --    0.49369   0.50485   0.50976   0.51478   0.52336
 Alpha virt. eigenvalues --    0.52897   0.53149   0.54198   0.56098   0.56217
 Alpha virt. eigenvalues --    0.56704   0.57755   0.58272   0.58659   0.58718
 Alpha virt. eigenvalues --    0.59580   0.59828   0.60409   0.60945   0.61173
 Alpha virt. eigenvalues --    0.61610   0.61883   0.62073   0.62726   0.62891
 Alpha virt. eigenvalues --    0.63759   0.64010   0.64250   0.65038   0.65844
 Alpha virt. eigenvalues --    0.66127   0.67049   0.67120   0.67583   0.67861
 Alpha virt. eigenvalues --    0.69039   0.69430   0.69632   0.70529   0.71576
 Alpha virt. eigenvalues --    0.72197   0.72469   0.72825   0.73246   0.74374
 Alpha virt. eigenvalues --    0.75332   0.76592   0.78237   0.78844   0.81207
 Alpha virt. eigenvalues --    0.82485   0.83599   0.85906   0.87058   0.87687
 Alpha virt. eigenvalues --    0.89179   0.91351   0.92426   0.92935   0.94606
 Alpha virt. eigenvalues --    0.94996   0.95844   0.98002   0.99950   1.00365
 Alpha virt. eigenvalues --    1.01546   1.03474   1.05502   1.06641   1.08670
 Alpha virt. eigenvalues --    1.12072   1.12781   1.16028   1.18578   1.19119
 Alpha virt. eigenvalues --    1.22559   1.23331   1.24739   1.26303   1.27834
 Alpha virt. eigenvalues --    1.28291   1.30686   1.31233   1.32468   1.33082
 Alpha virt. eigenvalues --    1.33692   1.35298   1.38594   1.39107   1.41031
 Alpha virt. eigenvalues --    1.41876   1.44846   1.46438   1.47660   1.48825
 Alpha virt. eigenvalues --    1.50005   1.50653   1.52335   1.53071   1.53686
 Alpha virt. eigenvalues --    1.54747   1.55631   1.56437   1.56678   1.58181
 Alpha virt. eigenvalues --    1.58781   1.58939   1.59459   1.60125   1.60745
 Alpha virt. eigenvalues --    1.61226   1.61395   1.62113   1.63183   1.64030
 Alpha virt. eigenvalues --    1.64564   1.66435   1.67347   1.67963   1.68685
 Alpha virt. eigenvalues --    1.70194   1.70745   1.71846   1.73360   1.73678
 Alpha virt. eigenvalues --    1.75675   1.76056   1.78270   1.80256   1.80812
 Alpha virt. eigenvalues --    1.81297   1.82504   1.83215   1.83807   1.87072
 Alpha virt. eigenvalues --    1.87614   1.90228   1.92709   1.96060   1.99149
 Alpha virt. eigenvalues --    1.99512   2.03594   2.07231   2.09824   2.12907
 Alpha virt. eigenvalues --    2.14118   2.17100   2.21834   2.22665   2.27454
 Alpha virt. eigenvalues --    2.28676   2.30246   2.34457   2.35593   2.40802
 Alpha virt. eigenvalues --    2.41798   2.42101   2.42307   2.42619   2.43398
 Alpha virt. eigenvalues --    2.44086   2.44463   2.45624   2.46477   2.47275
 Alpha virt. eigenvalues --    2.47324   2.48122   2.49826   2.50792   2.52291
 Alpha virt. eigenvalues --    2.53467   2.54439   2.56157   2.58895   2.59428
 Alpha virt. eigenvalues --    2.62229   2.64007   2.66406   2.71631   2.78240
 Alpha virt. eigenvalues --    2.81779   2.86348   2.88064   2.90866   2.91802
 Alpha virt. eigenvalues --    2.92096   2.93257   2.95518   2.96640   2.98506
 Alpha virt. eigenvalues --    2.99345   3.00628   3.03193   3.03910   3.06990
 Alpha virt. eigenvalues --    3.10317   3.10787   3.12068   3.13903   3.15410
 Alpha virt. eigenvalues --    3.16151   3.17387   3.17536   3.18200   3.19936
 Alpha virt. eigenvalues --    3.21365   3.22135   3.23213   3.23467   3.24569
 Alpha virt. eigenvalues --    3.25881   3.27109   3.28862   3.30489   3.30632
 Alpha virt. eigenvalues --    3.34179   3.35711   3.37835   3.40073   3.40730
 Alpha virt. eigenvalues --    3.44284   3.51162   3.57824   3.58937   3.63163
 Alpha virt. eigenvalues --    3.76611   3.88629   3.90301   3.99453   4.02217
 Alpha virt. eigenvalues --    4.08547   4.13872   4.21140   4.23026   4.25577
 Alpha virt. eigenvalues --    4.94198   5.00146   5.01775   5.11501   5.14007
 Alpha virt. eigenvalues --    5.23957   5.52221   5.55665   5.76055   5.84521
 Alpha virt. eigenvalues --   11.52466  11.53478  11.56487  23.41333  23.48538
 Alpha virt. eigenvalues --   23.54492  23.54711  23.56557  23.62718  23.70746
 Alpha virt. eigenvalues --   23.73565  23.78575  23.79739  23.81747  23.87193
 Alpha virt. eigenvalues --   23.88189  24.28992  49.98347  50.06296  50.13211
 Alpha virt. eigenvalues --  141.26984
          Condensed to atoms (all electrons):
               1          2          3          4          5          6
     1  C    5.292236   0.253992  -0.062553  -0.000520  -0.053943   0.386421
     2  C    0.253992   5.573521   0.294293  -0.082858  -0.012741  -0.042651
     3  C   -0.062553   0.294293   5.168159   0.225632  -0.017999  -0.018170
     4  C   -0.000520  -0.082858   0.225632   5.886931   0.239631   0.002998
     5  C   -0.053943  -0.012741  -0.017999   0.239631   4.380988  -0.002640
     6  H    0.386421  -0.042651  -0.018170   0.002998  -0.002640   0.476620
     7  H   -0.034946   0.388440  -0.041289   0.008669   0.000302  -0.000294
     8  H   -0.000898   0.007314  -0.028299   0.359191  -0.023816   0.000246
     9  H    0.002304  -0.008917  -0.031082   0.370636  -0.022188  -0.000335
    10  O    0.196646  -0.036059   0.003519  -0.104942   0.353155  -0.034271
    11  O    0.002236  -0.000345   0.004533  -0.097231   0.668215  -0.000050
    12  C    0.321880  -0.051108   0.008555  -0.002188   0.002929  -0.046607
    13  C   -0.072439   0.006591  -0.000139   0.000067  -0.000127  -0.007308
    14  C   -0.074596   0.290119  -0.072638  -0.008904   0.001154   0.007291
    15  O    0.003835  -0.057826   0.218873  -0.024837   0.001815  -0.000060
    16  Si   0.000236   0.001454  -0.046061  -0.009106   0.001211  -0.000128
    17  C    0.000003  -0.000061   0.000261   0.000389   0.000031   0.000001
    18  C    0.000008  -0.000253   0.001030  -0.000634   0.000029   0.000002
    19  C   -0.000002   0.000027   0.002321  -0.000141   0.000001   0.000000
    20  H    0.000000   0.000006  -0.000074   0.000027   0.000000   0.000000
    21  H    0.000006  -0.000078   0.000564   0.000781  -0.000013  -0.000002
    22  H    0.000002  -0.000077   0.000174   0.000078   0.000003  -0.000001
    23  H    0.000000   0.000002  -0.000069  -0.000001   0.000000   0.000000
    24  H   -0.000001  -0.000005  -0.000068  -0.000019   0.000000   0.000000
    25  H   -0.000001   0.000074  -0.000144  -0.000047   0.000000   0.000000
    26  H    0.000000   0.000002  -0.000059   0.000176   0.000000   0.000000
    27  H   -0.000002   0.000075   0.000524  -0.000137  -0.000039   0.000000
    28  H    0.000001   0.000010   0.000176   0.001114   0.000007   0.000000
    29  H   -0.007076  -0.033196   0.006700  -0.000408  -0.000058  -0.000314
    30  H   -0.006413  -0.041326  -0.009736   0.005802  -0.000628   0.000580
    31  H    0.007103  -0.037312  -0.006314  -0.000202  -0.000157  -0.000146
    32  H   -0.053942   0.001987  -0.000206   0.000173  -0.000031   0.000182
    33  H   -0.039983  -0.011192  -0.000619   0.000152  -0.000156   0.007513
    34  H    0.008181  -0.000223   0.000012  -0.000002   0.000006  -0.000196
    35  H   -0.003860  -0.000415  -0.000019  -0.000007  -0.000070   0.005442
    36  H   -0.012268   0.000749  -0.000058   0.000317   0.000621   0.000300
    37  C    0.003362  -0.096034   0.335554  -0.105828   0.002338   0.005551
    38  C   -0.002769  -0.016959  -0.057189   0.009097  -0.000293  -0.000004
    39  C   -0.000690  -0.000143  -0.002863  -0.000075  -0.000023   0.003949
    40  H    0.000127  -0.003155  -0.024973  -0.005876   0.002690  -0.004188
    41  H   -0.000560   0.008801  -0.045538  -0.005524   0.000033   0.000859
    42  H    0.000263  -0.001469  -0.001645   0.000076  -0.000012  -0.000047
    43  H    0.000039   0.000015  -0.000342   0.000016   0.000000   0.000041
    44  H    0.000099  -0.000157   0.000236  -0.000042  -0.000009   0.000850
               7          8          9         10         11         12
     1  C   -0.034946  -0.000898   0.002304   0.196646   0.002236   0.321880
     2  C    0.388440   0.007314  -0.008917  -0.036059  -0.000345  -0.051108
     3  C   -0.041289  -0.028299  -0.031082   0.003519   0.004533   0.008555
     4  C    0.008669   0.359191   0.370636  -0.104942  -0.097231  -0.002188
     5  C    0.000302  -0.023816  -0.022188   0.353155   0.668215   0.002929
     6  H   -0.000294   0.000246  -0.000335  -0.034271  -0.000050  -0.046607
     7  H    0.452956  -0.000025  -0.000246   0.003426   0.000022  -0.004090
     8  H   -0.000025   0.418444  -0.015749   0.004485   0.010955   0.000041
     9  H   -0.000246  -0.015749   0.400114   0.000368   0.001938   0.000085
    10  O    0.003426   0.004485   0.000368   8.049072  -0.076851  -0.052328
    11  O    0.000022   0.010955   0.001938  -0.076851   7.869298  -0.000165
    12  C   -0.004090   0.000041   0.000085  -0.052328  -0.000165   5.307256
    13  C   -0.000340  -0.000003   0.000011  -0.004240  -0.000015   0.318563
    14  C   -0.033261   0.000052   0.000392  -0.000330  -0.000027  -0.013126
    15  O    0.002014  -0.001426  -0.001943  -0.000018  -0.000018  -0.000064
    16  Si  -0.000376  -0.000677  -0.004949  -0.000317  -0.000784   0.000014
    17  C    0.000028  -0.000141  -0.002090   0.000000   0.000005   0.000000
    18  C    0.000003   0.001662   0.000146   0.000000   0.000002   0.000000
    19  C   -0.000024  -0.000009  -0.000116   0.000000   0.000000   0.000000
    20  H    0.000000   0.000007   0.000003   0.000000   0.000000   0.000000
    21  H    0.000001   0.001981  -0.000066   0.000000  -0.000012   0.000000
    22  H   -0.000010  -0.000147   0.000013   0.000000   0.000000   0.000000
    23  H    0.000000  -0.000002   0.000002   0.000000   0.000000   0.000000
    24  H   -0.000025  -0.000006  -0.000008   0.000000   0.000000   0.000000
    25  H   -0.000009  -0.000006  -0.000022   0.000000   0.000000   0.000000
    26  H    0.000000   0.000001   0.000346   0.000000   0.000000   0.000000
    27  H    0.000004   0.000023   0.000103   0.000001   0.000002   0.000000
    28  H    0.000003   0.000579  -0.000269   0.000001   0.000002   0.000000
    29  H   -0.006137   0.000013   0.000203   0.000031   0.000001   0.003183
    30  H    0.006427   0.000392  -0.000872   0.007123  -0.000348  -0.003644
    31  H   -0.002214  -0.000143   0.000467  -0.000163   0.000004   0.000095
    32  H    0.002460  -0.000003  -0.000023   0.003920   0.000008   0.393411
    33  H    0.000304   0.000007  -0.000089   0.002489  -0.000082   0.388114
    34  H   -0.000014   0.000000   0.000000  -0.000208   0.000000  -0.037683
    35  H    0.000031   0.000000   0.000000  -0.000364  -0.000001  -0.040927
    36  H   -0.000053  -0.000008  -0.000011   0.012427   0.000194  -0.038178
    37  C   -0.012058  -0.005581   0.005828  -0.003793  -0.000024  -0.000361
    38  C    0.011276   0.000119  -0.000182   0.000389  -0.000001  -0.000038
    39  C    0.002929   0.000005   0.000000  -0.000024   0.000000   0.000041
    40  H   -0.000284  -0.000504   0.000266   0.001860  -0.000161   0.000754
    41  H    0.000311   0.003436  -0.000316  -0.000159  -0.000020   0.000006
    42  H    0.000119  -0.000012   0.000028   0.000003   0.000000   0.000012
    43  H    0.000146   0.000001  -0.000001   0.000000   0.000000  -0.000003
    44  H   -0.000047   0.000003   0.000001  -0.000027   0.000000   0.000036
              13         14         15         16         17         18
     1  C   -0.072439  -0.074596   0.003835   0.000236   0.000003   0.000008
     2  C    0.006591   0.290119  -0.057826   0.001454  -0.000061  -0.000253
     3  C   -0.000139  -0.072638   0.218873  -0.046061   0.000261   0.001030
     4  C    0.000067  -0.008904  -0.024837  -0.009106   0.000389  -0.000634
     5  C   -0.000127   0.001154   0.001815   0.001211   0.000031   0.000029
     6  H   -0.007308   0.007291  -0.000060  -0.000128   0.000001   0.000002
     7  H   -0.000340  -0.033261   0.002014  -0.000376   0.000028   0.000003
     8  H   -0.000003   0.000052  -0.001426  -0.000677  -0.000141   0.001662
     9  H    0.000011   0.000392  -0.001943  -0.004949  -0.002090   0.000146
    10  O   -0.004240  -0.000330  -0.000018  -0.000317   0.000000   0.000000
    11  O   -0.000015  -0.000027  -0.000018  -0.000784   0.000005   0.000002
    12  C    0.318563  -0.013126  -0.000064   0.000014   0.000000   0.000000
    13  C    5.338833  -0.000095   0.000001   0.000000   0.000000   0.000000
    14  C   -0.000095   5.421703  -0.005983   0.000017   0.000029   0.000000
    15  O    0.000001  -0.005983   8.288483   0.348221  -0.024222  -0.023510
    16  Si   0.000000   0.000017   0.348221  11.507009   0.314715   0.311860
    17  C    0.000000   0.000029  -0.024222   0.314715   5.774751  -0.055207
    18  C    0.000000   0.000000  -0.023510   0.311860  -0.055207   5.788103
    19  C    0.000000  -0.000065  -0.029786   0.336073  -0.046413  -0.044222
    20  H    0.000000   0.000000   0.000820  -0.010484   0.000348   0.362846
    21  H    0.000000   0.000001  -0.001354  -0.026515  -0.000840   0.368766
    22  H    0.000000   0.000003  -0.002092  -0.026570   0.002148   0.371077
    23  H    0.000000  -0.000002   0.001211  -0.015115   0.000743   0.000199
    24  H    0.000000   0.000003  -0.001663  -0.024828   0.002128  -0.000724
    25  H    0.000000   0.000043  -0.001636  -0.024250  -0.000530   0.002099
    26  H    0.000000   0.000002   0.000885  -0.011180   0.362069   0.000608
    27  H    0.000000   0.000228  -0.002222  -0.025381   0.370827   0.002042
    28  H    0.000000   0.000001  -0.001371  -0.026744   0.371182  -0.001061
    29  H    0.000211   0.391106   0.000144   0.000164  -0.000005   0.000000
    30  H   -0.000215   0.387681   0.000178  -0.000671   0.000129   0.000003
    31  H    0.000014   0.385061   0.008037   0.001801   0.000305   0.000049
    32  H   -0.036931  -0.001179  -0.000010  -0.000003   0.000000   0.000000
    33  H   -0.039984   0.004536   0.000000  -0.000007   0.000000   0.000000
    34  H    0.392890   0.000005   0.000000   0.000000   0.000000   0.000000
    35  H    0.385339   0.000010   0.000000   0.000000   0.000000   0.000000
    36  H    0.383938  -0.000074   0.000000   0.000001   0.000000   0.000000
    37  C   -0.000045   0.008331  -0.065480  -0.011838  -0.000388  -0.001986
    38  C    0.000009  -0.000297   0.002967  -0.000390   0.000027   0.000649
    39  C   -0.000014  -0.000014   0.000713   0.000449   0.000000   0.000001
    40  H    0.000005  -0.000407   0.004136   0.001822   0.000015  -0.000078
    41  H   -0.000003  -0.000159  -0.003735  -0.002818  -0.000200  -0.002157
    42  H    0.000001  -0.000100   0.006002   0.002182   0.000030  -0.000007
    43  H    0.000000  -0.000002   0.000014   0.000013   0.000000   0.000000
    44  H    0.000009   0.000004  -0.000008  -0.000005   0.000000  -0.000001
              19         20         21         22         23         24
     1  C   -0.000002   0.000000   0.000006   0.000002   0.000000  -0.000001
     2  C    0.000027   0.000006  -0.000078  -0.000077   0.000002  -0.000005
     3  C    0.002321  -0.000074   0.000564   0.000174  -0.000069  -0.000068
     4  C   -0.000141   0.000027   0.000781   0.000078  -0.000001  -0.000019
     5  C    0.000001   0.000000  -0.000013   0.000003   0.000000   0.000000
     6  H    0.000000   0.000000  -0.000002  -0.000001   0.000000   0.000000
     7  H   -0.000024   0.000000   0.000001  -0.000010   0.000000  -0.000025
     8  H   -0.000009   0.000007   0.001981  -0.000147  -0.000002  -0.000006
     9  H   -0.000116   0.000003  -0.000066   0.000013   0.000002  -0.000008
    10  O    0.000000   0.000000   0.000000   0.000000   0.000000   0.000000
    11  O    0.000000   0.000000  -0.000012   0.000000   0.000000   0.000000
    12  C    0.000000   0.000000   0.000000   0.000000   0.000000   0.000000
    13  C    0.000000   0.000000   0.000000   0.000000   0.000000   0.000000
    14  C   -0.000065   0.000000   0.000001   0.000003  -0.000002   0.000003
    15  O   -0.029786   0.000820  -0.001354  -0.002092   0.001211  -0.001663
    16  Si   0.336073  -0.010484  -0.026515  -0.026570  -0.015115  -0.024828
    17  C   -0.046413   0.000348  -0.000840   0.002148   0.000743   0.002128
    18  C   -0.044222   0.362846   0.368766   0.371077   0.000199  -0.000724
    19  C    5.722383  -0.000546   0.002355  -0.000349   0.361291   0.370132
    20  H   -0.000546   0.444181  -0.021120  -0.021082   0.000613  -0.000062
    21  H    0.002355  -0.021120   0.449755  -0.020575  -0.000053  -0.000059
    22  H   -0.000349  -0.021082  -0.020575   0.449494  -0.000081   0.001135
    23  H    0.361291   0.000613  -0.000053  -0.000081   0.460885  -0.021656
    24  H    0.370132  -0.000062  -0.000059   0.001135  -0.021656   0.453363
    25  H    0.370533  -0.000077  -0.000083  -0.000078  -0.021569  -0.019372
    26  H   -0.000554   0.000384  -0.000003  -0.000050   0.000719  -0.000054
    27  H   -0.000298  -0.000051  -0.000050  -0.000092  -0.000003  -0.000077
    28  H    0.002257   0.000043   0.001068  -0.000032  -0.000053  -0.000091
    29  H   -0.000001   0.000000   0.000000   0.000000   0.000000   0.000001
    30  H    0.000002   0.000000  -0.000001   0.000000   0.000000   0.000000
    31  H    0.000141   0.000000   0.000004   0.000001  -0.000008  -0.000034
    32  H    0.000000   0.000000   0.000000   0.000000   0.000000   0.000000
    33  H    0.000000   0.000000   0.000000   0.000000   0.000000   0.000000
    34  H    0.000000   0.000000   0.000000   0.000000   0.000000   0.000000
    35  H    0.000000   0.000000   0.000000   0.000000   0.000000   0.000000
    36  H    0.000000   0.000000   0.000000   0.000000   0.000000   0.000000
    37  C   -0.000220   0.000270  -0.000395  -0.000048   0.000006   0.000018
    38  C   -0.000069  -0.000041   0.000126   0.000838  -0.000004   0.000031
    39  C    0.000000  -0.000001  -0.000007   0.000101   0.000000  -0.000006
    40  H    0.000002  -0.000006  -0.000094  -0.000043   0.000000   0.000000
    41  H   -0.000031   0.000547   0.000718  -0.000997   0.000004  -0.000004
    42  H    0.000217   0.000002  -0.000003   0.000192  -0.000007   0.000626
    43  H    0.000000   0.000000   0.000000  -0.000003   0.000000  -0.000002
    44  H    0.000000   0.000000   0.000001   0.000001   0.000000   0.000000
              25         26         27         28         29         30
     1  C   -0.000001   0.000000  -0.000002   0.000001  -0.007076  -0.006413
     2  C    0.000074   0.000002   0.000075   0.000010  -0.033196  -0.041326
     3  C   -0.000144  -0.000059   0.000524   0.000176   0.006700  -0.009736
     4  C   -0.000047   0.000176  -0.000137   0.001114  -0.000408   0.005802
     5  C    0.000000   0.000000  -0.000039   0.000007  -0.000058  -0.000628
     6  H    0.000000   0.000000   0.000000   0.000000  -0.000314   0.000580
     7  H   -0.000009   0.000000   0.000004   0.000003  -0.006137   0.006427
     8  H   -0.000006   0.000001   0.000023   0.000579   0.000013   0.000392
     9  H   -0.000022   0.000346   0.000103  -0.000269   0.000203  -0.000872
    10  O    0.000000   0.000000   0.000001   0.000001   0.000031   0.007123
    11  O    0.000000   0.000000   0.000002   0.000002   0.000001  -0.000348
    12  C    0.000000   0.000000   0.000000   0.000000   0.003183  -0.003644
    13  C    0.000000   0.000000   0.000000   0.000000   0.000211  -0.000215
    14  C    0.000043   0.000002   0.000228   0.000001   0.391106   0.387681
    15  O   -0.001636   0.000885  -0.002222  -0.001371   0.000144   0.000178
    16  Si  -0.024250  -0.011180  -0.025381  -0.026744   0.000164  -0.000671
    17  C   -0.000530   0.362069   0.370827   0.371182  -0.000005   0.000129
    18  C    0.002099   0.000608   0.002042  -0.001061   0.000000   0.000003
    19  C    0.370533  -0.000554  -0.000298   0.002257  -0.000001   0.000002
    20  H   -0.000077   0.000384  -0.000051   0.000043   0.000000   0.000000
    21  H   -0.000083  -0.000003  -0.000050   0.001068   0.000000  -0.000001
    22  H   -0.000078  -0.000050  -0.000092  -0.000032   0.000000   0.000000
    23  H   -0.021569   0.000719  -0.000003  -0.000053   0.000000   0.000000
    24  H   -0.019372  -0.000054  -0.000077  -0.000091   0.000001   0.000000
    25  H    0.452796  -0.000103   0.001086  -0.000070  -0.000001  -0.000009
    26  H   -0.000103   0.450420  -0.020926  -0.022343   0.000000  -0.000004
    27  H    0.001086  -0.020926   0.449524  -0.019915  -0.000009   0.000085
    28  H   -0.000070  -0.022343  -0.019915   0.450405  -0.000002   0.000008
    29  H   -0.000001   0.000000  -0.000009  -0.000002   0.455334  -0.027218
    30  H   -0.000009  -0.000004   0.000085   0.000008  -0.027218   0.474525
    31  H    0.000399   0.000002   0.000574  -0.000014  -0.024292  -0.023900
    32  H    0.000000   0.000000   0.000000   0.000000   0.000498   0.000387
    33  H    0.000000   0.000000   0.000000   0.000000  -0.002101   0.001846
    34  H    0.000000   0.000000   0.000000   0.000000   0.000008  -0.000006
    35  H    0.000000   0.000000   0.000000   0.000000  -0.000020   0.000003
    36  H    0.000000   0.000000   0.000000   0.000000  -0.000010   0.000014
    37  C   -0.000020   0.000010  -0.000051  -0.000061  -0.000116  -0.000085
    38  C   -0.000005  -0.000001   0.000003   0.000003  -0.000044  -0.000046
    39  C    0.000000   0.000000   0.000000   0.000000   0.000001  -0.000003
    40  H    0.000001   0.000000   0.000004   0.000006  -0.000007  -0.000039
    41  H   -0.000003   0.000005  -0.000002  -0.000054   0.000014   0.000012
    42  H   -0.000021   0.000000   0.000001   0.000001   0.000002  -0.000007
    43  H    0.000000   0.000000   0.000000   0.000000   0.000000   0.000000
    44  H    0.000000   0.000000   0.000000   0.000000   0.000001   0.000000
              31         32         33         34         35         36
     1  C    0.007103  -0.053942  -0.039983   0.008181  -0.003860  -0.012268
     2  C   -0.037312   0.001987  -0.011192  -0.000223  -0.000415   0.000749
     3  C   -0.006314  -0.000206  -0.000619   0.000012  -0.000019  -0.000058
     4  C   -0.000202   0.000173   0.000152  -0.000002  -0.000007   0.000317
     5  C   -0.000157  -0.000031  -0.000156   0.000006  -0.000070   0.000621
     6  H   -0.000146   0.000182   0.007513  -0.000196   0.005442   0.000300
     7  H   -0.002214   0.002460   0.000304  -0.000014   0.000031  -0.000053
     8  H   -0.000143  -0.000003   0.000007   0.000000   0.000000  -0.000008
     9  H    0.000467  -0.000023  -0.000089   0.000000   0.000000  -0.000011
    10  O   -0.000163   0.003920   0.002489  -0.000208  -0.000364   0.012427
    11  O    0.000004   0.000008  -0.000082   0.000000  -0.000001   0.000194
    12  C    0.000095   0.393411   0.388114  -0.037683  -0.040927  -0.038178
    13  C    0.000014  -0.036931  -0.039984   0.392890   0.385339   0.383938
    14  C    0.385061  -0.001179   0.004536   0.000005   0.000010  -0.000074
    15  O    0.008037  -0.000010   0.000000   0.000000   0.000000   0.000000
    16  Si   0.001801  -0.000003  -0.000007   0.000000   0.000000   0.000001
    17  C    0.000305   0.000000   0.000000   0.000000   0.000000   0.000000
    18  C    0.000049   0.000000   0.000000   0.000000   0.000000   0.000000
    19  C    0.000141   0.000000   0.000000   0.000000   0.000000   0.000000
    20  H    0.000000   0.000000   0.000000   0.000000   0.000000   0.000000
    21  H    0.000004   0.000000   0.000000   0.000000   0.000000   0.000000
    22  H    0.000001   0.000000   0.000000   0.000000   0.000000   0.000000
    23  H   -0.000008   0.000000   0.000000   0.000000   0.000000   0.000000
    24  H   -0.000034   0.000000   0.000000   0.000000   0.000000   0.000000
    25  H    0.000399   0.000000   0.000000   0.000000   0.000000   0.000000
    26  H    0.000002   0.000000   0.000000   0.000000   0.000000   0.000000
    27  H    0.000574   0.000000   0.000000   0.000000   0.000000   0.000000
    28  H   -0.000014   0.000000   0.000000   0.000000   0.000000   0.000000
    29  H   -0.024292   0.000498  -0.002101   0.000008  -0.000020  -0.000010
    30  H   -0.023900   0.000387   0.001846  -0.000006   0.000003   0.000014
    31  H    0.427067  -0.000185   0.000274  -0.000002   0.000003   0.000000
    32  H   -0.000185   0.479993  -0.025305  -0.004574  -0.004954   0.006880
    33  H    0.000274  -0.025305   0.473175  -0.004563   0.006801  -0.003801
    34  H   -0.000002  -0.004574  -0.004563   0.469276  -0.027238  -0.025616
    35  H    0.000003  -0.004954   0.006801  -0.027238   0.485400  -0.027753
    36  H    0.000000   0.006880  -0.003801  -0.025616  -0.027753   0.463202
    37  C    0.000304   0.000018   0.000001   0.000000  -0.000023   0.000003
    38  C    0.000023   0.000087  -0.000017   0.000000   0.000006  -0.000002
    39  C    0.000001   0.000116  -0.000001   0.000000   0.000018   0.000000
    40  H   -0.000026  -0.000028  -0.000041   0.000002  -0.000016  -0.000001
    41  H   -0.000045   0.000002   0.000003   0.000000   0.000001   0.000000
    42  H    0.000019  -0.000003  -0.000001   0.000000   0.000000   0.000000
    43  H    0.000000   0.000003   0.000000   0.000000  -0.000002   0.000000
    44  H   -0.000001   0.000009   0.000001  -0.000001   0.000054  -0.000002
              37         38         39         40         41         42
     1  C    0.003362  -0.002769  -0.000690   0.000127  -0.000560   0.000263
     2  C   -0.096034  -0.016959  -0.000143  -0.003155   0.008801  -0.001469
     3  C    0.335554  -0.057189  -0.002863  -0.024973  -0.045538  -0.001645
     4  C   -0.105828   0.009097  -0.000075  -0.005876  -0.005524   0.000076
     5  C    0.002338  -0.000293  -0.000023   0.002690   0.000033  -0.000012
     6  H    0.005551  -0.000004   0.003949  -0.004188   0.000859  -0.000047
     7  H   -0.012058   0.011276   0.002929  -0.000284   0.000311   0.000119
     8  H   -0.005581   0.000119   0.000005  -0.000504   0.003436  -0.000012
     9  H    0.005828  -0.000182   0.000000   0.000266  -0.000316   0.000028
    10  O   -0.003793   0.000389  -0.000024   0.001860  -0.000159   0.000003
    11  O   -0.000024  -0.000001   0.000000  -0.000161  -0.000020   0.000000
    12  C   -0.000361  -0.000038   0.000041   0.000754   0.000006   0.000012
    13  C   -0.000045   0.000009  -0.000014   0.000005  -0.000003   0.000001
    14  C    0.008331  -0.000297  -0.000014  -0.000407  -0.000159  -0.000100
    15  O   -0.065480   0.002967   0.000713   0.004136  -0.003735   0.006002
    16  Si  -0.011838  -0.000390   0.000449   0.001822  -0.002818   0.002182
    17  C   -0.000388   0.000027   0.000000   0.000015  -0.000200   0.000030
    18  C   -0.001986   0.000649   0.000001  -0.000078  -0.002157  -0.000007
    19  C   -0.000220  -0.000069   0.000000   0.000002  -0.000031   0.000217
    20  H    0.000270  -0.000041  -0.000001  -0.000006   0.000547   0.000002
    21  H   -0.000395   0.000126  -0.000007  -0.000094   0.000718  -0.000003
    22  H   -0.000048   0.000838   0.000101  -0.000043  -0.000997   0.000192
    23  H    0.000006  -0.000004   0.000000   0.000000   0.000004  -0.000007
    24  H    0.000018   0.000031  -0.000006   0.000000  -0.000004   0.000626
    25  H   -0.000020  -0.000005   0.000000   0.000001  -0.000003  -0.000021
    26  H    0.000010  -0.000001   0.000000   0.000000   0.000005   0.000000
    27  H   -0.000051   0.000003   0.000000   0.000004  -0.000002   0.000001
    28  H   -0.000061   0.000003   0.000000   0.000006  -0.000054   0.000001
    29  H   -0.000116  -0.000044   0.000001  -0.000007   0.000014   0.000002
    30  H   -0.000085  -0.000046  -0.000003  -0.000039   0.000012  -0.000007
    31  H    0.000304   0.000023   0.000001  -0.000026  -0.000045   0.000019
    32  H    0.000018   0.000087   0.000116  -0.000028   0.000002  -0.000003
    33  H    0.000001  -0.000017  -0.000001  -0.000041   0.000003  -0.000001
    34  H    0.000000   0.000000   0.000000   0.000002   0.000000   0.000000
    35  H   -0.000023   0.000006   0.000018  -0.000016   0.000001   0.000000
    36  H    0.000003  -0.000002   0.000000  -0.000001   0.000000   0.000000
    37  C    5.453480   0.318710  -0.056681   0.383003   0.395503  -0.047847
    38  C    0.318710   5.066249   0.615956  -0.045715  -0.037992   0.397093
    39  C   -0.056681   0.615956   5.149143   0.002044  -0.001809  -0.039642
    40  H    0.383003  -0.045715   0.002044   0.458609  -0.026328   0.004900
    41  H    0.395503  -0.037992  -0.001809  -0.026328   0.449041  -0.001313
    42  H   -0.047847   0.397093  -0.039642   0.004900  -0.001313   0.456294
    43  H    0.006281  -0.038880   0.393110   0.000097  -0.000313  -0.007725
    44  H   -0.008931  -0.040451   0.387325   0.004404   0.000193   0.005799
              43         44
     1  C    0.000039   0.000099
     2  C    0.000015  -0.000157
     3  C   -0.000342   0.000236
     4  C    0.000016  -0.000042
     5  C    0.000000  -0.000009
     6  H    0.000041   0.000850
     7  H    0.000146  -0.000047
     8  H    0.000001   0.000003
     9  H   -0.000001   0.000001
    10  O    0.000000  -0.000027
    11  O    0.000000   0.000000
    12  C   -0.000003   0.000036
    13  C    0.000000   0.000009
    14  C   -0.000002   0.000004
    15  O    0.000014  -0.000008
    16  Si   0.000013  -0.000005
    17  C    0.000000   0.000000
    18  C    0.000000  -0.000001
    19  C    0.000000   0.000000
    20  H    0.000000   0.000000
    21  H    0.000000   0.000001
    22  H   -0.000003   0.000001
    23  H    0.000000   0.000000
    24  H   -0.000002   0.000000
    25  H    0.000000   0.000000
    26  H    0.000000   0.000000
    27  H    0.000000   0.000000
    28  H    0.000000   0.000000
    29  H    0.000000   0.000001
    30  H    0.000000   0.000000
    31  H    0.000000  -0.000001
    32  H    0.000003   0.000009
    33  H    0.000000   0.000001
    34  H    0.000000  -0.000001
    35  H   -0.000002   0.000054
    36  H    0.000000  -0.000002
    37  C    0.006281  -0.008931
    38  C   -0.038880  -0.040451
    39  C    0.393110   0.387325
    40  H    0.000097   0.004404
    41  H   -0.000313   0.000193
    42  H   -0.007725   0.005799
    43  H    0.453039  -0.033625
    44  H   -0.033625   0.461806
 Mulliken charges:
               1
     1  C   -0.051520
     2  C   -0.292912
     3  C    0.197033
     4  C   -0.662421
     5  C    0.479783
     6  H    0.258564
     7  H    0.255873
     8  H    0.268496
     9  H    0.306219
    10  O   -0.324816
    11  O   -0.381282
    12  C   -0.454467
    13  C   -0.664580
    14  C   -0.686514
    15  O   -0.639087
    16  Si   1.441952
    17  C   -1.070066
    18  C   -1.081345
    19  C   -1.044888
    20  H    0.243449
    21  H    0.245200
    22  H    0.247065
    23  H    0.232949
    24  H    0.241324
    25  H    0.241023
    26  H    0.239649
    27  H    0.244148
    28  H    0.245208
    29  H    0.243401
    30  H    0.229974
    31  H    0.263407
    32  H    0.237244
    33  H    0.242727
    34  H    0.229945
    35  H    0.222561
    36  H    0.239190
    37  C   -0.500680
    38  C   -0.182268
    39  C   -0.453906
    40  H    0.247223
    41  H    0.270588
    42  H    0.226000
    43  H    0.228085
    44  H    0.222475
 Sum of Mulliken charges =   0.00000
 Mulliken charges with hydrogens summed into heavy atoms:
               1
     1  C    0.207044
     2  C   -0.037040
     3  C    0.197033
     4  C   -0.087707
     5  C    0.479783
    10  O   -0.324816
    11  O   -0.381282
    12  C    0.025504
    13  C    0.027116
    14  C    0.050269
    15  O   -0.639087
    16  Si   1.441952
    17  C   -0.341062
    18  C   -0.345632
    19  C   -0.329592
    37  C    0.017131
    38  C    0.043732
    39  C   -0.003346
 Electronic spatial extent (au):  <R**2>=           5660.0338
 Charge=              0.0000 electrons
 Dipole moment (field-independent basis, Debye):
    X=              2.4296    Y=              3.2562    Z=              2.4826  Tot=              4.7612
 Quadrupole moment (field-independent basis, Debye-Ang):
   XX=           -116.0560   YY=           -126.8092   ZZ=           -123.7655
   XY=            -11.5941   XZ=             -8.6091   YZ=             -8.2506
 Traceless Quadrupole moment (field-independent basis, Debye-Ang):
   XX=              6.1543   YY=             -4.5990   ZZ=             -1.5553
   XY=            -11.5941   XZ=             -8.6091   YZ=             -8.2506
 Octapole moment (field-independent basis, Debye-Ang**2):
  XXX=             19.4831  YYY=             27.4418  ZZZ=             12.4953  XYY=             11.9225
  XXY=             14.1808  XXZ=             15.8382  XZZ=             -0.7940  YZZ=              9.1070
  YYZ=             25.6065  XYZ=             19.8263
 Hexadecapole moment (field-independent basis, Debye-Ang**3):
 XXXX=          -4734.4483 YYYY=          -1740.5319 ZZZZ=          -1127.8523 XXXY=            -54.4807
 XXXZ=            -57.3869 YYYX=            -29.0788 YYYZ=            -26.2253 ZZZX=            -11.2809
 ZZZY=            -10.6961 XXYY=          -1142.2439 XXZZ=          -1016.6700 YYZZ=           -536.8271
 XXYZ=            -34.5269 YYXZ=            -28.1600 ZZXY=            -43.6555
 N-N= 1.621053638557D+03 E-N=-5.737251232007D+03  KE= 1.060534105544D+03
 1\1\GINC-CPU-E-1146\SP\RmPW1PW91\6-311G(d)\C14H26O3Si1\KE291\06-Feb-20
 19\0\\# mPW1PW91/6-311g(d) geom=checkpoint nmr=giao scrf=(solvent=chlo
 roform)\\P_ng_4ginp001\\0,1\C,0,0.1011199684,1.7822673739,-0.395467425
 3\C,0,-0.1743396747,1.1803721318,0.9898953072\C,0,-1.2729485127,2.0204
 517944,1.6976549255\C,0,-0.7473664927,3.4586253029,1.835880235\C,0,-0.
 096621253,4.0473679416,0.5935727378\H,0,-0.8088251267,1.7042121437,-1.
 0007866068\H,0,-0.6012759128,0.1871248382,0.8079216395\H,0,-1.53140656
 76,4.154157161,2.1474776408\H,0,0.0246376492,3.4841267182,2.6126111264
 \O,0,0.4162251913,3.2120999926,-0.3339979961\O,0,0.046697642,5.2435307
 112,0.4480703306\C,0,1.2427011553,1.1313839138,-1.1741945896\C,0,1.347
 3407792,1.6248976906,-2.6205601933\C,0,1.0936794764,1.0089145402,1.841
 8393284\O,0,-1.506444563,1.4217792967,2.9701412697\Si,0,-2.1526977464,
 1.920553637,4.4427187192\C,0,-0.9724604146,3.0730821033,5.3606366966\C
 ,0,-3.8276635277,2.7714427312,4.2514612427\C,0,-2.3503656849,0.3137574
 826,5.3998432824\H,0,-4.2415822202,2.9898399229,5.2430651648\H,0,-3.75
 77956151,3.7228608708,3.7135476831\H,0,-4.5480349176,2.1365419695,3.72
 52335311\H,0,-2.7457932955,0.5053023843,6.4036168565\H,0,-3.0402586209
 ,-0.3682317789,4.8920176072\H,0,-1.3906694495,-0.2015013145,5.51102464
 64\H,0,-1.3417677166,3.2437623101,6.378797153\H,0,0.030387435,2.640438
 9634,5.4417739272\H,0,-0.8810443229,4.0512555641,4.8781216751\H,0,1.74
 4685782,0.2427447157,1.4135594552\H,0,1.6774981676,1.9325832285,1.9101
 816045\H,0,0.8261441866,0.6965040579,2.8522606391\H,0,1.0742410387,0.0
 473689753,-1.1612037977\H,0,2.1859594705,1.312727029,-0.6483075251\H,0
 ,2.1766882097,1.1335893792,-3.1380894998\H,0,0.4298335706,1.4098324241
 ,-3.1797407778\H,0,1.5173527488,2.7042158791,-2.654878278\C,0,-2.61232
 92495,2.0281616729,0.9065469391\C,0,-3.1773285746,0.663475031,0.625206
 0421\C,0,-3.577559236,0.2345821658,-0.5732384053\H,0,-2.5019883692,2.5
 874607445,-0.029108191\H,0,-3.3250038677,2.5980980529,1.5155933565\H,0
 ,-3.2639525122,0.0016156865,1.4855341208\H,0,-3.9951338935,-0.75830228
 78,-0.7127560332\H,0,-3.5121271331,0.863569849,-1.4585855644\\Version=
 ES64L-G09RevD.01\State=1-A\HF=-1064.3850337\RMSD=8.624e-09\Dipole=-0.6
 270895,-1.6203411,0.7001182\Quadrupole=2.7238787,-8.9928514,6.2689727,
 -5.8627714,0.4311858,8.4574429\PG=C01 [X(C14H26O3Si1)]\\@


 The cat could very well be man's best friend
 but would never stoop to admitting it.
                               -- Doug Larson
 Job cpu time:       0 days  0 hours 18 minutes 32.4 seconds.
 File lengths (MBytes):  RWF=    241 Int=      0 D2E=      0 Chk=     19 Scr=      1
 Normal termination of Gaussian 09 at Wed Feb  6 11:39:06 2019.
