 Entering Gaussian System, Link 0=/usr/local/shared/gaussian/em64t/09-D01/g09/g09
 Initial command:
 /usr/local/shared/gaussian/em64t/09-D01/g09/l1.exe "/scratch/ke291/P_ng_2ginp015/Gau-12430.inp" -scrdir="/scratch/ke291/P_ng_2ginp015/"
 Entering Link 1 = /usr/local/shared/gaussian/em64t/09-D01/g09/l1.exe PID=     12434.
  
 Copyright (c) 1988,1990,1992,1993,1995,1998,2003,2009,2013,
            Gaussian, Inc.  All Rights Reserved.
  
 This is part of the Gaussian(R) 09 program.  It is based on
 the Gaussian(R) 03 system (copyright 2003, Gaussian, Inc.),
 the Gaussian(R) 98 system (copyright 1998, Gaussian, Inc.),
 the Gaussian(R) 94 system (copyright 1995, Gaussian, Inc.),
 the Gaussian 92(TM) system (copyright 1992, Gaussian, Inc.),
 the Gaussian 90(TM) system (copyright 1990, Gaussian, Inc.),
 the Gaussian 88(TM) system (copyright 1988, Gaussian, Inc.),
 the Gaussian 86(TM) system (copyright 1986, Carnegie Mellon
 University), and the Gaussian 82(TM) system (copyright 1983,
 Carnegie Mellon University). Gaussian is a federally registered
 trademark of Gaussian, Inc.
  
 This software contains proprietary and confidential information,
 including trade secrets, belonging to Gaussian, Inc.
  
 This software is provided under written license and may be
 used, copied, transmitted, or stored only in accord with that
 written license.
  
 The following legend is applicable only to US Government
 contracts under FAR:
  
                    RESTRICTED RIGHTS LEGEND
  
 Use, reproduction and disclosure by the US Government is
 subject to restrictions as set forth in subparagraphs (a)
 and (c) of the Commercial Computer Software - Restricted
 Rights clause in FAR 52.227-19.
  
 Gaussian, Inc.
 340 Quinnipiac St., Bldg. 40, Wallingford CT 06492
  
  
 ---------------------------------------------------------------
 Warning -- This program may not be used in any manner that
 competes with the business of Gaussian, Inc. or will provide
 assistance to any competitor of Gaussian, Inc.  The licensee
 of this program is prohibited from giving any competitor of
 Gaussian, Inc. access to this program.  By using this program,
 the user acknowledges that Gaussian, Inc. is engaged in the
 business of creating and licensing software in the field of
 computational chemistry and represents and warrants to the
 licensee that it is not a competitor of Gaussian, Inc. and that
 it will not use this program in any manner prohibited above.
 ---------------------------------------------------------------
  

 Cite this work as:
 Gaussian 09, Revision D.01,
 M. J. Frisch, G. W. Trucks, H. B. Schlegel, G. E. Scuseria, 
 M. A. Robb, J. R. Cheeseman, G. Scalmani, V. Barone, B. Mennucci, 
 G. A. Petersson, H. Nakatsuji, M. Caricato, X. Li, H. P. Hratchian, 
 A. F. Izmaylov, J. Bloino, G. Zheng, J. L. Sonnenberg, M. Hada, 
 M. Ehara, K. Toyota, R. Fukuda, J. Hasegawa, M. Ishida, T. Nakajima, 
 Y. Honda, O. Kitao, H. Nakai, T. Vreven, J. A. Montgomery, Jr., 
 J. E. Peralta, F. Ogliaro, M. Bearpark, J. J. Heyd, E. Brothers, 
 K. N. Kudin, V. N. Staroverov, T. Keith, R. Kobayashi, J. Normand, 
 K. Raghavachari, A. Rendell, J. C. Burant, S. S. Iyengar, J. Tomasi, 
 M. Cossi, N. Rega, J. M. Millam, M. Klene, J. E. Knox, J. B. Cross, 
 V. Bakken, C. Adamo, J. Jaramillo, R. Gomperts, R. E. Stratmann, 
 O. Yazyev, A. J. Austin, R. Cammi, C. Pomelli, J. W. Ochterski, 
 R. L. Martin, K. Morokuma, V. G. Zakrzewski, G. A. Voth, 
 P. Salvador, J. J. Dannenberg, S. Dapprich, A. D. Daniels, 
 O. Farkas, J. B. Foresman, J. V. Ortiz, J. Cioslowski, 
 and D. J. Fox, Gaussian, Inc., Wallingford CT, 2013.
 
 ******************************************
 Gaussian 09:  EM64L-G09RevD.01 24-Apr-2013
                 6-Feb-2019 
 ******************************************
 %nprocshared=2
 Will use up to    2 processors via shared memory.
 %mem=6000MB
 %chk=P_ng_2ginp015.chk
 ----------------------------------------------------------------------
 # mPW1PW91/6-311g(d) geom=checkpoint nmr=giao scrf=(solvent=chloroform
 )
 ----------------------------------------------------------------------
 1/29=2,38=1/1;
 2/12=2,40=1/2;
 3/5=4,6=6,7=1,11=2,14=-4,16=1,25=1,30=1,70=2201,72=7,74=-7/1,2,8,3;
 4//1;
 5/5=2,38=5,53=7/2;
 8/6=1,10=90,11=11/1;
 10/13=100,45=16/2;
 6/7=2,8=2,9=2,10=2,28=1/1;
 99/9=1/99;
 -------------
 P_ng_2ginp015
 -------------
 Structure from the checkpoint file:  "P_ng_2ginp015.chk"
 Charge =  0 Multiplicity = 1
 Redundant internal coordinates found in file.
 C,0,-0.0341469362,-0.1313651321,1.0281800132
 C,0,-0.8409474116,1.0302752116,0.4299649821
 C,0,-2.0287758729,1.4323858313,1.3522777606
 C,0,-1.4095118555,1.8257648178,2.7032079451
 C,0,-0.4657749296,0.7976431641,3.2987312803
 H,0,-0.6255657109,-1.0506561241,0.9363162683
 H,0,-0.1987821411,1.919230016,0.3971050691
 H,0,-0.8081387564,2.7326501552,2.5641936494
 H,0,-2.1600794064,2.0552114071,3.4602021262
 O,0,0.2326712476,0.0045641265,2.4615438946
 O,0,-0.265834275,0.7089760402,4.4922247736
 C,0,1.3340495274,-0.3883984195,0.3842219706
 C,0,2.3109545645,0.7904612059,0.4273717821
 C,0,-1.2642133401,0.7031617986,-1.0095882612
 O,0,-2.7088813176,2.519154405,0.7418561107
 Si,0,-2.9189409234,4.1682014484,0.9808449546
 C,0,-3.7004965894,4.5532517242,2.6546408394
 C,0,-1.2912498321,5.1108227328,0.8022055567
 C,0,-4.0908236129,4.6621388707,-0.4049823308
 H,0,-1.4824283998,6.1904125185,0.8214168092
 H,0,-0.5823522953,4.8950715381,1.6085377918
 H,0,-0.8000403902,4.8791768129,-0.1489327125
 H,0,-4.318143396,5.7331575023,-0.3611380781
 H,0,-3.6529527175,4.452777465,-1.3865457046
 H,0,-5.0367470306,4.1153323294,-0.3357568385
 H,0,-4.0131178113,5.6036453059,2.6855216008
 H,0,-4.5869443202,3.9337998853,2.8230217478
 H,0,-3.0117447146,4.3922151937,3.4899997897
 H,0,-1.9579828609,1.4635749351,-1.373012984
 H,0,-0.3995875907,0.6862483518,-1.6782974175
 H,0,-1.7570742211,-0.2721930338,-1.0806743777
 H,0,1.1698647492,-0.7102904657,-0.6498466715
 H,0,1.7736905195,-1.2459370113,0.9054304033
 H,0,1.971226948,1.6321986622,-0.1840891109
 H,0,2.4487688401,1.1476832596,1.4522642336
 H,0,3.2895779424,0.4841512676,0.0463235393
 C,0,-3.0651537611,0.2836459751,1.5091770283
 C,0,-4.2337002643,0.5952779803,2.4048501795
 C,0,-5.4984912743,0.6931209555,1.9922176081
 H,0,-2.5505067798,-0.6044574236,1.899848711
 H,0,-3.43575799,0.029315553,0.5119911755
 H,0,-4.0196232068,0.7182360841,3.466235391
 H,0,-6.310108226,0.8976786502,2.6844078993
 H,0,-5.7681221769,0.5647504283,0.9464836025
 Recover connectivity data from disk.
                          Input orientation:                          
 ---------------------------------------------------------------------
 Center     Atomic      Atomic             Coordinates (Angstroms)
 Number     Number       Type             X           Y           Z
 ---------------------------------------------------------------------
      1          6           0       -0.034147   -0.131365    1.028180
      2          6           0       -0.840947    1.030275    0.429965
      3          6           0       -2.028776    1.432386    1.352278
      4          6           0       -1.409512    1.825765    2.703208
      5          6           0       -0.465775    0.797643    3.298731
      6          1           0       -0.625566   -1.050656    0.936316
      7          1           0       -0.198782    1.919230    0.397105
      8          1           0       -0.808139    2.732650    2.564194
      9          1           0       -2.160079    2.055211    3.460202
     10          8           0        0.232671    0.004564    2.461544
     11          8           0       -0.265834    0.708976    4.492225
     12          6           0        1.334050   -0.388398    0.384222
     13          6           0        2.310955    0.790461    0.427372
     14          6           0       -1.264213    0.703162   -1.009588
     15          8           0       -2.708881    2.519154    0.741856
     16         14           0       -2.918941    4.168201    0.980845
     17          6           0       -3.700497    4.553252    2.654641
     18          6           0       -1.291250    5.110823    0.802206
     19          6           0       -4.090824    4.662139   -0.404982
     20          1           0       -1.482428    6.190413    0.821417
     21          1           0       -0.582352    4.895072    1.608538
     22          1           0       -0.800040    4.879177   -0.148933
     23          1           0       -4.318143    5.733158   -0.361138
     24          1           0       -3.652953    4.452777   -1.386546
     25          1           0       -5.036747    4.115332   -0.335757
     26          1           0       -4.013118    5.603645    2.685522
     27          1           0       -4.586944    3.933800    2.823022
     28          1           0       -3.011745    4.392215    3.490000
     29          1           0       -1.957983    1.463575   -1.373013
     30          1           0       -0.399588    0.686248   -1.678297
     31          1           0       -1.757074   -0.272193   -1.080674
     32          1           0        1.169865   -0.710290   -0.649847
     33          1           0        1.773691   -1.245937    0.905430
     34          1           0        1.971227    1.632199   -0.184089
     35          1           0        2.448769    1.147683    1.452264
     36          1           0        3.289578    0.484151    0.046324
     37          6           0       -3.065154    0.283646    1.509177
     38          6           0       -4.233700    0.595278    2.404850
     39          6           0       -5.498491    0.693121    1.992218
     40          1           0       -2.550507   -0.604457    1.899849
     41          1           0       -3.435758    0.029316    0.511991
     42          1           0       -4.019623    0.718236    3.466235
     43          1           0       -6.310108    0.897679    2.684408
     44          1           0       -5.768122    0.564750    0.946484
 ---------------------------------------------------------------------
                    Distance matrix (angstroms):
                    1          2          3          4          5
     1  C    0.000000
     2  C    1.535642   0.000000
     3  C    2.555171   1.556692   0.000000
     4  C    2.920223   2.474612   1.537286   0.000000
     5  C    2.490936   2.902532   2.575762   1.517340   0.000000
     6  H    1.096955   2.152454   2.882277   3.465584   3.003789
     7  H    2.151813   1.097131   2.120908   2.606283   3.122287
     8  H    3.340806   2.730218   2.156243   1.097003   2.097859
     9  H    3.900697   3.460194   2.201930   1.090430   2.116180
    10  O    1.464309   2.516357   2.895391   2.464130   1.348215
    11  O    3.572038   4.115330   3.672949   2.399124   1.213369
    12  C    1.533855   2.597179   3.944741   4.219875   3.624973
    13  C    2.590412   3.161013   4.483389   4.482539   3.994369
    14  C    2.522300   1.535731   2.587419   3.881521   4.382699
    15  O    3.776432   2.408986   1.419938   2.452764   3.812183
    16  Si   5.177890   3.803696   2.900869   3.275961   4.769831
    17  C    6.167101   5.053471   3.772347   3.562324   4.998287
    18  C    5.395545   4.122160   3.791757   3.797289   5.051492
    19  C    6.441138   4.944620   4.215603   4.989519   6.464735
    20  H    6.488848   5.214571   4.818623   4.753589   6.021016
    21  H    5.089441   4.048772   3.761383   3.362014   4.433877
    22  H    5.203625   3.892408   3.955223   4.222498   5.353227
    23  H    7.394285   5.902020   5.164652   5.754830   7.252220
    24  H    6.319891   4.787547   4.388835   5.353532   6.743139
    25  H    6.702296   5.263900   4.369846   5.256830   6.716424
    26  H    7.174213   6.005490   4.807760   4.588187   6.004775
    27  H    6.361996   5.309394   3.868383   3.815003   5.200559
    28  H    5.948901   5.037739   3.781094   3.126157   4.409024
    29  H    3.465647   2.164774   2.726388   4.128871   4.949277
    30  H    2.850800   2.181266   3.520705   4.638538   4.978715
    31  H    2.726826   2.194936   2.983063   4.340506   4.689477
    32  H    2.144894   2.870353   4.339455   4.932315   4.532157
    33  H    2.127349   3.499077   4.672455   4.774949   3.862553
    34  H    2.932794   2.940697   4.289565   4.450095   4.331916
    35  H    2.825010   3.446899   4.487701   4.112297   3.467929
    36  H    3.519950   4.184097   5.557837   5.562410   4.977862
    37  C    3.096869   2.582489   1.555088   2.558318   3.197416
    38  C    4.478781   3.949705   2.582702   3.095021   3.877788
    39  C    5.609653   4.924126   3.604852   4.302109   5.200590
    40  H    2.704753   2.784870   2.172733   2.802363   2.875563
    41  H    3.444304   2.782389   2.157380   3.483437   4.144520
    42  H    4.748680   4.406845   2.990368   2.936241   3.558680
    43  H    6.571888   5.917078   4.515561   4.987739   5.877383
    44  H    5.776653   4.975998   3.860074   4.865565   5.805359
                    6          7          8          9         10
     6  H    0.000000
     7  H    3.048461   0.000000
     8  H    4.122708   2.393583   0.000000
     9  H    4.286157   3.639745   1.757697   0.000000
    10  O    2.043619   2.848509   2.921691   3.305711   0.000000
    11  O    3.983742   4.270740   2.847219   2.542751   2.206438
    12  C    2.140908   2.770359   4.368317   5.257549   2.383846
    13  C    3.503126   2.752056   4.250512   5.548675   3.012433
    14  C    2.696348   2.143071   4.135063   4.754960   3.844146
    15  O    4.137821   2.603720   2.641840   2.811731   4.234763
    16  Si   5.700704   3.577414   3.003879   3.344818   5.427799
    17  C    6.619035   4.929152   3.418846   3.043357   6.016449
    18  C    6.198786   3.397625   2.998950   4.142049   5.581184
    19  C    6.814919   4.828548   4.828556   5.046137   6.971555
    20  H    7.292496   4.480043   3.930402   4.951998   6.625429
    21  H    5.983764   3.235789   2.374937   3.739343   5.030800
    22  H    6.030848   3.069357   3.459580   4.780203   5.625205
    23  H    7.831899   5.664814   5.466328   5.726008   7.841826
    24  H    6.696905   4.640212   5.163346   5.609631   7.049289
    25  H    6.911160   5.363381   5.310617   5.189279   7.245003
    26  H    7.669091   5.775892   4.304559   4.077409   7.030405
    27  H    6.640556   5.403659   3.973553   3.134448   6.228824
    28  H    6.468384   4.857408   2.909837   2.487531   5.552967
    29  H    3.664655   2.536873   4.293517   4.873484   4.650968
    30  H    3.147079   2.422367   4.727939   5.601568   4.242962
    31  H    2.440198   3.068296   4.818156   5.118475   4.072222
    32  H    2.419779   3.143832   5.108463   5.969006   3.327176
    33  H    2.407388   3.763951   5.024589   5.735764   2.521901
    34  H    3.898250   2.264755   4.060656   5.525169   3.559655
    35  H    3.814503   2.952655   3.788925   5.108513   2.690066
    36  H    4.298380   3.788292   5.309115   6.619786   3.925299
    37  C    2.839035   3.482517   3.493537   2.786414   3.443913
    38  C    4.228986   4.697282   4.040819   2.746830   4.505622
    39  C    5.282148   5.668743   5.146479   3.892976   5.791425
    40  H    2.198383   3.762691   3.822759   3.108211   2.903875
    41  H    3.040324   3.750065   4.292311   3.797836   4.154364
    42  H    4.587929   5.045867   3.896816   2.290293   4.427272
    43  H    6.258263   6.604819   5.801141   4.377725   6.607215
    44  H    5.390318   5.757949   5.649620   4.643084   6.214398
                   11         12         13         14         15
    11  O    0.000000
    12  C    4.543077   0.000000
    13  C    4.813472   1.531638   0.000000
    14  C    5.591667   3.144071   3.854128   0.000000
    15  O    4.828094   4.992700   5.318462   2.907310   0.000000
    16  Si   5.597768   6.261509   6.250381   4.325095   1.679463
    17  C    5.472849   7.410895   7.433496   5.846815   2.963039
    18  C    5.834721   6.108055   5.637544   4.765585   2.954668
    19  C    7.364827   7.453859   7.527647   4.901915   2.795959
    20  H    6.708284   7.169689   6.610938   5.788792   3.871518
    21  H    5.093057   5.752095   5.158896   4.989151   3.304277
    22  H    6.262291   5.708410   5.169914   4.288973   3.163366
    23  H    8.075812   8.365183   8.306439   5.920121   3.759805
    24  H    7.749101   7.172363   7.229872   4.461815   3.026593
    25  H    7.594358   7.835114   8.100978   5.131176   3.021257
    26  H    6.423714   8.354207   8.261953   6.724957   3.872073
    27  H    5.644264   7.725756   7.949888   6.013856   3.139999
    28  H    4.702205   7.168406   7.119231   6.075300   3.339517
    29  H    6.150919   4.165952   4.681698   1.091614   2.480074
    30  H    6.172013   2.900750   3.433911   1.093177   3.814384
    31  H    5.851811   3.422641   4.466799   1.095117   3.466868
    32  H    5.524169   1.095385   2.171345   2.837604   5.235535
    33  H    4.565790   1.095589   2.159655   4.085969   5.856289
    34  H    5.265424   2.193578   1.094450   3.465924   4.852574
    35  H    4.099133   2.177811   1.094077   4.477114   5.383955
    36  H    5.697152   2.167858   1.093950   4.679736   6.372324
    37  C    4.112866   4.590224   5.507241   3.124669   2.390232
    38  C    4.484866   6.004198   6.839665   4.526354   2.965118
    39  C    5.799223   7.102038   7.965279   5.190380   3.560860
    40  H    3.696654   4.175354   5.267617   3.439367   3.335113
    41  H    5.133480   4.789768   5.797517   2.735851   2.603936
    42  H    3.891487   6.275768   7.022544   5.255997   3.519033
    43  H    6.311660   8.085666   8.912263   6.256557   4.401310
    44  H    6.547385   7.187870   8.098883   4.912288   3.636004
                   16         17         18         19         20
    16  Si   0.000000
    17  C    1.886978   0.000000
    18  C    1.889398   3.089801   0.000000
    19  C    1.880904   3.086342   3.081596   0.000000
    20  H    2.485623   3.310715   1.096555   3.262423   0.000000
    21  H    2.526259   3.306659   1.095105   4.051900   1.762840
    22  H    2.504321   4.047085   1.095267   3.307857   1.768211
    23  H    2.491540   3.296754   3.301932   1.095754   3.106251
    24  H    2.494854   4.042715   3.286533   1.095002   3.550444
    25  H    2.494261   3.304515   4.039147   1.094788   4.275300
    26  H    2.482669   1.096363   3.346389   3.231669   3.197432
    27  H    2.496156   1.094469   4.041124   3.346136   4.328596
    28  H    2.520844   1.094594   3.271198   4.050698   3.562816
    29  H    3.712020   5.366978   4.298666   3.964455   5.233036
    30  H    5.053927   6.680125   5.150225   5.572635   6.141412
    31  H    5.031590   6.404248   5.721808   5.500052   6.742303
    32  H    6.570934   7.895881   6.484666   7.523151   7.537836
    33  H    7.165150   8.164377   7.057826   8.427044   8.118415
    34  H    5.630464   6.982792   4.870047   6.780692   5.806556
    35  H    6.177222   7.131414   5.487877   7.652910   6.425060
    36  H    7.279510   8.498355   6.554497   8.492914   7.478919
    37  C    3.923045   4.466014   5.191164   4.887454   6.153692
    38  C    4.064747   4.001532   5.622867   4.945193   6.432907
    39  C    4.444450   4.309547   6.215553   4.845740   6.907948
    40  H    4.874278   5.337991   5.954408   5.951627   6.962332
    41  H    4.197297   5.012687   5.523120   4.767914   6.470731
    42  H    4.392144   3.932922   5.816863   5.526822   6.586132
    43  H    5.009836   4.491567   6.817786   5.351702   7.402044
    44  H    4.593895   4.806352   6.382004   4.629080   7.073252
                   21         22         23         24         25
    21  H    0.000000
    22  H    1.770972   0.000000
    23  H    4.305595   3.626481   0.000000
    24  H    4.312161   3.138887   1.770117   0.000000
    25  H    4.922388   4.309065   1.770422   1.770004   0.000000
    26  H    3.664986   4.345440   3.064629   4.246875   3.520087
    27  H    4.293690   4.905802   3.667263   4.343056   3.195803
    28  H    3.113633   4.286093   4.282063   4.918893   4.337478
    29  H    4.749439   3.808614   4.982327   3.436341   4.193627
    30  H    5.343302   4.481068   6.523901   4.985604   5.921510
    31  H    5.942429   5.321717   6.568184   5.100319   5.528249
    32  H    6.292110   5.947570   8.468743   7.103490   7.868120
    33  H    6.614929   6.727020   9.349994   8.196155   8.755902
    34  H    4.514490   4.268961   7.510352   6.405698   7.436441
    35  H    4.822348   5.200254   8.372939   7.497566   8.248449
    36  H    6.073597   6.006609   9.251784   8.124152   9.091708
    37  C    5.238265   5.385069   5.896205   5.110027   4.687513
    38  C    5.696901   6.055049   5.835720   5.439876   4.532835
    39  C    6.478582   6.647032   5.686253   5.381177   4.164637
    40  H    5.848360   6.109982   6.957152   6.131183   5.784094
    41  H    5.746296   5.559225   5.837360   4.818571   4.469606
    42  H    5.719425   6.383462   6.315642   6.134389   5.199033
    43  H    7.067095   7.364849   6.051870   6.022613   4.593053
    44  H    6.788388   6.670536   5.524920   5.003371   3.845215
                   26         27         28         29         30
    26  H    0.000000
    27  H    1.771036   0.000000
    28  H    1.765643   1.770948   0.000000
    29  H    6.151054   5.533548   5.773755   0.000000
    30  H    7.502087   6.952871   6.875235   1.768059   0.000000
    31  H    7.334810   6.398233   6.649960   1.771642   1.765937
    32  H    8.823479   8.171245   7.788437   3.877124   2.339062
    33  H    9.141808   8.424043   7.833846   5.143748   3.890004
    34  H    7.734303   7.572958   6.778394   4.108608   2.957743
    35  H    7.945596   7.690428   6.670574   5.244181   4.257520
    36  H    9.300750   9.036024   8.175484   5.523647   4.077389
    37  C    5.530354   4.167212   4.561453   3.305311   4.174605
    38  C    5.021073   3.383102   4.133698   4.495006   5.601856
    39  C    5.176896   3.467442   4.702187   4.945056   6.282639
    40  H    6.426278   5.059161   5.263844   3.916563   4.369840
    41  H    6.010884   4.680928   5.299360   2.791802   3.800955
    42  H    4.947401   3.327977   3.809791   5.312647   6.290620
    43  H    5.236629   3.493786   4.872368   5.976947   7.349296
    44  H    5.612019   4.033246   5.358785   4.550287   5.977073
                   31         32         33         34         35
    31  H    0.000000
    32  H    2.990738   0.000000
    33  H    4.166424   1.752258   0.000000
    34  H    4.281449   2.519200   3.083786   0.000000
    35  H    5.110865   3.083266   2.546405   1.772133   0.000000
    36  H    5.225981   2.530717   2.455440   1.763279   1.767457
    37  C    2.954210   4.856406   5.110631   5.481868   5.581500
    38  C    4.362919   6.343043   6.459650   6.802862   6.772589
    39  C    4.936871   7.308696   7.604320   7.836764   7.978541
    40  H    3.102169   4.511464   4.483196   5.458159   5.316304
    41  H    2.333553   4.807145   5.377678   5.682363   6.063210
    42  H    5.174405   6.775958   6.631605   7.074637   6.788269
    43  H    6.022837   8.345826   8.550301   8.794789   8.848650
    44  H    4.571471   7.232542   7.756237   7.893996   8.253055
                   36         37         38         39         40
    36  H    0.000000
    37  C    6.524014   0.000000
    38  C    7.885094   1.504940   0.000000
    39  C    9.003351   2.514385   1.333992   0.000000
    40  H    6.223119   1.098278   2.127800   3.222244   0.000000
    41  H    6.756764   1.093806   2.130714   2.624229   1.763941
    42  H    8.073104   2.220351   1.089718   2.088159   2.522179
    43  H    9.964159   3.505415   2.116853   1.086137   4.123900
    44  H    9.102676   2.775190   2.117124   1.087538   3.553731
                   41         42         43         44
    41  H    0.000000
    42  H    3.089186   0.000000
    43  H    3.706122   2.426886   0.000000
    44  H    2.432159   3.070823   1.850668   0.000000
 Stoichiometry    C14H26O3Si
 Framework group  C1[X(C14H26O3Si)]
 Deg. of freedom   126
 Full point group                 C1      NOp   1
 Largest Abelian subgroup         C1      NOp   1
 Largest concise Abelian subgroup C1      NOp   1
                         Standard orientation:                         
 ---------------------------------------------------------------------
 Center     Atomic      Atomic             Coordinates (Angstroms)
 Number     Number       Type             X           Y           Z
 ---------------------------------------------------------------------
      1          6           0       -2.537355    0.116743   -0.609594
      2          6           0       -1.161507   -0.527840   -0.832643
      3          6           0       -0.013687    0.387688   -0.315336
      4          6           0       -0.284453    0.611809    1.181228
      5          6           0       -1.682089    1.100540    1.513005
      6          1           0       -2.656522    0.940735   -1.323840
      7          1           0       -1.097215   -1.432834   -0.215757
      8          1           0       -0.174155   -0.345079    1.706219
      9          1           0        0.420245    1.307639    1.637583
     10          8           0       -2.699819    0.733033    0.708736
     11          8           0       -1.927539    1.749977    2.508119
     12          6           0       -3.741459   -0.819818   -0.769899
     13          6           0       -3.755841   -2.034856    0.162513
     14          6           0       -0.998272   -0.947645   -2.300836
     15          8           0        1.217055   -0.284291   -0.538809
     16         14           0        2.413799   -1.052119    0.354970
     17          6           0        3.214218    0.101297    1.615781
     18          6           0        1.752297   -2.592726    1.226044
     19          6           0        3.673960   -1.554606   -0.947834
     20          1           0        2.581333   -3.147705    1.681159
     21          1           0        1.043336   -2.358780    2.027231
     22          1           0        1.252854   -3.264934    0.520138
     23          1           0        4.524888   -2.070894   -0.489525
     24          1           0        3.230805   -2.230424   -1.686694
     25          1           0        4.060015   -0.680180   -1.481594
     26          1           0        4.118620   -0.365104    2.023874
     27          1           0        3.505454    1.047495    1.149140
     28          1           0        2.554568    0.329047    2.459066
     29          1           0        0.029932   -1.266184   -2.482361
     30          1           0       -1.659784   -1.782780   -2.545760
     31          1           0       -1.229819   -0.128566   -2.989877
     32          1           0       -3.787468   -1.141085   -1.816101
     33          1           0       -4.638553   -0.215506   -0.595705
     34          1           0       -2.943554   -2.734732   -0.056992
     35          1           0       -3.666828   -1.726946    1.208588
     36          1           0       -4.696691   -2.582506    0.054767
     37          6           0        0.060019    1.732593   -1.092573
     38          6           0        1.136556    2.678252   -0.632525
     39          6           0        2.190586    3.039509   -1.366045
     40          1           0       -0.910730    2.239910   -1.012011
     41          1           0        0.215583    1.499526   -2.149876
     42          1           0        1.017541    3.112178    0.359961
     43          1           0        2.928767    3.744747   -0.995342
     44          1           0        2.348791    2.647244   -2.367962
 ---------------------------------------------------------------------
 Rotational constants (GHZ):      0.4829462      0.2720760      0.2442790
 Standard basis: 6-311G(d) (5D, 7F)
 There are   428 symmetry adapted cartesian basis functions of A   symmetry.
 There are   410 symmetry adapted basis functions of A   symmetry.
   410 basis functions,   720 primitive gaussians,   428 cartesian basis functions
    74 alpha electrons       74 beta electrons
       nuclear repulsion energy      1630.4297576700 Hartrees.
 NAtoms=   44 NActive=   44 NUniq=   44 SFac= 1.00D+00 NAtFMM=   60 NAOKFM=F Big=F
 Integral buffers will be    131072 words long.
 Raffenetti 2 integral format.
 Two-electron integral symmetry is turned on.
 ------------------------------------------------------------------------------
 Polarizable Continuum Model (PCM)
 =================================
 Model                : PCM (using non-symmetric T matrix).
 Atomic radii         : UFF (Universal Force Field).
 Polarization charges : Total charges.
 Charge compensation  : None.
 Solution method      : On-the-fly selection.
 Cavity type          : Scaled VdW (van der Waals Surface) (Alpha=1.100).
 Cavity algorithm     : GePol (No added spheres)
                        Default sphere list used, NSphG=   44.
                        Lebedev-Laikov grids with approx.  5.0 points / Ang**2.
                        Smoothing algorithm: Karplus/York (Gamma=1.0000).
                        Polarization charges: spherical gaussians, with
                                              point-specific exponents (IZeta= 3).
                        Self-potential: point-specific (ISelfS= 7).
                        Self-field    : sphere-specific E.n sum rule (ISelfD= 2).
 Solvent              : Chloroform, Eps=   4.711300 Eps(inf)=   2.090627
 ------------------------------------------------------------------------------
 One-electron integrals computed using PRISM.
 NBasis=   410 RedAO= T EigKep=  1.03D-03  NBF=   410
 NBsUse=   410 1.00D-06 EigRej= -1.00D+00 NBFU=   410
 ExpMin= 6.54D-02 ExpMax= 6.94D+04 ExpMxC= 2.33D+03 IAcc=2 IRadAn=         4 AccDes= 0.00D+00
 Harris functional with IExCor=  908 and IRadAn=       4 diagonalized for initial guess.
 HarFok:  IExCor=  908 AccDes= 0.00D+00 IRadAn=         4 IDoV= 1 UseB2=F ITyADJ=14
 ICtDFT=  3500011 ScaDFX=  1.000000  1.000000  1.000000  1.000000
 FoFCou: FMM=F IPFlag=           0 FMFlag=      100000 FMFlg1=           0
         NFxFlg=           0 DoJE=T BraDBF=F KetDBF=T FulRan=T
         wScrn=  0.000000 ICntrl=     500 IOpCl=  0 I1Cent=   200000004 NGrid=           0
         NMat0=    1 NMatS0=      1 NMatT0=    0 NMatD0=    1 NMtDS0=    0 NMtDT0=    0
 Petite list used in FoFCou.
 Requested convergence on RMS density matrix=1.00D-08 within 128 cycles.
 Requested convergence on MAX density matrix=1.00D-06.
 Requested convergence on             energy=1.00D-06.
 No special actions if energy rises.
 Inv3:  Mode=1 IEnd=    25983747.
 Iteration    1 A*A^-1 deviation from unit magnitude is 7.99D-15 for    411.
 Iteration    1 A*A^-1 deviation from orthogonality  is 9.10D-15 for   2534   1399.
 Iteration    1 A^-1*A deviation from unit magnitude is 8.44D-15 for   1807.
 Iteration    1 A^-1*A deviation from orthogonality  is 1.89D-11 for   2902   2539.
 Error on total polarization charges =  0.01118
 SCF Done:  E(RmPW1PW91) =  -1064.38254879     A.U. after   12 cycles
            NFock= 12  Conv=0.89D-08     -V/T= 2.0036
 DoSCS=F DFT=T ScalE2(SS,OS)=  1.000000  1.000000
 Range of M.O.s used for correlation:     1   410
 NBasis=   410 NAE=    74 NBE=    74 NFC=     0 NFV=     0
 NROrb=    410 NOA=    74 NOB=    74 NVA=   336 NVB=   336
 NEqPCM:  Using equilibrium solvation (IEInf=0, Eps=   4.7113, EpsInf=   2.0906)
          Differentiating once with respect to magnetic field using GIAOs.
          Electric field/nuclear overlap derivatives assumed to be zero.
 FoFJK:  IHMeth= 1 ICntrl=    6127 DoSepK=F KAlg= 0 I1Cent=   0 FoldK=F
 IRaf=         1 NMat=   1 IRICut=       1 DoRegI=T DoRafI=F ISym2E= 0.
          There are     3 degrees of freedom in the 1st order CPHF.  IDoFFX=0 NUNeed=     3.
      3 vectors produced by pass  0 Test12= 8.29D-13 3.33D-08 XBig12= 3.27D+01 1.38D+00.
 AX will form     3 AO Fock derivatives at one time.
      3 vectors produced by pass  1 Test12= 8.29D-13 3.33D-08 XBig12= 8.47D-02 1.01D-01.
      3 vectors produced by pass  2 Test12= 8.29D-13 3.33D-08 XBig12= 6.16D-04 8.27D-03.
      3 vectors produced by pass  3 Test12= 8.29D-13 3.33D-08 XBig12= 2.23D-06 3.12D-04.
      3 vectors produced by pass  4 Test12= 8.29D-13 3.33D-08 XBig12= 8.92D-09 1.89D-05.
      3 vectors produced by pass  5 Test12= 8.29D-13 3.33D-08 XBig12= 3.55D-11 1.16D-06.
      2 vectors produced by pass  6 Test12= 8.29D-13 3.33D-08 XBig12= 1.30D-13 5.49D-08.
 InvSVY:  IOpt=1 It=  1 EMax= 8.88D-16
 Solved reduced A of dimension    20 with     3 vectors.
 Calculating GIAO nuclear magnetic shielding tensors.
 SCF GIAO Magnetic shielding tensor (ppm):
      1  C    Isotropic =   101.9453   Anisotropy =    60.0981
   XX=    92.5690   YX=    -3.5157   ZX=   -13.6289
   XY=     0.2837   YY=    82.3163   ZY=    22.8160
   XZ=    -5.2815   YZ=    23.5465   ZZ=   130.9507
   Eigenvalues:    72.8176    91.0076   142.0107
      2  C    Isotropic =   143.5658   Anisotropy =    21.0164
   XX=   150.3870   YX=     8.5755   ZX=     3.2717
   XY=     9.9057   YY=   141.0581   ZY=    -2.9781
   XZ=     7.4521   YZ=     5.5051   ZZ=   139.2524
   Eigenvalues:   134.5067   138.6140   157.5767
      3  C    Isotropic =   108.1334   Anisotropy =    50.5255
   XX=   131.2462   YX=   -20.3780   ZX=    -2.8576
   XY=   -17.7878   YY=   107.2917   ZY=     1.1498
   XZ=     2.5505   YZ=     2.4214   ZZ=    85.8623
   Eigenvalues:    85.6449    96.9383   141.8171
      4  C    Isotropic =   143.3446   Anisotropy =    33.1478
   XX=   150.3200   YX=   -11.0042   ZX=   -11.3477
   XY=   -10.2853   YY=   131.6327   ZY=    11.9348
   XZ=   -10.3296   YZ=     4.5873   ZZ=   148.0810
   Eigenvalues:   126.2205   138.3701   165.4431
      5  C    Isotropic =    12.8268   Anisotropy =    88.5174
   XX=   -62.3654   YX=    -1.3099   ZX=   -37.2662
   XY=    -8.7771   YY=    64.1314   ZY=   -14.7274
   XZ=   -48.9026   YZ=   -13.8142   ZZ=    36.7145
   Eigenvalues:   -79.1442    45.7862    71.8384
      6  H    Isotropic =    27.8702   Anisotropy =     2.1990
   XX=    28.2119   YX=     0.2067   ZX=     0.7983
   XY=    -0.0453   YY=    27.6050   ZY=    -0.8860
   XZ=     0.7822   YZ=    -1.8374   ZZ=    27.7938
   Eigenvalues:    26.1524    28.1220    29.3362
      7  H    Isotropic =    30.0621   Anisotropy =     4.1792
   XX=    31.6274   YX=     1.5021   ZX=     0.8388
   XY=     1.7479   YY=    30.4233   ZY=    -2.5931
   XZ=     1.0952   YZ=    -2.0148   ZZ=    28.1356
   Eigenvalues:    26.1775    31.1606    32.8482
      8  H    Isotropic =    29.6863   Anisotropy =     4.8540
   XX=    29.9947   YX=    -2.7289   ZX=     0.3803
   XY=    -2.7012   YY=    28.9243   ZY=    -1.2583
   XZ=     0.3176   YZ=    -2.1227   ZZ=    30.1400
   Eigenvalues:    26.3542    29.7824    32.9223
      9  H    Isotropic =    29.2052   Anisotropy =     4.1683
   XX=    29.9020   YX=     1.0632   ZX=     1.0703
   XY=     0.7008   YY=    27.8346   ZY=     2.2957
   XZ=    -0.4077   YZ=     2.9911   ZZ=    29.8789
   Eigenvalues:    25.9468    29.6846    31.9840
     10  O    Isotropic =    97.5746   Anisotropy =   165.8711
   XX=   175.6333   YX=    40.2339   ZX=    59.1859
   XY=    49.7749   YY=   129.2448   ZY=  -138.4577
   XZ=    66.6940   YZ=  -116.6902   ZZ=   -12.1542
   Eigenvalues:  -108.2454   192.8138   208.1553
     11  O    Isotropic =  -108.4611   Anisotropy =   560.5765
   XX=  -217.8237   YX=    14.5340   ZX=  -101.9571
   XY=    35.5090   YY=    84.1145   ZY=  -288.0947
   XZ=   -83.3627   YZ=  -264.3768   ZZ=  -191.6743
   Eigenvalues:  -388.8851  -201.7549   265.2565
     12  C    Isotropic =   160.4061   Anisotropy =    20.9901
   XX=   165.6167   YX=     9.5862   ZX=     2.9226
   XY=    12.3652   YY=   160.5409   ZY=     3.9311
   XZ=     0.2814   YZ=    -4.6420   ZZ=   155.0606
   Eigenvalues:   151.3676   155.4512   174.3994
     13  C    Isotropic =   181.3497   Anisotropy =    11.4370
   XX=   180.6362   YX=     1.3647   ZX=     0.6393
   XY=     1.5487   YY=   183.1960   ZY=    -6.8841
   XZ=     1.1291   YZ=    -7.2607   ZZ=   180.2170
   Eigenvalues:   174.0847   180.9901   188.9744
     14  C    Isotropic =   177.4372   Anisotropy =    18.2189
   XX=   171.0922   YX=     0.2881   ZX=    -1.5028
   XY=    -1.6736   YY=   172.8198   ZY=     3.1276
   XZ=    -5.4906   YZ=     2.5234   ZZ=   188.3997
   Eigenvalues:   170.4024   172.3262   189.5831
     15  O    Isotropic =   246.8876   Anisotropy =    24.7027
   XX=   221.1584   YX=     2.2123   ZX=    -8.2522
   XY=   -16.2016   YY=   257.4857   ZY=     1.0565
   XZ=     1.0500   YZ=    -6.6561   ZZ=   262.0187
   Eigenvalues:   219.4712   257.8355   263.3561
     16  Si   Isotropic =   334.2846   Anisotropy =    40.7119
   XX=   346.0283   YX=   -18.5657   ZX=    19.2877
   XY=   -17.5532   YY=   325.7308   ZY=   -10.1568
   XZ=     2.3318   YZ=    -0.8217   ZZ=   331.0945
   Eigenvalues:   315.1220   326.3058   361.4258
     17  C    Isotropic =   185.1003   Anisotropy =    11.8055
   XX=   184.6601   YX=     0.4848   ZX=     6.7675
   XY=    -0.9860   YY=   186.8772   ZY=     4.2508
   XZ=     6.2789   YZ=     6.1170   ZZ=   183.7635
   Eigenvalues:   176.1055   186.2248   192.9706
     18  C    Isotropic =   185.4984   Anisotropy =    11.7053
   XX=   185.8363   YX=     1.7576   ZX=     0.3446
   XY=     3.6949   YY=   189.1880   ZY=    -5.6753
   XZ=     0.1903   YZ=    -6.6632   ZZ=   181.4709
   Eigenvalues:   177.7409   185.4523   193.3019
     19  C    Isotropic =   187.0563   Anisotropy =    12.1744
   XX=   189.3208   YX=    -5.7693   ZX=    -3.7479
   XY=    -6.1773   YY=   180.3813   ZY=     0.0169
   XZ=    -3.3735   YZ=     0.0298   ZZ=   191.4668
   Eigenvalues:   177.2084   188.7880   195.1725
     20  H    Isotropic =    32.2197   Anisotropy =    10.4945
   XX=    32.9395   YX=    -3.9379   ZX=     2.8447
   XY=    -3.6003   YY=    33.1683   ZY=    -3.5683
   XZ=     2.7479   YZ=    -3.6707   ZZ=    30.5514
   Eigenvalues:    28.0038    29.4394    39.2161
     21  H    Isotropic =    32.0425   Anisotropy =     6.5067
   XX=    32.5176   YX=    -1.5998   ZX=    -3.3834
   XY=    -0.6444   YY=    30.4103   ZY=    -1.3466
   XZ=    -3.6268   YZ=    -0.7372   ZZ=    33.1995
   Eigenvalues:    28.2511    31.4960    36.3803
     22  H    Isotropic =    31.9944   Anisotropy =     7.5375
   XX=    30.9855   YX=     2.0311   ZX=     2.6770
   XY=     2.4605   YY=    34.5316   ZY=     2.5482
   XZ=     2.1425   YZ=     1.7360   ZZ=    30.4661
   Eigenvalues:    28.3000    30.6638    37.0194
     23  H    Isotropic =    32.4291   Anisotropy =    10.3984
   XX=    36.5235   YX=    -4.5208   ZX=     1.2233
   XY=    -4.6069   YY=    30.9054   ZY=    -0.8024
   XZ=     1.5392   YZ=    -1.0351   ZZ=    29.8585
   Eigenvalues:    28.3423    29.5837    39.3614
     24  H    Isotropic =    31.9799   Anisotropy =     8.2095
   XX=    30.7625   YX=     0.2213   ZX=     0.2544
   XY=     0.4555   YY=    31.6399   ZY=     4.6282
   XZ=     1.0194   YZ=     4.7611   ZZ=    33.5372
   Eigenvalues:    27.7922    30.6946    37.4529
     25  H    Isotropic =    31.9455   Anisotropy =     8.2211
   XX=    31.7323   YX=     1.7931   ZX=    -3.5447
   XY=     1.5118   YY=    32.7839   ZY=    -2.6247
   XZ=    -3.3281   YZ=    -3.5743   ZZ=    31.3204
   Eigenvalues:    27.7261    30.6842    37.4263
     26  H    Isotropic =    32.2903   Anisotropy =    10.5196
   XX=    36.0857   YX=    -2.0815   ZX=     4.5646
   XY=    -2.4860   YY=    29.6148   ZY=    -0.7243
   XZ=     4.4881   YZ=    -0.3992   ZZ=    31.1703
   Eigenvalues:    28.0488    29.5187    39.3034
     27  H    Isotropic =    31.8090   Anisotropy =     7.8321
   XX=    30.5943   YX=     2.8025   ZX=     0.8953
   XY=     2.3151   YY=    35.4769   ZY=    -2.9650
   XZ=     0.9040   YZ=    -1.7744   ZZ=    29.3559
   Eigenvalues:    27.4669    30.9298    37.0304
     28  H    Isotropic =    31.9945   Anisotropy =     6.5448
   XX=    32.3172   YX=    -0.6678   ZX=    -0.9852
   XY=    -1.4430   YY=    28.9991   ZY=     2.3052
   XZ=    -2.0528   YZ=     2.5329   ZZ=    34.6672
   Eigenvalues:    28.0508    31.5750    36.3577
     29  H    Isotropic =    30.4816   Anisotropy =     7.4935
   XX=    33.9387   YX=    -2.2750   ZX=    -0.2799
   XY=    -2.3703   YY=    26.8897   ZY=     3.6866
   XZ=    -1.2981   YZ=     3.4486   ZZ=    30.6165
   Eigenvalues:    24.4535    31.5141    35.4773
     30  H    Isotropic =    31.3094   Anisotropy =     9.5701
   XX=    30.7291   YX=     3.9053   ZX=     0.5915
   XY=     3.9581   YY=    32.0644   ZY=     4.2853
   XZ=     0.6620   YZ=     4.4133   ZZ=    31.1346
   Eigenvalues:    25.9497    30.2889    37.6894
     31  H    Isotropic =    31.5637   Anisotropy =     8.8161
   XX=    28.3864   YX=     0.3956   ZX=     1.7088
   XY=     0.0882   YY=    30.3066   ZY=    -2.6889
   XZ=     1.4132   YZ=    -3.1801   ZZ=    35.9979
   Eigenvalues:    27.6935    29.5564    37.4410
     32  H    Isotropic =    30.3962   Anisotropy =     7.3379
   XX=    30.5436   YX=     2.0970   ZX=     1.8110
   XY=     2.0597   YY=    26.6697   ZY=     1.2513
   XZ=     1.9651   YZ=     1.2559   ZZ=    33.9751
   Eigenvalues:    25.7443    30.1561    35.2881
     33  H    Isotropic =    30.1249   Anisotropy =     9.7399
   XX=    35.3290   YX=    -3.1377   ZX=     0.4287
   XY=    -2.4749   YY=    29.9311   ZY=    -1.1287
   XZ=     0.8829   YZ=    -1.0994   ZZ=    25.1146
   Eigenvalues:    24.8693    28.8873    36.6182
     34  H    Isotropic =    31.2092   Anisotropy =     6.6296
   XX=    32.6173   YX=    -1.6108   ZX=    -1.6550
   XY=    -2.0185   YY=    34.5336   ZY=    -0.7773
   XZ=    -1.0594   YZ=    -1.1203   ZZ=    26.4768
   Eigenvalues:    25.9828    32.0159    35.6290
     35  H    Isotropic =    31.1356   Anisotropy =     7.2069
   XX=    28.4080   YX=     2.4169   ZX=    -1.1010
   XY=     2.0878   YY=    29.3616   ZY=    -0.7336
   XZ=    -1.1007   YZ=    -0.4399   ZZ=    35.6372
   Eigenvalues:    26.5557    30.9109    35.9402
     36  H    Isotropic =    31.2086   Anisotropy =    12.0293
   XX=    34.7820   YX=     5.4751   ZX=    -0.0071
   XY=     5.8621   YY=    31.8097   ZY=    -1.1316
   XZ=    -0.3140   YZ=    -1.5122   ZZ=    27.0341
   Eigenvalues:    26.2240    28.1736    39.2281
     37  C    Isotropic =   146.5711   Anisotropy =    14.7880
   XX=   145.2019   YX=     6.4458   ZX=     8.4475
   XY=     3.2874   YY=   153.6296   ZY=    -9.0683
   XZ=     5.5183   YZ=    -2.5494   ZZ=   140.8818
   Eigenvalues:   132.9628   150.3208   156.4298
     38  C    Isotropic =    46.5903   Anisotropy =   177.8281
   XX=    74.1733   YX=   -63.2153   ZX=    -3.4871
   XY=   -61.8699   YY=    76.4440   ZY=   -91.7777
   XZ=    -0.7745   YZ=   -90.4877   ZZ=   -10.8465
   Eigenvalues:   -77.1517    51.7802   165.1423
     39  C    Isotropic =    63.5492   Anisotropy =   143.0688
   XX=    90.7389   YX=   -54.6634   ZX=   -15.6260
   XY=   -53.5268   YY=    81.3998   ZY=   -81.2629
   XZ=   -16.8667   YZ=   -82.0140   ZZ=    18.5088
   Eigenvalues:   -51.7825    83.5016   158.9284
     40  H    Isotropic =    30.0029   Anisotropy =     5.4752
   XX=    32.3772   YX=    -0.8395   ZX=    -0.0369
   XY=    -1.1689   YY=    32.3808   ZY=    -1.9935
   XZ=     0.8879   YZ=    -1.3270   ZZ=    25.2507
   Eigenvalues:    24.8778    31.4779    33.6530
     41  H    Isotropic =    29.8150   Anisotropy =     5.1284
   XX=    27.6463   YX=     3.5483   ZX=     1.3292
   XY=     3.2205   YY=    29.8954   ZY=    -1.8574
   XZ=    -0.2491   YZ=    -1.3638   ZZ=    31.9033
   Eigenvalues:    24.9261    31.2849    33.2339
     42  H    Isotropic =    25.8209   Anisotropy =     5.8643
   XX=    26.2291   YX=     1.3982   ZX=    -1.6357
   XY=     2.7827   YY=    28.1127   ZY=    -1.0649
   XZ=    -0.6737   YZ=    -0.5913   ZZ=    23.1210
   Eigenvalues:    22.7348    24.9975    29.7305
     43  H    Isotropic =    26.6534   Anisotropy =     6.4199
   XX=    28.1822   YX=     2.3165   ZX=    -0.7803
   XY=     1.6044   YY=    27.3670   ZY=    -1.6301
   XZ=    -2.5789   YZ=    -2.8826   ZZ=    24.4110
   Eigenvalues:    23.1154    25.9115    30.9333
     44  H    Isotropic =    26.6938   Anisotropy =     7.1387
   XX=    27.6640   YX=     0.5615   ZX=    -3.6041
   XY=     1.7315   YY=    26.5704   ZY=    -3.8650
   XZ=    -1.7156   YZ=    -2.7610   ZZ=    25.8469
   Eigenvalues:    22.5211    26.1074    31.4529
 End of Minotr F.D. properties file   721 does not exist.
 End of Minotr F.D. properties file   722 does not exist.
 End of Minotr F.D. properties file   788 does not exist.

 **********************************************************************

            Population analysis using the SCF density.

 **********************************************************************

 Orbital symmetries:
       Occupied  (A) (A) (A) (A) (A) (A) (A) (A) (A) (A) (A) (A)
                 (A) (A) (A) (A) (A) (A) (A) (A) (A) (A) (A) (A)
                 (A) (A) (A) (A) (A) (A) (A) (A) (A) (A) (A) (A)
                 (A) (A) (A) (A) (A) (A) (A) (A) (A) (A) (A) (A)
                 (A) (A) (A) (A) (A) (A) (A) (A) (A) (A) (A) (A)
                 (A) (A) (A) (A) (A) (A) (A) (A) (A) (A) (A) (A)
                 (A) (A)
       Virtual   (A) (A) (A) (A) (A) (A) (A) (A) (A) (A) (A) (A)
                 (A) (A) (A) (A) (A) (A) (A) (A) (A) (A) (A) (A)
                 (A) (A) (A) (A) (A) (A) (A) (A) (A) (A) (A) (A)
                 (A) (A) (A) (A) (A) (A) (A) (A) (A) (A) (A) (A)
                 (A) (A) (A) (A) (A) (A) (A) (A) (A) (A) (A) (A)
                 (A) (A) (A) (A) (A) (A) (A) (A) (A) (A) (A) (A)
                 (A) (A) (A) (A) (A) (A) (A) (A) (A) (A) (A) (A)
                 (A) (A) (A) (A) (A) (A) (A) (A) (A) (A) (A) (A)
                 (A) (A) (A) (A) (A) (A) (A) (A) (A) (A) (A) (A)
                 (A) (A) (A) (A) (A) (A) (A) (A) (A) (A) (A) (A)
                 (A) (A) (A) (A) (A) (A) (A) (A) (A) (A) (A) (A)
                 (A) (A) (A) (A) (A) (A) (A) (A) (A) (A) (A) (A)
                 (A) (A) (A) (A) (A) (A) (A) (A) (A) (A) (A) (A)
                 (A) (A) (A) (A) (A) (A) (A) (A) (A) (A) (A) (A)
                 (A) (A) (A) (A) (A) (A) (A) (A) (A) (A) (A) (A)
                 (A) (A) (A) (A) (A) (A) (A) (A) (A) (A) (A) (A)
                 (A) (A) (A) (A) (A) (A) (A) (A) (A) (A) (A) (A)
                 (A) (A) (A) (A) (A) (A) (A) (A) (A) (A) (A) (A)
                 (A) (A) (A) (A) (A) (A) (A) (A) (A) (A) (A) (A)
                 (A) (A) (A) (A) (A) (A) (A) (A) (A) (A) (A) (A)
                 (A) (A) (A) (A) (A) (A) (A) (A) (A) (A) (A) (A)
                 (A) (A) (A) (A) (A) (A) (A) (A) (A) (A) (A) (A)
                 (A) (A) (A) (A) (A) (A) (A) (A) (A) (A) (A) (A)
                 (A) (A) (A) (A) (A) (A) (A) (A) (A) (A) (A) (A)
                 (A) (A) (A) (A) (A) (A) (A) (A) (A) (A) (A) (A)
                 (A) (A) (A) (A) (A) (A) (A) (A) (A) (A) (A) (A)
                 (A) (A) (A) (A) (A) (A) (A) (A) (A) (A) (A) (A)
                 (A) (A) (A) (A) (A) (A) (A) (A) (A) (A) (A) (A)
 The electronic state is 1-A.
 Alpha  occ. eigenvalues --  -66.27346 -19.26003 -19.20488 -19.19739 -10.37132
 Alpha  occ. eigenvalues --  -10.31829 -10.30674 -10.25363 -10.25306 -10.24152
 Alpha  occ. eigenvalues --  -10.24100 -10.23916 -10.22764 -10.22708 -10.22365
 Alpha  occ. eigenvalues --  -10.20909 -10.20661 -10.20558  -5.33066  -3.66958
 Alpha  occ. eigenvalues --   -3.66657  -3.66646  -1.13290  -1.04923  -1.04015
 Alpha  occ. eigenvalues --   -0.85952  -0.83246  -0.80597  -0.77732  -0.73999
 Alpha  occ. eigenvalues --   -0.72682  -0.72122  -0.70236  -0.70044  -0.67045
 Alpha  occ. eigenvalues --   -0.62947  -0.62676  -0.58552  -0.55681  -0.54020
 Alpha  occ. eigenvalues --   -0.52665  -0.50347  -0.49449  -0.48317  -0.47369
 Alpha  occ. eigenvalues --   -0.47093  -0.45293  -0.44347  -0.44246  -0.43590
 Alpha  occ. eigenvalues --   -0.42971  -0.42396  -0.42205  -0.41591  -0.41211
 Alpha  occ. eigenvalues --   -0.40713  -0.40377  -0.39832  -0.39517  -0.39377
 Alpha  occ. eigenvalues --   -0.38426  -0.37550  -0.36879  -0.36654  -0.36118
 Alpha  occ. eigenvalues --   -0.35638  -0.34205  -0.33532  -0.32373  -0.31194
 Alpha  occ. eigenvalues --   -0.30540  -0.28486  -0.28427  -0.27295
 Alpha virt. eigenvalues --    0.00239   0.01044   0.03855   0.05550   0.05909
 Alpha virt. eigenvalues --    0.06252   0.07608   0.08325   0.08437   0.08927
 Alpha virt. eigenvalues --    0.09295   0.09666   0.10349   0.10802   0.11781
 Alpha virt. eigenvalues --    0.12008   0.12592   0.12967   0.13138   0.13355
 Alpha virt. eigenvalues --    0.14434   0.14574   0.14601   0.15115   0.15762
 Alpha virt. eigenvalues --    0.16157   0.16962   0.17673   0.17896   0.18256
 Alpha virt. eigenvalues --    0.18982   0.19365   0.20017   0.20151   0.20543
 Alpha virt. eigenvalues --    0.21970   0.22799   0.23297   0.24277   0.24785
 Alpha virt. eigenvalues --    0.24919   0.26406   0.26520   0.27059   0.28226
 Alpha virt. eigenvalues --    0.28577   0.29500   0.30064   0.31963   0.33014
 Alpha virt. eigenvalues --    0.33277   0.33925   0.34303   0.35216   0.35977
 Alpha virt. eigenvalues --    0.36993   0.37288   0.38992   0.40297   0.40578
 Alpha virt. eigenvalues --    0.41458   0.42293   0.43091   0.44217   0.44635
 Alpha virt. eigenvalues --    0.44804   0.45567   0.45997   0.46900   0.48050
 Alpha virt. eigenvalues --    0.49447   0.49726   0.50080   0.50826   0.51684
 Alpha virt. eigenvalues --    0.53665   0.54158   0.54888   0.55876   0.56374
 Alpha virt. eigenvalues --    0.56788   0.57504   0.58226   0.59041   0.59173
 Alpha virt. eigenvalues --    0.59637   0.59932   0.60414   0.60545   0.61148
 Alpha virt. eigenvalues --    0.61503   0.61903   0.62489   0.62706   0.63332
 Alpha virt. eigenvalues --    0.63598   0.64188   0.64473   0.65276   0.65684
 Alpha virt. eigenvalues --    0.65740   0.65933   0.67343   0.67534   0.68209
 Alpha virt. eigenvalues --    0.69011   0.69826   0.70184   0.70362   0.71300
 Alpha virt. eigenvalues --    0.72133   0.72573   0.72664   0.73685   0.74627
 Alpha virt. eigenvalues --    0.75372   0.77394   0.77754   0.78604   0.79288
 Alpha virt. eigenvalues --    0.82724   0.84379   0.85572   0.87478   0.87749
 Alpha virt. eigenvalues --    0.90175   0.91138   0.92401   0.92943   0.93905
 Alpha virt. eigenvalues --    0.94388   0.95682   0.96828   0.98407   0.99103
 Alpha virt. eigenvalues --    1.01621   1.03856   1.04449   1.09064   1.10410
 Alpha virt. eigenvalues --    1.13502   1.15738   1.16909   1.18768   1.19459
 Alpha virt. eigenvalues --    1.20743   1.23155   1.23602   1.26298   1.27588
 Alpha virt. eigenvalues --    1.28547   1.29819   1.31016   1.32552   1.33180
 Alpha virt. eigenvalues --    1.33718   1.37613   1.40076   1.41360   1.42000
 Alpha virt. eigenvalues --    1.42425   1.43884   1.45331   1.47176   1.48373
 Alpha virt. eigenvalues --    1.49869   1.51099   1.51935   1.52356   1.53826
 Alpha virt. eigenvalues --    1.55195   1.55706   1.56705   1.56953   1.58453
 Alpha virt. eigenvalues --    1.58606   1.59569   1.59907   1.60004   1.60885
 Alpha virt. eigenvalues --    1.61174   1.61936   1.62096   1.62658   1.62949
 Alpha virt. eigenvalues --    1.65021   1.65792   1.66448   1.67029   1.67600
 Alpha virt. eigenvalues --    1.68735   1.69614   1.72595   1.73634   1.75290
 Alpha virt. eigenvalues --    1.76001   1.76779   1.78490   1.79439   1.80759
 Alpha virt. eigenvalues --    1.81197   1.81946   1.82630   1.85825   1.89694
 Alpha virt. eigenvalues --    1.91562   1.92275   1.94108   1.95051   1.96903
 Alpha virt. eigenvalues --    1.98348   2.01760   2.04665   2.08464   2.13730
 Alpha virt. eigenvalues --    2.16016   2.16801   2.21372   2.22822   2.23207
 Alpha virt. eigenvalues --    2.27810   2.31563   2.35035   2.35827   2.39406
 Alpha virt. eigenvalues --    2.40793   2.42164   2.42821   2.43116   2.43904
 Alpha virt. eigenvalues --    2.44380   2.45046   2.46043   2.46571   2.47413
 Alpha virt. eigenvalues --    2.47915   2.48565   2.49216   2.50211   2.51515
 Alpha virt. eigenvalues --    2.52266   2.53832   2.56102   2.58807   2.60749
 Alpha virt. eigenvalues --    2.62321   2.63778   2.68141   2.73479   2.80084
 Alpha virt. eigenvalues --    2.81269   2.86962   2.88143   2.89464   2.90893
 Alpha virt. eigenvalues --    2.91796   2.93223   2.93524   2.96191   2.97438
 Alpha virt. eigenvalues --    2.98764   2.99749   3.01058   3.03872   3.08818
 Alpha virt. eigenvalues --    3.09695   3.11175   3.12033   3.13466   3.14929
 Alpha virt. eigenvalues --    3.16074   3.16814   3.18221   3.18977   3.21508
 Alpha virt. eigenvalues --    3.22002   3.22557   3.23175   3.23508   3.24632
 Alpha virt. eigenvalues --    3.25415   3.26548   3.29202   3.29622   3.32695
 Alpha virt. eigenvalues --    3.34027   3.34536   3.36620   3.38397   3.39161
 Alpha virt. eigenvalues --    3.43016   3.51058   3.57774   3.59489   3.62949
 Alpha virt. eigenvalues --    3.79070   3.88364   3.89797   3.99717   4.04076
 Alpha virt. eigenvalues --    4.08571   4.13911   4.18443   4.21839   4.25992
 Alpha virt. eigenvalues --    4.93787   5.00155   5.02134   5.13063   5.14683
 Alpha virt. eigenvalues --    5.23088   5.52222   5.56871   5.76247   5.85340
 Alpha virt. eigenvalues --   11.53241  11.53552  11.56792  23.40232  23.49485
 Alpha virt. eigenvalues --   23.54264  23.54463  23.56739  23.59590  23.70815
 Alpha virt. eigenvalues --   23.74912  23.78711  23.79877  23.82936  23.86160
 Alpha virt. eigenvalues --   23.88160  24.29496  49.98957  50.06707  50.13342
 Alpha virt. eigenvalues --  141.26565
          Condensed to atoms (all electrons):
               1          2          3          4          5          6
     1  C    5.197477   0.256050  -0.056237  -0.005559  -0.047578   0.400697
     2  C    0.256050   5.562263   0.320769  -0.097464  -0.011356  -0.043676
     3  C   -0.056237   0.320769   5.167413   0.247306  -0.014791  -0.017312
     4  C   -0.005559  -0.097464   0.247306   5.897775   0.235212   0.002846
     5  C   -0.047578  -0.011356  -0.014791   0.235212   4.388845  -0.001514
     6  H    0.400697  -0.043676  -0.017312   0.002846  -0.001514   0.476319
     7  H   -0.041449   0.410857  -0.060715  -0.004899   0.000289   0.006271
     8  H    0.001416  -0.006712  -0.033635   0.362652  -0.025722  -0.000045
     9  H   -0.000553   0.006472  -0.028618   0.360695  -0.025608   0.000203
    10  O    0.217230  -0.035729   0.005270  -0.108036   0.344112  -0.032414
    11  O    0.002361  -0.000364   0.003458  -0.096673   0.671818  -0.000017
    12  C    0.336250  -0.061801   0.010808  -0.002165   0.002566  -0.053191
    13  C   -0.070112  -0.009037  -0.001092   0.000331  -0.000132   0.007902
    14  C   -0.065006   0.292336  -0.057717   0.007746   0.000125  -0.001168
    15  O    0.004145  -0.056926   0.225505  -0.018562   0.002060  -0.000059
    16  Si   0.001414  -0.006913  -0.042961  -0.007598   0.001381  -0.000160
    17  C    0.000006  -0.000239  -0.000681  -0.000362   0.000006   0.000000
    18  C   -0.000030   0.001409  -0.000383  -0.002224   0.000008   0.000000
    19  C   -0.000001  -0.000069   0.001965  -0.000047   0.000002   0.000000
    20  H    0.000000   0.000018  -0.000026   0.000118   0.000000   0.000000
    21  H   -0.000030   0.000309   0.000194  -0.000070   0.000046   0.000000
    22  H   -0.000034   0.000589  -0.000041   0.000300   0.000000   0.000000
    23  H    0.000000  -0.000002  -0.000052  -0.000003   0.000000   0.000000
    24  H   -0.000001   0.000036  -0.000101  -0.000025   0.000000   0.000000
    25  H    0.000001  -0.000026  -0.000144  -0.000039   0.000000   0.000000
    26  H    0.000000   0.000004  -0.000036   0.000125   0.000000   0.000000
    27  H    0.000003  -0.000059   0.000384  -0.000244  -0.000021   0.000000
    28  H    0.000003  -0.000017  -0.000188   0.001269  -0.000018   0.000000
    29  H    0.006100  -0.036791  -0.008135   0.000661  -0.000102  -0.000132
    30  H   -0.006312  -0.035271   0.007142  -0.000311   0.000007  -0.000656
    31  H   -0.003690  -0.040294  -0.008250  -0.000127   0.000010   0.005690
    32  H   -0.038086  -0.006684  -0.000329   0.000109  -0.000059  -0.000205
    33  H   -0.048450   0.009379  -0.000118   0.000284  -0.000181  -0.007038
    34  H   -0.007561   0.003629   0.000254   0.000076  -0.000019  -0.000311
    35  H   -0.008084  -0.000266  -0.000516   0.000899  -0.000064   0.000475
    36  H    0.007528   0.000001   0.000008  -0.000018   0.000017  -0.000174
    37  C    0.000946  -0.095665   0.268426  -0.100570  -0.001963   0.006719
    38  C   -0.000636   0.009729  -0.061848  -0.004464   0.000773   0.000228
    39  C    0.000014  -0.000202  -0.002104   0.000535   0.000011  -0.000006
    40  H    0.002929  -0.006797  -0.037853  -0.001847   0.002382  -0.001001
    41  H   -0.000177  -0.010014  -0.036084   0.006263  -0.000280  -0.000023
    42  H   -0.000086  -0.000099  -0.004092   0.002402   0.000375   0.000042
    43  H    0.000000   0.000016  -0.000157   0.000004  -0.000003   0.000000
    44  H   -0.000002  -0.000070  -0.000058   0.000046   0.000001   0.000005
               7          8          9         10         11         12
     1  C   -0.041449   0.001416  -0.000553   0.217230   0.002361   0.336250
     2  C    0.410857  -0.006712   0.006472  -0.035729  -0.000364  -0.061801
     3  C   -0.060715  -0.033635  -0.028618   0.005270   0.003458   0.010808
     4  C   -0.004899   0.362652   0.360695  -0.108036  -0.096673  -0.002165
     5  C    0.000289  -0.025722  -0.025608   0.344112   0.671818   0.002566
     6  H    0.006271  -0.000045   0.000203  -0.032414  -0.000017  -0.053191
     7  H    0.466193   0.002272   0.000296   0.001391  -0.000109  -0.013237
     8  H    0.002272   0.414207  -0.013627   0.001882   0.001706  -0.000139
     9  H    0.000296  -0.013627   0.407172   0.004786   0.011910   0.000035
    10  O    0.001391   0.001882   0.004786   8.048326  -0.077579  -0.061394
    11  O   -0.000109   0.001706   0.011910  -0.077579   7.865376  -0.000146
    12  C   -0.013237  -0.000139   0.000035  -0.061394  -0.000146   5.322943
    13  C    0.005539   0.000222   0.000016   0.001057  -0.000021   0.287196
    14  C   -0.036984   0.000145  -0.000122   0.003438   0.000004  -0.003658
    15  O    0.001210  -0.004618  -0.001060  -0.000021  -0.000019  -0.000067
    16  Si  -0.000044   0.000370  -0.004733  -0.000423  -0.000551  -0.000069
    17  C   -0.000064  -0.000333  -0.001735  -0.000001   0.000000   0.000000
    18  C   -0.001487   0.003269   0.000075   0.000002   0.000002   0.000000
    19  C   -0.000074  -0.000023  -0.000020   0.000000   0.000000   0.000000
    20  H    0.000143   0.000006  -0.000003   0.000000   0.000000   0.000000
    21  H   -0.000669   0.005577  -0.000034   0.000005   0.000002  -0.000001
    22  H   -0.000148  -0.000472   0.000007   0.000000   0.000000   0.000005
    23  H   -0.000001   0.000006  -0.000004   0.000000   0.000000   0.000000
    24  H   -0.000016  -0.000006  -0.000007   0.000000   0.000000   0.000000
    25  H    0.000001  -0.000004  -0.000007   0.000000   0.000000   0.000000
    26  H    0.000002  -0.000018   0.000195   0.000000   0.000000   0.000000
    27  H    0.000003   0.000033   0.000109   0.000000   0.000001   0.000000
    28  H   -0.000012   0.000091   0.000510  -0.000002  -0.000062   0.000000
    29  H   -0.003042   0.000059  -0.000032  -0.000112   0.000000   0.000043
    30  H   -0.007954  -0.000032   0.000012  -0.000031   0.000000   0.001831
    31  H    0.006948  -0.000019   0.000018   0.000046   0.000000  -0.001530
    32  H    0.000229  -0.000004  -0.000004   0.003642   0.000007   0.386981
    33  H   -0.000204  -0.000008  -0.000010   0.003358  -0.000031   0.404031
    34  H   -0.000459  -0.000035   0.000000   0.000063   0.000001  -0.035796
    35  H    0.000430   0.000040  -0.000007   0.010049  -0.000177  -0.043766
    36  H    0.000208   0.000001   0.000000  -0.000166   0.000000  -0.034713
    37  C    0.009313   0.006656  -0.006496  -0.002791   0.000286  -0.000514
    38  C   -0.000187  -0.000249   0.004849  -0.000082  -0.000082   0.000004
    39  C   -0.000005  -0.000010   0.000445  -0.000001   0.000001   0.000000
    40  H   -0.000402   0.000099   0.000167   0.002000  -0.000191   0.001010
    41  H   -0.000052  -0.000122  -0.000014   0.000075   0.000003  -0.000077
    42  H    0.000026   0.000205   0.001629  -0.000081   0.000244  -0.000002
    43  H   -0.000001  -0.000004   0.000000   0.000000   0.000000   0.000000
    44  H    0.000003   0.000005   0.000008   0.000000   0.000000   0.000000
              13         14         15         16         17         18
     1  C   -0.070112  -0.065006   0.004145   0.001414   0.000006  -0.000030
     2  C   -0.009037   0.292336  -0.056926  -0.006913  -0.000239   0.001409
     3  C   -0.001092  -0.057717   0.225505  -0.042961  -0.000681  -0.000383
     4  C    0.000331   0.007746  -0.018562  -0.007598  -0.000362  -0.002224
     5  C   -0.000132   0.000125   0.002060   0.001381   0.000006   0.000008
     6  H    0.007902  -0.001168  -0.000059  -0.000160   0.000000   0.000000
     7  H    0.005539  -0.036984   0.001210  -0.000044  -0.000064  -0.001487
     8  H    0.000222   0.000145  -0.004618   0.000370  -0.000333   0.003269
     9  H    0.000016  -0.000122  -0.001060  -0.004733  -0.001735   0.000075
    10  O    0.001057   0.003438  -0.000021  -0.000423  -0.000001   0.000002
    11  O   -0.000021   0.000004  -0.000019  -0.000551   0.000000   0.000002
    12  C    0.287196  -0.003658  -0.000067  -0.000069   0.000000   0.000000
    13  C    5.377307  -0.000122  -0.000003  -0.000058   0.000000  -0.000005
    14  C   -0.000122   5.394978  -0.007780  -0.000667   0.000000   0.000123
    15  O   -0.000003  -0.007780   8.283361   0.348982  -0.022317  -0.024541
    16  Si  -0.000058  -0.000667   0.348982  11.504118   0.318361   0.308956
    17  C    0.000000   0.000000  -0.022317   0.318361   5.771073  -0.055852
    18  C   -0.000005   0.000123  -0.024541   0.308956  -0.055852   5.780473
    19  C    0.000000  -0.000064  -0.030470   0.336341  -0.043579  -0.045954
    20  H    0.000000  -0.000003   0.000932  -0.010757   0.000558   0.361644
    21  H    0.000018   0.000010  -0.001361  -0.028570  -0.001005   0.368357
    22  H    0.000013   0.000126  -0.002309  -0.026746   0.002207   0.371374
    23  H    0.000000  -0.000001   0.001220  -0.014525   0.000487   0.000594
    24  H    0.000000   0.000099  -0.001722  -0.024207   0.002163  -0.000679
    25  H    0.000000  -0.000006  -0.001630  -0.024136  -0.000500   0.002110
    26  H    0.000000   0.000000   0.000920  -0.012367   0.361525   0.000763
    27  H    0.000000   0.000000  -0.002751  -0.025791   0.367914   0.001924
    28  H    0.000000   0.000000  -0.000823  -0.026808   0.371305  -0.000892
    29  H   -0.000102   0.384654   0.011357   0.001988   0.000044   0.000019
    30  H    0.000200   0.390663  -0.000047  -0.000099   0.000000   0.000015
    31  H    0.000215   0.386259  -0.000037  -0.000105   0.000001   0.000000
    32  H   -0.036835   0.002678  -0.000002  -0.000005   0.000000   0.000000
    33  H   -0.042645  -0.000512   0.000004   0.000013   0.000000   0.000000
    34  H    0.384448   0.000520  -0.000015  -0.000029   0.000000   0.000084
    35  H    0.385080   0.000114   0.000003   0.000006   0.000000   0.000002
    36  H    0.391324  -0.000054   0.000000  -0.000001   0.000000   0.000000
    37  C    0.000018  -0.007935  -0.074492  -0.004908   0.000269  -0.000288
    38  C    0.000000  -0.000340   0.002815  -0.000242  -0.001415   0.000021
    39  C    0.000000   0.000007   0.001040   0.000345  -0.000679   0.000005
    40  H   -0.000028   0.000671   0.003779   0.000414  -0.000012   0.000017
    41  H    0.000000   0.002320   0.001289  -0.000421   0.000025   0.000003
    42  H    0.000000  -0.000020   0.000314  -0.000480   0.000116   0.000003
    43  H    0.000000   0.000000   0.000078   0.000262   0.000036   0.000000
    44  H    0.000000   0.000006   0.000379  -0.000302   0.000021   0.000001
              19         20         21         22         23         24
     1  C   -0.000001   0.000000  -0.000030  -0.000034   0.000000  -0.000001
     2  C   -0.000069   0.000018   0.000309   0.000589  -0.000002   0.000036
     3  C    0.001965  -0.000026   0.000194  -0.000041  -0.000052  -0.000101
     4  C   -0.000047   0.000118  -0.000070   0.000300  -0.000003  -0.000025
     5  C    0.000002   0.000000   0.000046   0.000000   0.000000   0.000000
     6  H    0.000000   0.000000   0.000000   0.000000   0.000000   0.000000
     7  H   -0.000074   0.000143  -0.000669  -0.000148  -0.000001  -0.000016
     8  H   -0.000023   0.000006   0.005577  -0.000472   0.000006  -0.000006
     9  H   -0.000020  -0.000003  -0.000034   0.000007  -0.000004  -0.000007
    10  O    0.000000   0.000000   0.000005   0.000000   0.000000   0.000000
    11  O    0.000000   0.000000   0.000002   0.000000   0.000000   0.000000
    12  C    0.000000   0.000000  -0.000001   0.000005   0.000000   0.000000
    13  C    0.000000   0.000000   0.000018   0.000013   0.000000   0.000000
    14  C   -0.000064  -0.000003   0.000010   0.000126  -0.000001   0.000099
    15  O   -0.030470   0.000932  -0.001361  -0.002309   0.001220  -0.001722
    16  Si   0.336341  -0.010757  -0.028570  -0.026746  -0.014525  -0.024207
    17  C   -0.043579   0.000558  -0.001005   0.002207   0.000487   0.002163
    18  C   -0.045954   0.361644   0.368357   0.371374   0.000594  -0.000679
    19  C    5.720107  -0.000475   0.002363  -0.000546   0.360607   0.369371
    20  H   -0.000475   0.450899  -0.021664  -0.022498   0.000723  -0.000078
    21  H    0.002363  -0.021664   0.449442  -0.019002  -0.000075  -0.000084
    22  H   -0.000546  -0.022498  -0.019002   0.454060  -0.000034   0.001192
    23  H    0.360607   0.000723  -0.000075  -0.000034   0.462600  -0.021947
    24  H    0.369371  -0.000078  -0.000084   0.001192  -0.021947   0.455723
    25  H    0.370136  -0.000044  -0.000090  -0.000093  -0.021397  -0.019399
    26  H   -0.000567   0.000450   0.000022  -0.000065   0.000689  -0.000047
    27  H   -0.000155  -0.000032  -0.000059  -0.000094  -0.000061  -0.000098
    28  H    0.002299   0.000016   0.001161  -0.000016  -0.000065  -0.000090
    29  H    0.000171  -0.000005  -0.000006   0.000123   0.000000   0.000593
    30  H   -0.000002   0.000000   0.000002   0.000033   0.000000  -0.000001
    31  H    0.000003   0.000000   0.000000  -0.000006   0.000000  -0.000009
    32  H    0.000000   0.000000   0.000000   0.000000   0.000000   0.000000
    33  H    0.000000   0.000000   0.000000   0.000000   0.000000   0.000000
    34  H    0.000000  -0.000004   0.000059   0.000105   0.000000   0.000000
    35  H    0.000000   0.000000   0.000003  -0.000001   0.000000   0.000000
    36  H    0.000000   0.000000   0.000000  -0.000001   0.000000   0.000000
    37  C    0.000103   0.000004  -0.000056  -0.000061   0.000000  -0.000018
    38  C   -0.000206   0.000001   0.000010   0.000002  -0.000007  -0.000010
    39  C   -0.000143   0.000000   0.000001   0.000000  -0.000014  -0.000025
    40  H    0.000000   0.000000   0.000004   0.000003   0.000000   0.000000
    41  H   -0.000063   0.000000  -0.000001  -0.000001   0.000002  -0.000017
    42  H    0.000000   0.000000   0.000000   0.000000   0.000000   0.000000
    43  H   -0.000006   0.000000   0.000000   0.000000   0.000000   0.000000
    44  H    0.000071   0.000000   0.000000   0.000000  -0.000003  -0.000001
              25         26         27         28         29         30
     1  C    0.000001   0.000000   0.000003   0.000003   0.006100  -0.006312
     2  C   -0.000026   0.000004  -0.000059  -0.000017  -0.036791  -0.035271
     3  C   -0.000144  -0.000036   0.000384  -0.000188  -0.008135   0.007142
     4  C   -0.000039   0.000125  -0.000244   0.001269   0.000661  -0.000311
     5  C    0.000000   0.000000  -0.000021  -0.000018  -0.000102   0.000007
     6  H    0.000000   0.000000   0.000000   0.000000  -0.000132  -0.000656
     7  H    0.000001   0.000002   0.000003  -0.000012  -0.003042  -0.007954
     8  H   -0.000004  -0.000018   0.000033   0.000091   0.000059  -0.000032
     9  H   -0.000007   0.000195   0.000109   0.000510  -0.000032   0.000012
    10  O    0.000000   0.000000   0.000000  -0.000002  -0.000112  -0.000031
    11  O    0.000000   0.000000   0.000001  -0.000062   0.000000   0.000000
    12  C    0.000000   0.000000   0.000000   0.000000   0.000043   0.001831
    13  C    0.000000   0.000000   0.000000   0.000000  -0.000102   0.000200
    14  C   -0.000006   0.000000   0.000000   0.000000   0.384654   0.390663
    15  O   -0.001630   0.000920  -0.002751  -0.000823   0.011357  -0.000047
    16  Si  -0.024136  -0.012367  -0.025791  -0.026808   0.001988  -0.000099
    17  C   -0.000500   0.361525   0.367914   0.371305   0.000044   0.000000
    18  C    0.002110   0.000763   0.001924  -0.000892   0.000019   0.000015
    19  C    0.370136  -0.000567  -0.000155   0.002299   0.000171  -0.000002
    20  H   -0.000044   0.000450  -0.000032   0.000016  -0.000005   0.000000
    21  H   -0.000090   0.000022  -0.000059   0.001161  -0.000006   0.000002
    22  H   -0.000093  -0.000065  -0.000094  -0.000016   0.000123   0.000033
    23  H   -0.021397   0.000689  -0.000061  -0.000065   0.000000   0.000000
    24  H   -0.019399  -0.000047  -0.000098  -0.000090   0.000593  -0.000001
    25  H    0.452047  -0.000071   0.001123  -0.000077  -0.000004   0.000000
    26  H   -0.000071   0.454833  -0.020256  -0.022656  -0.000001   0.000000
    27  H    0.001123  -0.020256   0.443287  -0.019601   0.000003   0.000000
    28  H   -0.000077  -0.022656  -0.019601   0.453985   0.000001   0.000000
    29  H   -0.000004  -0.000001   0.000003   0.000001   0.428045  -0.023147
    30  H    0.000000   0.000000   0.000000   0.000000  -0.023147   0.456720
    31  H   -0.000001   0.000000   0.000000   0.000000  -0.024313  -0.027087
    32  H    0.000000   0.000000   0.000000   0.000000   0.000275  -0.000608
    33  H    0.000000   0.000000   0.000000   0.000000   0.000029   0.000182
    34  H    0.000000   0.000000   0.000000   0.000000  -0.000016   0.001634
    35  H    0.000000   0.000000   0.000000   0.000000   0.000022  -0.000111
    36  H    0.000000   0.000000   0.000000   0.000000  -0.000003  -0.000053
    37  C    0.000147  -0.000002   0.000331   0.000053  -0.000640  -0.000167
    38  C    0.000128   0.000064   0.002222  -0.000016  -0.000211   0.000015
    39  C    0.000502   0.000021   0.002821   0.000027   0.000033  -0.000001
    40  H   -0.000001   0.000000   0.000005   0.000004   0.000056  -0.000058
    41  H   -0.000002   0.000000   0.000015   0.000003   0.000740   0.000204
    42  H    0.000000  -0.000001   0.000032  -0.000042  -0.000002   0.000001
    43  H   -0.000012   0.000001   0.000141   0.000000  -0.000001   0.000000
    44  H    0.000187  -0.000001   0.000025  -0.000004   0.000025  -0.000001
              31         32         33         34         35         36
     1  C   -0.003690  -0.038086  -0.048450  -0.007561  -0.008084   0.007528
     2  C   -0.040294  -0.006684   0.009379   0.003629  -0.000266   0.000001
     3  C   -0.008250  -0.000329  -0.000118   0.000254  -0.000516   0.000008
     4  C   -0.000127   0.000109   0.000284   0.000076   0.000899  -0.000018
     5  C    0.000010  -0.000059  -0.000181  -0.000019  -0.000064   0.000017
     6  H    0.005690  -0.000205  -0.007038  -0.000311   0.000475  -0.000174
     7  H    0.006948   0.000229  -0.000204  -0.000459   0.000430   0.000208
     8  H   -0.000019  -0.000004  -0.000008  -0.000035   0.000040   0.000001
     9  H    0.000018  -0.000004  -0.000010   0.000000  -0.000007   0.000000
    10  O    0.000046   0.003642   0.003358   0.000063   0.010049  -0.000166
    11  O    0.000000   0.000007  -0.000031   0.000001  -0.000177   0.000000
    12  C   -0.001530   0.386981   0.404031  -0.035796  -0.043766  -0.034713
    13  C    0.000215  -0.036835  -0.042645   0.384448   0.385080   0.391324
    14  C    0.386259   0.002678  -0.000512   0.000520   0.000114  -0.000054
    15  O   -0.000037  -0.000002   0.000004  -0.000015   0.000003   0.000000
    16  Si  -0.000105  -0.000005   0.000013  -0.000029   0.000006  -0.000001
    17  C    0.000001   0.000000   0.000000   0.000000   0.000000   0.000000
    18  C    0.000000   0.000000   0.000000   0.000084   0.000002   0.000000
    19  C    0.000003   0.000000   0.000000   0.000000   0.000000   0.000000
    20  H    0.000000   0.000000   0.000000  -0.000004   0.000000   0.000000
    21  H    0.000000   0.000000   0.000000   0.000059   0.000003   0.000000
    22  H   -0.000006   0.000000   0.000000   0.000105  -0.000001  -0.000001
    23  H    0.000000   0.000000   0.000000   0.000000   0.000000   0.000000
    24  H   -0.000009   0.000000   0.000000   0.000000   0.000000   0.000000
    25  H   -0.000001   0.000000   0.000000   0.000000   0.000000   0.000000
    26  H    0.000000   0.000000   0.000000   0.000000   0.000000   0.000000
    27  H    0.000000   0.000000   0.000000   0.000000   0.000000   0.000000
    28  H    0.000000   0.000000   0.000000   0.000000   0.000000   0.000000
    29  H   -0.024313   0.000275   0.000029  -0.000016   0.000022  -0.000003
    30  H   -0.027087  -0.000608   0.000182   0.001634  -0.000111  -0.000053
    31  H    0.471552   0.000293  -0.000179  -0.000105   0.000005   0.000011
    32  H    0.000293   0.475960  -0.026112  -0.005580   0.007086  -0.003582
    33  H   -0.000179  -0.026112   0.468426   0.006248  -0.003223  -0.005803
    34  H   -0.000105  -0.005580   0.006248   0.479636  -0.027858  -0.027472
    35  H    0.000005   0.007086  -0.003223  -0.027858   0.468350  -0.025691
    36  H    0.000011  -0.003582  -0.005803  -0.027472  -0.025691   0.462708
    37  C    0.003566   0.000003  -0.000019  -0.000023   0.000015   0.000002
    38  C    0.000192   0.000000  -0.000002   0.000000   0.000000   0.000000
    39  C   -0.000003   0.000000   0.000000   0.000000   0.000000   0.000000
    40  H   -0.000335  -0.000028  -0.000036  -0.000001  -0.000008   0.000001
    41  H    0.000283  -0.000009   0.000007   0.000001   0.000000   0.000000
    42  H   -0.000001   0.000000   0.000000   0.000000   0.000000   0.000000
    43  H   -0.000001   0.000000   0.000000   0.000000   0.000000   0.000000
    44  H   -0.000006   0.000000   0.000000   0.000000   0.000000   0.000000
              37         38         39         40         41         42
     1  C    0.000946  -0.000636   0.000014   0.002929  -0.000177  -0.000086
     2  C   -0.095665   0.009729  -0.000202  -0.006797  -0.010014  -0.000099
     3  C    0.268426  -0.061848  -0.002104  -0.037853  -0.036084  -0.004092
     4  C   -0.100570  -0.004464   0.000535  -0.001847   0.006263   0.002402
     5  C   -0.001963   0.000773   0.000011   0.002382  -0.000280   0.000375
     6  H    0.006719   0.000228  -0.000006  -0.001001  -0.000023   0.000042
     7  H    0.009313  -0.000187  -0.000005  -0.000402  -0.000052   0.000026
     8  H    0.006656  -0.000249  -0.000010   0.000099  -0.000122   0.000205
     9  H   -0.006496   0.004849   0.000445   0.000167  -0.000014   0.001629
    10  O   -0.002791  -0.000082  -0.000001   0.002000   0.000075  -0.000081
    11  O    0.000286  -0.000082   0.000001  -0.000191   0.000003   0.000244
    12  C   -0.000514   0.000004   0.000000   0.001010  -0.000077  -0.000002
    13  C    0.000018   0.000000   0.000000  -0.000028   0.000000   0.000000
    14  C   -0.007935  -0.000340   0.000007   0.000671   0.002320  -0.000020
    15  O   -0.074492   0.002815   0.001040   0.003779   0.001289   0.000314
    16  Si  -0.004908  -0.000242   0.000345   0.000414  -0.000421  -0.000480
    17  C    0.000269  -0.001415  -0.000679  -0.000012   0.000025   0.000116
    18  C   -0.000288   0.000021   0.000005   0.000017   0.000003   0.000003
    19  C    0.000103  -0.000206  -0.000143   0.000000  -0.000063   0.000000
    20  H    0.000004   0.000001   0.000000   0.000000   0.000000   0.000000
    21  H   -0.000056   0.000010   0.000001   0.000004  -0.000001   0.000000
    22  H   -0.000061   0.000002   0.000000   0.000003  -0.000001   0.000000
    23  H    0.000000  -0.000007  -0.000014   0.000000   0.000002   0.000000
    24  H   -0.000018  -0.000010  -0.000025   0.000000  -0.000017   0.000000
    25  H    0.000147   0.000128   0.000502  -0.000001  -0.000002   0.000000
    26  H   -0.000002   0.000064   0.000021   0.000000   0.000000  -0.000001
    27  H    0.000331   0.002222   0.002821   0.000005   0.000015   0.000032
    28  H    0.000053  -0.000016   0.000027   0.000004   0.000003  -0.000042
    29  H   -0.000640  -0.000211   0.000033   0.000056   0.000740  -0.000002
    30  H   -0.000167   0.000015  -0.000001  -0.000058   0.000204   0.000001
    31  H    0.003566   0.000192  -0.000003  -0.000335   0.000283  -0.000001
    32  H    0.000003   0.000000   0.000000  -0.000028  -0.000009   0.000000
    33  H   -0.000019  -0.000002   0.000000  -0.000036   0.000007   0.000000
    34  H   -0.000023   0.000000   0.000000  -0.000001   0.000001   0.000000
    35  H    0.000015   0.000000   0.000000  -0.000008   0.000000   0.000000
    36  H    0.000002   0.000000   0.000000   0.000001   0.000000   0.000000
    37  C    5.499628   0.326160  -0.052598   0.378548   0.395738  -0.050703
    38  C    0.326160   5.019895   0.644067  -0.039309  -0.045531   0.394845
    39  C   -0.052598   0.644067   5.119709   0.000108   0.000208  -0.037173
    40  H    0.378548  -0.039309   0.000108   0.466816  -0.019511  -0.002487
    41  H    0.395738  -0.045531   0.000208  -0.019511   0.436021   0.004904
    42  H   -0.050703   0.394845  -0.037173  -0.002487   0.004904   0.473971
    43  H    0.006298  -0.037704   0.391237  -0.000326   0.000051  -0.008595
    44  H   -0.009452  -0.040356   0.388238   0.000100   0.005510   0.006383
              43         44
     1  C    0.000000  -0.000002
     2  C    0.000016  -0.000070
     3  C   -0.000157  -0.000058
     4  C    0.000004   0.000046
     5  C   -0.000003   0.000001
     6  H    0.000000   0.000005
     7  H   -0.000001   0.000003
     8  H   -0.000004   0.000005
     9  H    0.000000   0.000008
    10  O    0.000000   0.000000
    11  O    0.000000   0.000000
    12  C    0.000000   0.000000
    13  C    0.000000   0.000000
    14  C    0.000000   0.000006
    15  O    0.000078   0.000379
    16  Si   0.000262  -0.000302
    17  C    0.000036   0.000021
    18  C    0.000000   0.000001
    19  C   -0.000006   0.000071
    20  H    0.000000   0.000000
    21  H    0.000000   0.000000
    22  H    0.000000   0.000000
    23  H    0.000000  -0.000003
    24  H    0.000000  -0.000001
    25  H   -0.000012   0.000187
    26  H    0.000001  -0.000001
    27  H    0.000141   0.000025
    28  H    0.000000  -0.000004
    29  H   -0.000001   0.000025
    30  H    0.000000  -0.000001
    31  H   -0.000001  -0.000006
    32  H    0.000000   0.000000
    33  H    0.000000   0.000000
    34  H    0.000000   0.000000
    35  H    0.000000   0.000000
    36  H    0.000000   0.000000
    37  C    0.006298  -0.009452
    38  C   -0.037704  -0.040356
    39  C    0.391237   0.388238
    40  H   -0.000326   0.000100
    41  H    0.000051   0.005510
    42  H   -0.008595   0.006383
    43  H    0.457886  -0.034539
    44  H   -0.034539   0.463486
 Mulliken charges:
               1
     1  C   -0.034893
     2  C   -0.311320
     3  C    0.215378
     4  C   -0.676348
     5  C    0.479365
     6  H    0.251705
     7  H    0.260592
     8  H    0.284922
     9  H    0.283083
    10  O   -0.327868
    11  O   -0.381157
    12  C   -0.441435
    13  C   -0.680694
    14  C   -0.684862
    15  O   -0.637763
    16  Si   1.441725
    17  C   -1.067343
    18  C   -1.068918
    19  C   -1.041076
    20  H    0.240081
    21  H    0.245190
    22  H    0.242031
    23  H    0.231262
    24  H    0.239414
    25  H    0.241300
    26  H    0.236476
    27  H    0.248844
    28  H    0.240665
    29  H    0.261756
    30  H    0.243287
    31  H    0.231004
    32  H    0.240870
    33  H    0.242610
    34  H    0.228528
    35  H    0.237193
    36  H    0.235923
    37  C   -0.493866
    38  C   -0.173121
    39  C   -0.456409
    40  H    0.251120
    41  H    0.258737
    42  H    0.218377
    43  H    0.225340
    44  H    0.220296
 Sum of Mulliken charges =   0.00000
 Mulliken charges with hydrogens summed into heavy atoms:
               1
     1  C    0.216812
     2  C   -0.050728
     3  C    0.215378
     4  C   -0.108344
     5  C    0.479365
    10  O   -0.327868
    11  O   -0.381157
    12  C    0.042045
    13  C    0.020950
    14  C    0.051185
    15  O   -0.637763
    16  Si   1.441725
    17  C   -0.341358
    18  C   -0.341616
    19  C   -0.329100
    37  C    0.015991
    38  C    0.045256
    39  C   -0.010773
 Electronic spatial extent (au):  <R**2>=           5378.4797
 Charge=              0.0000 electrons
 Dipole moment (field-independent basis, Debye):
    X=              1.6439    Y=             -3.0375    Z=             -3.3636  Tot=              4.8211
 Quadrupole moment (field-independent basis, Debye-Ang):
   XX=           -119.3552   YY=           -121.5872   ZZ=           -126.1219
   XY=              7.5213   XZ=             13.3903   YZ=             -7.3783
 Traceless Quadrupole moment (field-independent basis, Debye-Ang):
   XX=              2.9996   YY=              0.7676   ZZ=             -3.7671
   XY=              7.5213   XZ=             13.3903   YZ=             -7.3783
 Octapole moment (field-independent basis, Debye-Ang**2):
  XXX=             -2.1046  YYY=             -6.8890  ZZZ=            -24.9926  XYY=             12.1173
  XXY=            -20.2528  XXZ=            -23.0323  XZZ=             14.3719  YZZ=            -19.1331
  YYZ=             -9.2450  XYZ=             10.8792
 Hexadecapole moment (field-independent basis, Debye-Ang**3):
 XXXX=          -4020.9452 YYYY=          -1977.9488 ZZZZ=          -1350.6357 XXXY=             42.9165
 XXXZ=             76.7118 YYYX=             19.7435 YYYZ=             38.0371 ZZZX=             31.3392
 ZZZY=            -47.3641 XXYY=           -973.7797 XXZZ=           -939.8291 YYZZ=           -581.3726
 XXYZ=            -60.3678 YYXZ=             34.3291 ZZXY=             41.2145
 N-N= 1.630429757670D+03 E-N=-5.756016769815D+03  KE= 1.060529578545D+03
 1\1\GINC-SWANNODE-0-15\SP\RmPW1PW91\6-311G(d)\C14H26O3Si1\KE291\06-Feb
 -2019\0\\# mPW1PW91/6-311g(d) geom=checkpoint nmr=giao scrf=(solvent=c
 hloroform)\\P_ng_2ginp015\\0,1\C,0,-0.0341469362,-0.1313651321,1.02818
 00132\C,0,-0.8409474116,1.0302752116,0.4299649821\C,0,-2.0287758729,1.
 4323858313,1.3522777606\C,0,-1.4095118555,1.8257648178,2.7032079451\C,
 0,-0.4657749296,0.7976431641,3.2987312803\H,0,-0.6255657109,-1.0506561
 241,0.9363162683\H,0,-0.1987821411,1.919230016,0.3971050691\H,0,-0.808
 1387564,2.7326501552,2.5641936494\H,0,-2.1600794064,2.0552114071,3.460
 2021262\O,0,0.2326712476,0.0045641265,2.4615438946\O,0,-0.265834275,0.
 7089760402,4.4922247736\C,0,1.3340495274,-0.3883984195,0.3842219706\C,
 0,2.3109545645,0.7904612059,0.4273717821\C,0,-1.2642133401,0.703161798
 6,-1.0095882612\O,0,-2.7088813176,2.519154405,0.7418561107\Si,0,-2.918
 9409234,4.1682014484,0.9808449546\C,0,-3.7004965894,4.5532517242,2.654
 6408394\C,0,-1.2912498321,5.1108227328,0.8022055567\C,0,-4.0908236129,
 4.6621388707,-0.4049823308\H,0,-1.4824283998,6.1904125185,0.8214168092
 \H,0,-0.5823522953,4.8950715381,1.6085377918\H,0,-0.8000403902,4.87917
 68129,-0.1489327125\H,0,-4.318143396,5.7331575023,-0.3611380781\H,0,-3
 .6529527175,4.452777465,-1.3865457046\H,0,-5.0367470306,4.1153323294,-
 0.3357568385\H,0,-4.0131178113,5.6036453059,2.6855216008\H,0,-4.586944
 3202,3.9337998853,2.8230217478\H,0,-3.0117447146,4.3922151937,3.489999
 7897\H,0,-1.9579828609,1.4635749351,-1.373012984\H,0,-0.3995875907,0.6
 862483518,-1.6782974175\H,0,-1.7570742211,-0.2721930338,-1.0806743777\
 H,0,1.1698647492,-0.7102904657,-0.6498466715\H,0,1.7736905195,-1.24593
 70113,0.9054304033\H,0,1.971226948,1.6321986622,-0.1840891109\H,0,2.44
 87688401,1.1476832596,1.4522642336\H,0,3.2895779424,0.4841512676,0.046
 3235393\C,0,-3.0651537611,0.2836459751,1.5091770283\C,0,-4.2337002643,
 0.5952779803,2.4048501795\C,0,-5.4984912743,0.6931209555,1.9922176081\
 H,0,-2.5505067798,-0.6044574236,1.899848711\H,0,-3.43575799,0.02931555
 3,0.5119911755\H,0,-4.0196232068,0.7182360841,3.466235391\H,0,-6.31010
 8226,0.8976786502,2.6844078993\H,0,-5.7681221769,0.5647504283,0.946483
 6025\\Version=EM64L-G09RevD.01\State=1-A\HF=-1064.3825488\RMSD=8.938e-
 09\Dipole=-0.3403413,0.5247023,-1.7906807\Quadrupole=2.2898152,5.21101
 45,-7.5008296,0.5885143,-8.5310987,7.0417368\PG=C01 [X(C14H26O3Si1)]\\
 @


 THOSE WHO ASPIRE NOT TO GUESS AND DIVINE,
 BUT TO DISCOVER AND KNOW, WHO PROPOSE NOT TO DEVISE 
 MIMIC AND FABULOUS WORLDS OF THEIR OWN, BUT TO 
 EXAMINE AND DISSECT THE NATURE OF THIS VERY WORLD 
 ITSELF, MUST GO TO THE FACTS THEMSELVES FOR EVERYTHING.

                               -- FRANCIS BACON, 1620
 Job cpu time:       0 days  0 hours 46 minutes 23.9 seconds.
 File lengths (MBytes):  RWF=    243 Int=      0 D2E=      0 Chk=     19 Scr=      1
 Normal termination of Gaussian 09 at Wed Feb  6 15:27:16 2019.
