 Entering Gaussian System, Link 0=/usr/local/Cluster-Apps/gaussian/g09/g09
 Initial command:
 /usr/local/Cluster-Apps/gaussian/g09/l1.exe "/home/ke291/rds/hpc-work/06Feb0927IP1/Gau-377853.inp" -scrdir="/home/ke291/rds/hpc-work/06Feb0927IP1/"
 Entering Link 1 = /usr/local/Cluster-Apps/gaussian/g09/l1.exe PID=    377858.
  
 Copyright (c) 1988,1990,1992,1993,1995,1998,2003,2009,2013,
            Gaussian, Inc.  All Rights Reserved.
  
 This is part of the Gaussian(R) 09 program.  It is based on
 the Gaussian(R) 03 system (copyright 2003, Gaussian, Inc.),
 the Gaussian(R) 98 system (copyright 1998, Gaussian, Inc.),
 the Gaussian(R) 94 system (copyright 1995, Gaussian, Inc.),
 the Gaussian 92(TM) system (copyright 1992, Gaussian, Inc.),
 the Gaussian 90(TM) system (copyright 1990, Gaussian, Inc.),
 the Gaussian 88(TM) system (copyright 1988, Gaussian, Inc.),
 the Gaussian 86(TM) system (copyright 1986, Carnegie Mellon
 University), and the Gaussian 82(TM) system (copyright 1983,
 Carnegie Mellon University). Gaussian is a federally registered
 trademark of Gaussian, Inc.
  
 This software contains proprietary and confidential information,
 including trade secrets, belonging to Gaussian, Inc.
  
 This software is provided under written license and may be
 used, copied, transmitted, or stored only in accord with that
 written license.
  
 The following legend is applicable only to US Government
 contracts under FAR:
  
                    RESTRICTED RIGHTS LEGEND
  
 Use, reproduction and disclosure by the US Government is
 subject to restrictions as set forth in subparagraphs (a)
 and (c) of the Commercial Computer Software - Restricted
 Rights clause in FAR 52.227-19.
  
 Gaussian, Inc.
 340 Quinnipiac St., Bldg. 40, Wallingford CT 06492
  
  
 ---------------------------------------------------------------
 Warning -- This program may not be used in any manner that
 competes with the business of Gaussian, Inc. or will provide
 assistance to any competitor of Gaussian, Inc.  The licensee
 of this program is prohibited from giving any competitor of
 Gaussian, Inc. access to this program.  By using this program,
 the user acknowledges that Gaussian, Inc. is engaged in the
 business of creating and licensing software in the field of
 computational chemistry and represents and warrants to the
 licensee that it is not a competitor of Gaussian, Inc. and that
 it will not use this program in any manner prohibited above.
 ---------------------------------------------------------------
  

 Cite this work as:
 Gaussian 09, Revision D.01,
 M. J. Frisch, G. W. Trucks, H. B. Schlegel, G. E. Scuseria, 
 M. A. Robb, J. R. Cheeseman, G. Scalmani, V. Barone, B. Mennucci, 
 G. A. Petersson, H. Nakatsuji, M. Caricato, X. Li, H. P. Hratchian, 
 A. F. Izmaylov, J. Bloino, G. Zheng, J. L. Sonnenberg, M. Hada, 
 M. Ehara, K. Toyota, R. Fukuda, J. Hasegawa, M. Ishida, T. Nakajima, 
 Y. Honda, O. Kitao, H. Nakai, T. Vreven, J. A. Montgomery, Jr., 
 J. E. Peralta, F. Ogliaro, M. Bearpark, J. J. Heyd, E. Brothers, 
 K. N. Kudin, V. N. Staroverov, T. Keith, R. Kobayashi, J. Normand, 
 K. Raghavachari, A. Rendell, J. C. Burant, S. S. Iyengar, J. Tomasi, 
 M. Cossi, N. Rega, J. M. Millam, M. Klene, J. E. Knox, J. B. Cross, 
 V. Bakken, C. Adamo, J. Jaramillo, R. Gomperts, R. E. Stratmann, 
 O. Yazyev, A. J. Austin, R. Cammi, C. Pomelli, J. W. Ochterski, 
 R. L. Martin, K. Morokuma, V. G. Zakrzewski, G. A. Voth, 
 P. Salvador, J. J. Dannenberg, S. Dapprich, A. D. Daniels, 
 O. Farkas, J. B. Foresman, J. V. Ortiz, J. Cioslowski, 
 and D. J. Fox, Gaussian, Inc., Wallingford CT, 2013.
 
 ******************************************
 Gaussian 09:  ES64L-G09RevD.01 24-Apr-2013
                 6-Feb-2019 
 ******************************************
 %nprocshared=2
 Will use up to    2 processors via shared memory.
 %mem=6000MB
 %chk=/home/ke291/rds/hpc-work/06Feb0927IP1/P_ng_correct1ginp014.chk
 ----------------------------------------------------------------------
 # mPW1PW91/6-311g(d) geom=checkpoint nmr=giao scrf=(solvent=chloroform
 )
 ----------------------------------------------------------------------
 1/29=2,38=1/1;
 2/12=2,40=1/2;
 3/5=4,6=6,7=1,11=2,14=-4,16=1,25=1,30=1,70=2201,72=7,74=-7/1,2,8,3;
 4//1;
 5/5=2,38=5,53=7/2;
 8/6=1,10=90,11=11/1;
 10/13=100,45=16/2;
 6/7=2,8=2,9=2,10=2,28=1/1;
 99/9=1/99;
 --------------------
 P_ng_correct1ginp014
 --------------------
 Structure from the checkpoint file:  "/home/ke291/rds/hpc-work/06Feb0927IP1/P_ng_correct1ginp014.chk"
 Charge =  0 Multiplicity = 1
 Redundant internal coordinates found in file.
 C,0,0.9482698778,-0.2855138551,0.608063614
 C,0,-0.5587289897,-0.4182894139,0.8897211234
 C,0,-1.0107847789,0.6842775802,1.9008391136
 C,0,-0.143360279,1.9663999292,1.7037258822
 C,0,0.5837581176,2.1005151313,0.3865004279
 H,0,1.5054993315,-0.2643737778,1.5549155897
 H,0,-1.0512285553,-0.1761597521,-0.0600580499
 H,0,-0.7505298235,2.8578552437,1.8572868657
 H,0,0.6381193495,1.987162805,2.474106526
 O,0,1.1843806698,0.9811718416,-0.0777808374
 O,0,0.7072281026,3.1390335272,-0.228535495
 C,0,1.5759247867,-1.3550620449,-0.2896378073
 C,0,0.9664879174,-1.4721735538,-1.6906945212
 C,0,-0.981807494,-1.8379998832,1.2887379168
 O,0,-2.3920429989,0.9916788456,1.7330095737
 Si,0,-3.443173066,1.3350142819,0.4634109613
 C,0,-4.8188217719,2.3289823234,1.2750627418
 C,0,-2.635328403,2.3369200495,-0.9157397236
 C,0,-4.1558698238,-0.2618956035,-0.2469445897
 H,0,-3.4099938504,2.6605747425,-1.6212780124
 H,0,-2.1306650524,3.232411113,-0.5411976804
 H,0,-1.9008488775,1.758719264,-1.4855618977
 H,0,-4.9386508493,-0.0318504442,-0.9793465971
 H,0,-3.4006292689,-0.8705794085,-0.7549823701
 H,0,-4.608351832,-0.8754115869,0.5395029081
 H,0,-5.2692923763,1.7727770772,2.1038495219
 H,0,-4.4421504104,3.2770206206,1.673004772
 H,0,-5.6126930043,2.5584111252,0.5555461564
 H,0,-0.4004339227,-2.2224114283,2.1322362478
 H,0,-2.037889439,-1.855267341,1.5701507453
 H,0,-0.8526034017,-2.5315992161,0.4545497824
 H,0,1.5210981234,-2.3148631773,0.235208555
 H,0,2.6415483842,-1.1146607071,-0.3770109602
 H,0,-0.0824242913,-1.784034115,-1.6619327124
 H,0,1.020012292,-0.5170565394,-2.2197526472
 H,0,1.5130286122,-2.2150505758,-2.2791206432
 C,0,-0.877097103,0.2124409752,3.3743693142
 C,0,-1.1990468633,1.2756844483,4.3881012278
 C,0,-0.379419532,1.6682839691,5.3647124589
 H,0,0.1371827239,-0.1666266427,3.5476535613
 H,0,-1.5686857659,-0.6261939424,3.5098310012
 H,0,-2.1836039787,1.7308196463,4.2968488012
 H,0,-0.6696689479,2.4314874387,6.0809400283
 H,0,0.6105534622,1.2346900301,5.4897451269
 Recover connectivity data from disk.
                          Input orientation:                          
 ---------------------------------------------------------------------
 Center     Atomic      Atomic             Coordinates (Angstroms)
 Number     Number       Type             X           Y           Z
 ---------------------------------------------------------------------
      1          6           0        0.948270   -0.285514    0.608064
      2          6           0       -0.558729   -0.418289    0.889721
      3          6           0       -1.010785    0.684278    1.900839
      4          6           0       -0.143360    1.966400    1.703726
      5          6           0        0.583758    2.100515    0.386500
      6          1           0        1.505499   -0.264374    1.554916
      7          1           0       -1.051229   -0.176160   -0.060058
      8          1           0       -0.750530    2.857855    1.857287
      9          1           0        0.638119    1.987163    2.474107
     10          8           0        1.184381    0.981172   -0.077781
     11          8           0        0.707228    3.139034   -0.228535
     12          6           0        1.575925   -1.355062   -0.289638
     13          6           0        0.966488   -1.472174   -1.690695
     14          6           0       -0.981807   -1.838000    1.288738
     15          8           0       -2.392043    0.991679    1.733010
     16         14           0       -3.443173    1.335014    0.463411
     17          6           0       -4.818822    2.328982    1.275063
     18          6           0       -2.635328    2.336920   -0.915740
     19          6           0       -4.155870   -0.261896   -0.246945
     20          1           0       -3.409994    2.660575   -1.621278
     21          1           0       -2.130665    3.232411   -0.541198
     22          1           0       -1.900849    1.758719   -1.485562
     23          1           0       -4.938651   -0.031850   -0.979347
     24          1           0       -3.400629   -0.870579   -0.754982
     25          1           0       -4.608352   -0.875412    0.539503
     26          1           0       -5.269292    1.772777    2.103850
     27          1           0       -4.442150    3.277021    1.673005
     28          1           0       -5.612693    2.558411    0.555546
     29          1           0       -0.400434   -2.222411    2.132236
     30          1           0       -2.037889   -1.855267    1.570151
     31          1           0       -0.852603   -2.531599    0.454550
     32          1           0        1.521098   -2.314863    0.235209
     33          1           0        2.641548   -1.114661   -0.377011
     34          1           0       -0.082424   -1.784034   -1.661933
     35          1           0        1.020012   -0.517057   -2.219753
     36          1           0        1.513029   -2.215051   -2.279121
     37          6           0       -0.877097    0.212441    3.374369
     38          6           0       -1.199047    1.275684    4.388101
     39          6           0       -0.379420    1.668284    5.364712
     40          1           0        0.137183   -0.166627    3.547654
     41          1           0       -1.568686   -0.626194    3.509831
     42          1           0       -2.183604    1.730820    4.296849
     43          1           0       -0.669669    2.431487    6.080940
     44          1           0        0.610553    1.234690    5.489745
 ---------------------------------------------------------------------
                    Distance matrix (angstroms):
                    1          2          3          4          5
     1  C    0.000000
     2  C    1.538833   0.000000
     3  C    2.539618   1.562808   0.000000
     4  C    2.731895   2.553797   1.560486   0.000000
     5  C    2.423859   2.811207   2.615629   1.510553   0.000000
     6  H    1.098854   2.174215   2.711326   2.777991   2.794190
     7  H    2.111004   1.096933   2.141753   2.919884   2.838282
     8  H    3.785135   3.421417   2.189536   1.089462   2.125347
     9  H    2.956919   3.119122   2.178309   1.097555   2.091388
    10  O    1.459666   2.435772   2.970157   2.430501   1.352492
    11  O    3.533486   3.937981   3.675817   2.414996   1.213274
    12  C    1.530932   2.612504   3.955776   4.238107   3.658220
    13  C    2.587041   3.177342   4.632386   4.957584   4.150340
    14  C    2.568799   1.534206   2.595649   3.917737   4.333235
    15  O    3.748922   2.461745   1.424969   2.451023   3.449347
    16  Si   4.683141   3.402327   2.899340   3.581312   4.099766
    17  C    6.367089   5.083737   4.194973   4.709051   5.479928
    18  C    4.694818   3.893987   3.647394   3.634390   3.480551
    19  C    5.175311   3.775697   3.924255   4.987048   5.333508
    20  H    5.713481   4.890218   4.697581   4.712582   4.504986
    21  H    4.814191   4.224468   3.702791   3.254512   3.083813
    22  H    4.084071   3.490361   3.662561   3.647390   3.129651
    23  H    6.102463   4.777705   4.923052   5.846939   6.075321
    24  H    4.594902   3.314516   3.896450   4.970261   5.099581
    25  H    5.588267   4.090362   4.150705   5.419175   5.986448
    26  H    6.718037   5.335193   4.400106   5.145169   6.108592
    27  H    6.548464   5.417547   4.306796   4.494248   5.319682
    28  H    7.151007   5.874944   5.147791   5.619822   6.215646
    29  H    2.809569   2.196305   2.979079   4.218513   4.764863
    30  H    3.508117   2.171591   2.759273   4.267578   4.891041
    31  H    2.882986   2.177571   3.529680   4.721807   4.850180
    32  H    2.141357   2.889820   4.263754   4.822466   4.516311
    33  H    2.127216   3.511598   4.665224   4.645225   3.892917
    34  H    2.908741   2.933098   4.432579   5.039556   4.441801
    35  H    2.838187   3.488697   4.748328   4.786928   3.719483
    36  H    3.518224   4.190715   5.678715   6.007597   5.156858
    37  C    3.351473   2.583148   1.552995   2.530966   3.824432
    38  C    4.619198   3.939317   2.563528   2.966047   4.457751
    39  C    5.310913   4.940798   3.655860   3.680682   5.088922
    40  H    3.051751   2.759027   2.180336   2.833474   3.915642
    41  H    3.856343   2.815708   2.148824   3.466282   4.671526
    42  H    5.242268   4.343663   2.865592   3.307927   4.804768
    43  H    6.320775   5.923030   4.543385   4.433205   5.840143
    44  H    5.124050   5.025911   3.976423   3.929087   5.176242
                    6          7          8          9         10
     6  H    0.000000
     7  H    3.025356   0.000000
     8  H    3.863859   3.601649   0.000000
     9  H    2.581991   3.735753   1.751262   0.000000
    10  O    2.078509   2.517475   3.318178   2.796882   0.000000
    11  O    3.924426   3.756469   2.560229   2.938683   2.215123
    12  C    2.144047   2.888677   5.269758   4.437142   2.378272
    13  C    3.504754   2.899967   5.855380   5.424058   2.944125
    14  C    2.955308   2.141444   4.735799   4.319853   3.808868
    15  O    4.098807   2.525217   2.488498   3.274461   4.008725
    16  Si   5.314018   2.877336   3.392972   4.596210   4.672510
    17  C    6.841115   4.717313   4.143633   5.597567   6.299620
    18  C    5.478807   3.091461   3.393157   4.725341   4.138889
    19  C    5.941196   3.111443   5.075133   5.953546   5.485627
    20  H    6.542599   4.006026   4.383159   5.797661   5.129430
    21  H    5.462864   3.607635   2.792453   4.278887   4.033902
    22  H    4.994058   2.549053   3.702158   4.709301   3.479234
    23  H    6.928465   3.997245   5.825568   6.863171   6.271407
    24  H    5.456483   2.546531   5.267656   5.908062   4.990982
    25  H    6.227649   3.674446   5.527805   6.281917   6.114220
    26  H    7.095711   5.125711   4.653751   5.922885   6.858283
    27  H    6.923146   5.140653   3.719909   5.302324   6.324083
    28  H    7.722404   5.353859   5.042304   6.563524   7.006354
    29  H    2.792811   3.068686   5.099733   4.349251   4.202233
    30  H    3.884170   2.539780   4.894207   4.768902   4.598270
    31  H    3.451342   2.419167   5.569947   5.169146   4.095393
    32  H    2.438519   3.358288   5.877793   4.929477   3.327940
    33  H    2.397068   3.823329   5.681476   4.665180   2.570095
    34  H    3.896021   2.467761   5.863310   5.643397   3.429387
    35  H    3.814140   3.011732   5.580959   5.333786   2.619112
    36  H    4.301747   3.956859   6.925889   6.404470   3.894836
    37  C    3.035544   3.460726   3.052175   2.501198   4.093651
    38  C    4.208716   4.681434   3.018187   2.746772   5.070657
    39  C    4.669329   5.769006   3.722209   3.081018   5.704238
    40  H    2.419266   3.798420   3.576711   2.458099   3.944343
    41  H    3.661041   3.635162   3.941939   3.573842   4.799371
    42  H    5.010836   4.888914   3.045550   3.369009   5.571596
    43  H    5.699467   6.682609   4.245889   3.862251   6.593236
    44  H    4.304765   5.962578   4.204993   3.108223   5.602758
                   11         12         13         14         15
    11  O    0.000000
    12  C    4.577692   0.000000
    13  C    4.844415   1.532347   0.000000
    14  C    5.470450   3.044092   3.578645   0.000000
    15  O    4.250209   5.034189   5.391850   3.192683   0.000000
    16  Si   4.578112   5.744122   5.653811   4.099696   1.683637
    17  C    5.783962   7.544087   7.530890   5.664504   2.808443
    18  C    3.505470   5.635369   5.299324   5.002380   2.980727
    19  C    5.934339   5.835264   5.457814   3.862266   2.933045
    20  H    4.372662   6.538959   6.019802   5.882300   3.882355
    21  H    2.856591   5.903135   5.748636   5.511588   3.203314
    22  H    3.207405   4.818073   4.324623   4.634411   3.344970
    23  H    6.518755   6.683284   6.119739   4.905404   3.858717
    24  H    5.764428   5.021689   4.506571   3.311102   3.267316
    25  H    6.705300   6.258020   6.033966   3.826193   3.134088
    26  H    6.559381   7.897415   7.988318   5.664331   3.004364
    27  H    5.490992   7.843812   7.944979   6.187493   3.070721
    28  H    6.394788   8.228355   8.035971   6.427371   3.770100
    29  H    5.961984   3.244035   4.128696   1.094192   3.802140
    30  H    5.976118   4.094957   4.450411   1.093069   2.873508
    31  H    5.920790   2.799251   3.005586   1.092540   4.051891
    32  H    5.533754   1.095303   2.174125   2.757147   5.337537
    33  H    4.675206   1.095893   2.158566   4.052980   5.850290
    34  H    5.187945   2.194842   1.094669   3.085168   4.956264
    35  H    4.174898   2.176381   1.093168   4.249904   5.435323
    36  H    5.789683   2.168312   1.093992   4.369896   6.452123
    37  C    4.904687   4.679672   5.647265   2.926624   2.365657
    38  C    5.330974   6.041733   7.013702   4.398668   2.924621
    39  C    5.884584   6.703407   7.839178   5.410219   4.206865
    40  H    5.050935   4.266985   5.461913   3.024620   3.321383
    41  H    5.773396   4.985558   5.847072   2.597336   2.540182
    42  H    5.551493   6.685251   7.485514   4.819701   2.676387
    43  H    6.496611   7.743701   8.849513   6.425819   4.893273
    44  H    6.027819   6.406249   7.681960   5.442931   4.815361
                   16         17         18         19         20
    16  Si   0.000000
    17  C    1.881266   0.000000
    18  C    1.886395   3.093109   0.000000
    19  C    1.887502   3.077119   3.084344   0.000000
    20  H    2.470656   3.237829   1.096651   3.314507   0.000000
    21  H    2.516353   3.367666   1.094016   4.049471   1.769252
    22  H    2.521267   4.057193   1.094748   3.271418   1.763315
    23  H    2.487232   3.266535   3.304605   1.096394   3.161965
    24  H    2.520106   4.045930   3.301451   1.094982   3.635878
    25  H    2.499883   3.294463   4.040993   1.095281   4.313726
    26  H    2.493469   1.095069   4.046473   3.302398   4.256965
    27  H    2.496490   1.094996   3.293933   4.036346   3.506801
    28  H    2.492390   1.095707   3.328429   3.274211   3.098529
    29  H    4.969760   6.400944   5.922197   4.858747   6.854916
    30  H    3.657539   5.032753   4.910297   3.213489   5.697431
    31  H    4.654227   6.326878   5.362675   4.068810   6.148819
    32  H    6.165847   7.927243   6.343473   6.055998   7.246875
    33  H    6.612946   8.381238   6.328433   6.851935   7.240288
    34  H    5.053729   6.926493   4.904731   4.572970   5.552380
    35  H    5.527165   7.376019   4.817380   5.544983   5.484566
    36  H    6.684936   8.565791   6.307782   6.330953   6.959930
    37  C    4.039628   4.942067   5.099983   4.908081   6.112726
    38  C    4.521373   4.889091   5.596414   5.708818   6.551248
    39  C    5.789681   6.072071   6.706734   7.034050   7.679394
    40  H    4.958470   5.996225   5.820347   5.730476   6.877018
    41  H    4.079303   4.928554   5.431708   4.575980   6.365653
    42  H    4.054432   4.053808   5.267114   5.339176   6.114957
    43  H    6.360127   6.349995   7.268169   7.710385   8.178388
    44  H    6.458080   6.959823   7.265046   7.607113   8.292442
                   21         22         23         24         25
    21  H    0.000000
    22  H    1.765335   0.000000
    23  H    4.328067   3.562392   0.000000
    24  H    4.300354   3.113888   1.766159   0.000000
    25  H    4.917423   4.286036   1.768501   1.770398   0.000000
    26  H    4.356350   4.922447   3.587771   4.318814   3.145938
    27  H    3.201195   4.328972   4.269673   4.917568   4.307568
    28  H    3.712363   4.310849   3.085398   4.285871   3.577722
    29  H    6.316331   5.584721   5.922493   4.377745   4.696571
    30  H    5.509163   4.734666   4.270738   2.869306   2.937623
    31  H    5.987384   4.823866   5.000059   3.273284   4.105584
    32  H    6.686586   5.591498   6.958135   5.223967   6.303552
    33  H    6.457400   5.488039   7.680801   6.058907   7.311518
    34  H    5.533178   3.986085   5.207591   3.559135   5.114287
    35  H    5.177144   3.774867   6.105710   4.670396   6.278566
    36  H    6.780245   5.298598   6.933970   5.317390   6.870995
    37  C    5.101305   5.201728   5.959089   4.959102   4.810629
    38  C    5.384671   5.935130   6.671115   5.992055   5.573355
    39  C    6.355559   7.017776   7.995257   7.281772   6.901949
    40  H    5.780596   5.761405   6.802645   5.614654   5.663166
    41  H    5.622765   5.545457   5.644699   4.648051   4.257291
    42  H    5.065992   5.789387   6.207699   5.811147   5.175857
    43  H    6.828521   7.695477   8.610452   8.067938   7.560181
    44  H    6.919353   7.432137   8.616666   7.714815   7.496292
                   26         27         28         29         30
    26  H    0.000000
    27  H    1.769898   0.000000
    28  H    1.769855   1.770673   0.000000
    29  H    6.298263   6.840330   7.246369   0.000000
    30  H    4.887689   5.668459   5.769679   1.769744   0.000000
    31  H    6.383963   6.936104   6.969710   1.764847   1.762638
    32  H    8.143097   8.300407   8.645368   2.701767   3.828798
    33  H    8.779144   8.583019   9.082600   4.095985   5.122214
    34  H    7.330459   7.466143   7.372782   3.832626   3.778264
    35  H    7.968201   7.706089   7.820074   4.885254   5.050241
    36  H    9.006280   9.013673   9.033116   4.808478   5.249319
    37  C    4.831175   4.999589   5.989592   2.774637   2.979608
    38  C    4.693805   4.679190   5.984491   4.238323   4.295039
    39  C    5.878350   5.720360   7.162929   5.058345   5.437337
    40  H    5.922485   6.028541   7.031330   2.553172   3.390127
    41  H    4.628859   5.183224   5.934939   2.410496   2.343743
    42  H    3.785826   3.791613   5.142072   4.846987   4.507342
    43  H    6.116182   5.863142   7.414821   6.109298   6.371461
    44  H    6.806351   6.653453   8.051544   4.924075   5.650248
                   31         32         33         34         35
    31  H    0.000000
    32  H    2.393647   0.000000
    33  H    3.861127   1.752343   0.000000
    34  H    2.373084   2.540120   3.085306   0.000000
    35  H    3.836270   3.083834   2.526303   1.769678   0.000000
    36  H    3.628963   2.516323   2.470311   1.764133   1.769117
    37  C    4.006957   4.689663   5.311772   5.475560   5.951923
    38  C    5.485277   6.126805   6.570405   6.871072   7.197352
    39  C    6.478628   6.766775   7.059633   7.834568   8.016123
    40  H    4.017470   4.183591   4.751169   5.459306   5.845097
    41  H    3.671251   4.808484   5.750844   5.504244   6.288195
    42  H    5.890929   6.825635   7.295466   7.230230   7.601460
    43  H    7.504796   7.842186   8.077404   8.835585   8.969417
    44  H    6.455924   6.406136   6.638013   7.793549   7.916605
                   36         37         38         39         40
    36  H    0.000000
    37  C    6.600558   0.000000
    38  C    7.999527   1.503925   0.000000
    39  C    8.780082   2.515676   1.334051   0.000000
    40  H    6.327740   1.096578   2.138252   2.633530   0.000000
    41  H    6.747843   1.095424   2.127236   3.181127   1.767094
    42  H    8.513422   2.205312   1.088498   2.097457   3.089927
    43  H    9.810459   3.506097   2.117032   1.086143   3.717357
    44  H    8.548125   2.780811   2.118951   1.087972   2.441206
                   41         42         43         44
    41  H    0.000000
    42  H    2.559890   0.000000
    43  H    4.094905   2.442522   0.000000
    44  H    3.483107   3.078386   1.849542   0.000000
 Stoichiometry    C14H26O3Si
 Framework group  C1[X(C14H26O3Si)]
 Deg. of freedom   126
 Full point group                 C1      NOp   1
 Largest Abelian subgroup         C1      NOp   1
 Largest concise Abelian subgroup C1      NOp   1
                         Standard orientation:                         
 ---------------------------------------------------------------------
 Center     Atomic      Atomic             Coordinates (Angstroms)
 Number     Number       Type             X           Y           Z
 ---------------------------------------------------------------------
      1          6           0       -2.307280    0.317972   -0.170330
      2          6           0       -0.972818   -0.051215   -0.841834
      3          6           0        0.180261    0.823128   -0.251662
      4          6           0       -0.124499    1.157304    1.241845
      5          6           0       -1.126960    0.273770    1.946268
      6          1           0       -2.468149    1.403391   -0.229202
      7          1           0       -0.764842   -1.079699   -0.522100
      8          1           0        0.798370    1.165096    1.820792
      9          1           0       -0.535861    2.173155    1.300635
     10          8           0       -2.235519   -0.047242    1.241085
     11          8           0       -1.025131   -0.101711    3.095476
     12          6           0       -3.561139   -0.378594   -0.705480
     13          6           0       -3.541690   -1.908892   -0.628687
     14          6           0       -1.037977   -0.040781   -2.374620
     15          8           0        1.433099    0.153285   -0.362321
     16         14           0        2.056303   -1.377372   -0.040854
     17          6           0        3.894877   -1.069957    0.212727
     18          6           0        1.305973   -2.174083    1.495617
     19          6           0        1.807524   -2.511608   -1.528899
     20          1           0        1.868306   -3.084608    1.735137
     21          1           0        1.347486   -1.517278    2.369548
     22          1           0        0.261012   -2.467935    1.353560
     23          1           0        2.331184   -3.461658   -1.369956
     24          1           0        0.752920   -2.744975   -1.708723
     25          1           0        2.211748   -2.059358   -2.440884
     26          1           0        4.333782   -0.571236   -0.657799
     27          1           0        4.074690   -0.436861    1.087868
     28          1           0        4.432034   -2.012880    0.364159
     29          1           0       -1.413077    0.909115   -2.767372
     30          1           0       -0.045495   -0.213708   -2.798738
     31          1           0       -1.694806   -0.832912   -2.741702
     32          1           0       -3.720425   -0.047159   -1.737210
     33          1           0       -4.410519    0.002413   -0.127235
     34          1           0       -2.753967   -2.345370   -1.251005
     35          1           0       -3.384507   -2.245265    0.399498
     36          1           0       -4.496121   -2.316321   -0.974925
     37          6           0        0.361302    2.152383   -1.034030
     38          6           0        1.387975    3.076544   -0.439337
     39          6           0        1.157682    4.341974   -0.085297
     40          1           0       -0.602700    2.670105   -1.105778
     41          1           0        0.669487    1.889642   -2.051843
     42          1           0        2.383212    2.654823   -0.310958
     43          1           0        1.941715    4.971132    0.325993
     44          1           0        0.177317    4.799232   -0.201413
 ---------------------------------------------------------------------
 Rotational constants (GHZ):      0.3976474      0.3218522      0.2642795
 Standard basis: 6-311G(d) (5D, 7F)
 There are   428 symmetry adapted cartesian basis functions of A   symmetry.
 There are   410 symmetry adapted basis functions of A   symmetry.
   410 basis functions,   720 primitive gaussians,   428 cartesian basis functions
    74 alpha electrons       74 beta electrons
       nuclear repulsion energy      1643.3247030216 Hartrees.
 NAtoms=   44 NActive=   44 NUniq=   44 SFac= 1.00D+00 NAtFMM=   60 NAOKFM=F Big=F
 Integral buffers will be    131072 words long.
 Raffenetti 2 integral format.
 Two-electron integral symmetry is turned on.
 ------------------------------------------------------------------------------
 Polarizable Continuum Model (PCM)
 =================================
 Model                : PCM (using non-symmetric T matrix).
 Atomic radii         : UFF (Universal Force Field).
 Polarization charges : Total charges.
 Charge compensation  : None.
 Solution method      : On-the-fly selection.
 Cavity type          : Scaled VdW (van der Waals Surface) (Alpha=1.100).
 Cavity algorithm     : GePol (No added spheres)
                        Default sphere list used, NSphG=   44.
                        Lebedev-Laikov grids with approx.  5.0 points / Ang**2.
                        Smoothing algorithm: Karplus/York (Gamma=1.0000).
                        Polarization charges: spherical gaussians, with
                                              point-specific exponents (IZeta= 3).
                        Self-potential: point-specific (ISelfS= 7).
                        Self-field    : sphere-specific E.n sum rule (ISelfD= 2).
 Solvent              : Chloroform, Eps=   4.711300 Eps(inf)=   2.090627
 ------------------------------------------------------------------------------
 One-electron integrals computed using PRISM.
 NBasis=   410 RedAO= T EigKep=  6.25D-04  NBF=   410
 NBsUse=   410 1.00D-06 EigRej= -1.00D+00 NBFU=   410
 ExpMin= 6.54D-02 ExpMax= 6.94D+04 ExpMxC= 2.33D+03 IAcc=2 IRadAn=         4 AccDes= 0.00D+00
 Harris functional with IExCor=  908 and IRadAn=       4 diagonalized for initial guess.
 HarFok:  IExCor=  908 AccDes= 0.00D+00 IRadAn=         4 IDoV= 1 UseB2=F ITyADJ=14
 ICtDFT=  3500011 ScaDFX=  1.000000  1.000000  1.000000  1.000000
 FoFCou: FMM=F IPFlag=           0 FMFlag=      100000 FMFlg1=           0
         NFxFlg=           0 DoJE=T BraDBF=F KetDBF=T FulRan=T
         wScrn=  0.000000 ICntrl=     500 IOpCl=  0 I1Cent=   200000004 NGrid=           0
         NMat0=    1 NMatS0=      1 NMatT0=    0 NMatD0=    1 NMtDS0=    0 NMtDT0=    0
 Petite list used in FoFCou.
 Requested convergence on RMS density matrix=1.00D-08 within 128 cycles.
 Requested convergence on MAX density matrix=1.00D-06.
 Requested convergence on             energy=1.00D-06.
 No special actions if energy rises.
 Inv3:  Mode=1 IEnd=    24043683.
 Iteration    1 A*A^-1 deviation from unit magnitude is 5.77D-15 for   2815.
 Iteration    1 A*A^-1 deviation from orthogonality  is 4.29D-15 for   2822   1319.
 Iteration    1 A^-1*A deviation from unit magnitude is 5.33D-15 for   2815.
 Iteration    1 A^-1*A deviation from orthogonality  is 1.24D-12 for   2183   2179.
 Error on total polarization charges =  0.01117
 SCF Done:  E(RmPW1PW91) =  -1064.38257552     A.U. after   12 cycles
            NFock= 12  Conv=0.91D-08     -V/T= 2.0036
 DoSCS=F DFT=T ScalE2(SS,OS)=  1.000000  1.000000
 Range of M.O.s used for correlation:     1   410
 NBasis=   410 NAE=    74 NBE=    74 NFC=     0 NFV=     0
 NROrb=    410 NOA=    74 NOB=    74 NVA=   336 NVB=   336
 NEqPCM:  Using equilibrium solvation (IEInf=0, Eps=   4.7113, EpsInf=   2.0906)
          Differentiating once with respect to magnetic field using GIAOs.
          Electric field/nuclear overlap derivatives assumed to be zero.
 FoFJK:  IHMeth= 1 ICntrl=    6127 DoSepK=F KAlg= 0 I1Cent=   0 FoldK=F
 IRaf=         1 NMat=   1 IRICut=       1 DoRegI=T DoRafI=F ISym2E= 0.
          There are     3 degrees of freedom in the 1st order CPHF.  IDoFFX=0 NUNeed=     3.
      3 vectors produced by pass  0 Test12= 8.29D-13 3.33D-08 XBig12= 3.52D+01 9.97D-01.
 AX will form     3 AO Fock derivatives at one time.
      3 vectors produced by pass  1 Test12= 8.29D-13 3.33D-08 XBig12= 7.57D-02 1.13D-01.
      3 vectors produced by pass  2 Test12= 8.29D-13 3.33D-08 XBig12= 7.04D-04 1.07D-02.
      3 vectors produced by pass  3 Test12= 8.29D-13 3.33D-08 XBig12= 3.98D-06 5.10D-04.
      3 vectors produced by pass  4 Test12= 8.29D-13 3.33D-08 XBig12= 1.06D-08 2.01D-05.
      3 vectors produced by pass  5 Test12= 8.29D-13 3.33D-08 XBig12= 3.63D-11 1.05D-06.
      1 vectors produced by pass  6 Test12= 8.29D-13 3.33D-08 XBig12= 1.26D-13 7.17D-08.
 InvSVY:  IOpt=1 It=  1 EMax= 1.78D-15
 Solved reduced A of dimension    19 with     3 vectors.
 Calculating GIAO nuclear magnetic shielding tensors.
 SCF GIAO Magnetic shielding tensor (ppm):
      1  C    Isotropic =   106.7759   Anisotropy =    54.8115
   XX=    99.8846   YX=     5.0236   ZX=    -1.2873
   XY=     2.1092   YY=    78.7172   ZY=   -10.5736
   XZ=     4.9620   YZ=    -9.4573   ZZ=   141.7260
   Eigenvalues:    76.5423   100.4685   143.3169
      2  C    Isotropic =   140.3098   Anisotropy =    16.7848
   XX=   150.1932   YX=    -2.7858   ZX=    -0.8929
   XY=    -1.3544   YY=   138.3139   ZY=    -9.3797
   XZ=     8.4551   YZ=     3.4101   ZZ=   132.4222
   Eigenvalues:   130.7752   138.6545   151.4996
      3  C    Isotropic =   106.0968   Anisotropy =    55.4699
   XX=   129.7629   YX=   -25.4140   ZX=    -0.0267
   XY=   -21.0740   YY=   102.4889   ZY=     2.2824
   XZ=     1.9306   YZ=     2.3257   ZZ=    86.0386
   Eigenvalues:    84.6780    90.5356   143.0767
      4  C    Isotropic =   140.4719   Anisotropy =    25.0926
   XX=   147.1080   YX=     3.9182   ZX=    -7.5045
   XY=     3.7600   YY=   123.3196   ZY=    -4.1583
   XZ=    -7.8005   YZ=     2.6913   ZZ=   150.9882
   Eigenvalues:   122.7070   141.5084   157.2003
      5  C    Isotropic =     9.6704   Anisotropy =    98.4438
   XX=   -52.5289   YX=   -59.0800   ZX=   -23.3388
   XY=   -53.4212   YY=    45.5525   ZY=     3.1244
   XZ=   -36.1026   YZ=    -3.8398   ZZ=    35.9876
   Eigenvalues:   -84.3130    38.0247    75.2996
      6  H    Isotropic =    28.0486   Anisotropy =     2.9231
   XX=    29.3327   YX=    -0.3957   ZX=     0.8473
   XY=    -0.4910   YY=    29.6118   ZY=     0.2768
   XZ=     0.5315   YZ=    -0.5679   ZZ=    25.2013
   Eigenvalues:    25.0882    29.0604    29.9973
      7  H    Isotropic =    30.2219   Anisotropy =     4.9661
   XX=    32.3463   YX=    -1.1144   ZX=     1.2372
   XY=    -1.3703   YY=    31.1706   ZY=    -0.8996
   XZ=     1.3590   YZ=    -0.9713   ZZ=    27.1487
   Eigenvalues:    26.7467    30.3863    33.5326
      8  H    Isotropic =    29.8098   Anisotropy =     4.4525
   XX=    29.5074   YX=     0.3470   ZX=     2.0798
   XY=     0.7106   YY=    27.8849   ZY=     0.9166
   XZ=     0.9687   YZ=    -0.6395   ZZ=    32.0369
   Eigenvalues:    27.6994    28.9518    32.7781
      9  H    Isotropic =    29.4424   Anisotropy =     5.2405
   XX=    26.9279   YX=    -0.6788   ZX=    -2.4618
   XY=     0.1857   YY=    32.3125   ZY=     1.0588
   XZ=    -2.0735   YZ=     1.4654   ZZ=    29.0868
   Eigenvalues:    25.4629    29.9282    32.9361
     10  O    Isotropic =    84.9403   Anisotropy =   183.2617
   XX=   186.6702   YX=   -14.1474   ZX=   -14.1782
   XY=   -34.4414   YY=   146.9588   ZY=    94.7609
   XZ=    17.0815   YZ=    97.8171   ZZ=   -78.8082
   Eigenvalues:  -114.6149   162.3210   207.1147
     11  O    Isotropic =  -104.0481   Anisotropy =   571.2647
   XX=  -163.8107   YX=  -173.9859   ZX=  -171.5152
   XY=  -184.6474   YY=   127.9164   ZY=   126.4020
   XZ=  -145.6572   YZ=   132.5580   ZZ=  -276.2500
   Eigenvalues:  -388.3009  -200.6384   276.7950
     12  C    Isotropic =   161.4712   Anisotropy =    19.0634
   XX=   166.9015   YX=     5.7243   ZX=     7.0791
   XY=     9.8946   YY=   161.6289   ZY=     4.7578
   XZ=     4.4659   YZ=    -2.0137   ZZ=   155.8832
   Eigenvalues:   152.7878   157.4457   174.1801
     13  C    Isotropic =   181.1093   Anisotropy =    12.5315
   XX=   180.0809   YX=     0.5242   ZX=    -0.5344
   XY=     1.2553   YY=   189.3793   ZY=    -0.2662
   XZ=     0.5346   YZ=     0.2314   ZZ=   173.8679
   Eigenvalues:   173.8678   179.9965   189.4637
     14  C    Isotropic =   177.1837   Anisotropy =     9.5278
   XX=   175.0859   YX=     1.5106   ZX=     1.6841
   XY=     2.9629   YY=   172.9601   ZY=     0.0516
   XZ=    -0.7510   YZ=    -0.7293   ZZ=   183.5052
   Eigenvalues:   171.5226   176.4930   183.5356
     15  O    Isotropic =   240.1738   Anisotropy =    13.0561
   XX=   245.5763   YX=     3.4527   ZX=    -1.1714
   XY=    -7.6015   YY=   235.8455   ZY=     6.9417
   XZ=    -6.6508   YZ=     3.6801   ZZ=   239.0996
   Eigenvalues:   231.8819   239.7616   248.8778
     16  Si   Isotropic =   333.8444   Anisotropy =    39.1733
   XX=   332.5507   YX=   -21.6919   ZX=    12.8829
   XY=    -3.1221   YY=   349.8163   ZY=   -10.6872
   XZ=     5.2489   YZ=    -7.2675   ZZ=   319.1662
   Eigenvalues:   314.3589   327.2144   359.9599
     17  C    Isotropic =   186.4221   Anisotropy =    13.3507
   XX=   194.6796   YX=     0.9704   ZX=     3.7807
   XY=     0.6338   YY=   187.2409   ZY=    -0.1334
   XZ=     2.5771   YZ=     0.2024   ZZ=   177.3457
   Eigenvalues:   176.7800   187.1636   195.3226
     18  C    Isotropic =   186.2398   Anisotropy =     7.8799
   XX=   185.4414   YX=    -3.7939   ZX=    -4.0618
   XY=    -1.7489   YY=   184.8863   ZY=    -3.1047
   XZ=    -4.5693   YZ=    -1.5625   ZZ=   188.3916
   Eigenvalues:   179.7918   187.4345   191.4930
     19  C    Isotropic =   185.4356   Anisotropy =    10.8955
   XX=   180.3572   YX=    -1.6798   ZX=     1.9409
   XY=    -2.6620   YY=   187.1935   ZY=     5.3077
   XZ=     4.1234   YZ=     3.8553   ZZ=   188.7560
   Eigenvalues:   177.8949   185.7126   192.6992
     20  H    Isotropic =    32.2272   Anisotropy =    10.5599
   XX=    30.9272   YX=    -3.9613   ZX=     1.2333
   XY=    -3.7944   YY=    35.5422   ZY=    -3.8306
   XZ=     0.8914   YZ=    -3.4621   ZZ=    30.2123
   Eigenvalues:    27.8941    29.5204    39.2672
     21  H    Isotropic =    31.8518   Anisotropy =     7.5225
   XX=    29.2521   YX=    -1.6730   ZX=     0.2131
   XY=    -1.9370   YY=    30.6437   ZY=     2.3651
   XZ=     0.1930   YZ=     3.0095   ZZ=    35.6595
   Eigenvalues:    27.6075    31.0810    36.8668
     22  H    Isotropic =    32.0587   Anisotropy =     6.9957
   XX=    36.5556   YX=     0.7572   ZX=     0.5413
   XY=     1.2529   YY=    30.6644   ZY=    -1.1097
   XZ=    -0.0370   YZ=    -1.4823   ZZ=    28.9562
   Eigenvalues:    28.1985    31.2552    36.7225
     23  H    Isotropic =    32.2611   Anisotropy =    10.3306
   XX=    30.7233   YX=    -4.1975   ZX=     0.0505
   XY=    -4.2565   YY=    36.9354   ZY=     1.1717
   XZ=     0.2184   YZ=     0.8830   ZZ=    29.1246
   Eigenvalues:    28.1905    29.4447    39.1482
     24  H    Isotropic =    31.9753   Anisotropy =     7.2843
   XX=    36.1895   YX=     0.0659   ZX=     1.5243
   XY=     0.6027   YY=    30.7041   ZY=     2.2236
   XZ=     2.4383   YZ=     2.0461   ZZ=    29.0322
   Eigenvalues:    27.3276    31.7668    36.8314
     25  H    Isotropic =    31.9220   Anisotropy =     7.9548
   XX=    30.2930   YX=    -0.1286   ZX=    -2.7975
   XY=    -0.2087   YY=    29.5568   ZY=    -0.4539
   XZ=    -2.9997   YZ=    -1.4109   ZZ=    35.9163
   Eigenvalues:    28.7155    29.8254    37.2252
     26  H    Isotropic =    31.8951   Anisotropy =     8.4789
   XX=    33.7170   YX=     2.2178   ZX=    -3.3620
   XY=     1.7231   YY=    29.8140   ZY=    -2.9608
   XZ=    -2.8492   YZ=    -2.6364   ZZ=    32.1542
   Eigenvalues:    27.9489    30.1887    37.5477
     27  H    Isotropic =    31.9568   Anisotropy =     8.4279
   XX=    32.1098   YX=     1.8959   ZX=     3.0351
   XY=     1.0415   YY=    30.8741   ZY=     3.9383
   XZ=     2.4650   YZ=     3.7149   ZZ=    32.8866
   Eigenvalues:    27.8375    30.4576    37.5754
     28  H    Isotropic =    32.3624   Anisotropy =    10.2387
   XX=    34.5395   YX=    -4.4186   ZX=     1.2520
   XY=    -4.7994   YY=    34.1203   ZY=    -1.0550
   XZ=     1.2603   YZ=    -1.0110   ZZ=    28.4272
   Eigenvalues:    28.1735    29.7254    39.1882
     29  H    Isotropic =    31.3706   Anisotropy =     8.6967
   XX=    29.0592   YX=    -1.1678   ZX=     2.8367
   XY=    -1.0178   YY=    32.3497   ZY=    -3.7247
   XZ=     2.4569   YZ=    -3.7655   ZZ=    32.7028
   Eigenvalues:    27.4456    29.4977    37.1684
     30  H    Isotropic =    30.8455   Anisotropy =     7.2501
   XX=    32.9922   YX=    -1.7457   ZX=    -2.1006
   XY=    -1.6245   YY=    26.9472   ZY=     1.2758
   XZ=    -2.6373   YZ=     1.2738   ZZ=    32.5971
   Eigenvalues:    26.4308    30.4268    35.6789
     31  H    Isotropic =    31.1731   Anisotropy =     8.3661
   XX=    30.9903   YX=     3.8698   ZX=     1.5229
   XY=     3.8688   YY=    30.0901   ZY=     2.7305
   XZ=     1.5630   YZ=     3.1546   ZZ=    32.4389
   Eigenvalues:    26.3634    30.4053    36.7505
     32  H    Isotropic =    30.4990   Anisotropy =     7.1655
   XX=    31.4209   YX=     0.1063   ZX=     2.9033
   XY=    -0.1592   YY=    28.1199   ZY=    -2.8957
   XZ=     2.8958   YZ=    -2.7743   ZZ=    31.9563
   Eigenvalues:    26.2008    30.0203    35.2760
     33  H    Isotropic =    30.1655   Anisotropy =     9.9617
   XX=    35.2043   YX=    -2.3553   ZX=    -2.5610
   XY=    -2.4470   YY=    29.5565   ZY=     1.9915
   XZ=    -1.9215   YZ=     2.0593   ZZ=    25.7358
   Eigenvalues:    24.7229    28.9670    36.8067
     34  H    Isotropic =    31.2432   Anisotropy =     6.1814
   XX=    32.3960   YX=    -0.1125   ZX=    -2.8700
   XY=    -0.5998   YY=    32.8931   ZY=     3.2095
   XZ=    -2.6580   YZ=     2.6271   ZZ=    28.4404
   Eigenvalues:    26.1005    32.2649    35.3641
     35  H    Isotropic =    30.8022   Anisotropy =     7.5271
   XX=    28.0254   YX=     2.3779   ZX=     0.6725
   XY=     2.0122   YY=    31.5356   ZY=    -3.7747
   XZ=     0.7567   YZ=    -3.1596   ZZ=    32.8456
   Eigenvalues:    26.1306    30.4558    35.8203
     36  H    Isotropic =    31.2137   Anisotropy =    12.0473
   XX=    34.9662   YX=     4.7279   ZX=     2.3937
   XY=     5.2702   YY=    31.7472   ZY=     1.5694
   XZ=     2.4575   YZ=     1.2813   ZZ=    26.9276
   Eigenvalues:    26.2520    28.1438    39.2452
     37  C    Isotropic =   140.2594   Anisotropy =    14.4544
   XX=   134.6181   YX=     5.8378   ZX=    -1.3388
   XY=    -0.6106   YY=   147.4081   ZY=    -9.3802
   XZ=     5.3755   YZ=    -0.7323   ZZ=   138.7519
   Eigenvalues:   132.3707   138.5118   149.8956
     38  C    Isotropic =    44.9450   Anisotropy =   180.7996
   XX=   -63.2323   YX=    10.2077   ZX=   -56.6180
   XY=     4.3437   YY=    60.3122   ZY=   -35.4884
   XZ=   -58.7096   YZ=   -35.2336   ZZ=   137.7551
   Eigenvalues:   -78.6333    47.9903   165.4781
     39  C    Isotropic =    65.7159   Anisotropy =   138.9497
   XX=   -31.6058   YX=    -4.6415   ZX=   -52.7385
   XY=    -3.8391   YY=    94.6937   ZY=   -22.3072
   XZ=   -55.8382   YZ=   -27.3465   ZZ=   134.0598
   Eigenvalues:   -48.6960    87.4947   158.3490
     40  H    Isotropic =    30.1694   Anisotropy =     6.5542
   XX=    29.9727   YX=    -1.1082   ZX=     1.8192
   XY=     0.0216   YY=    34.1866   ZY=    -1.0831
   XZ=     2.0185   YZ=    -1.3748   ZZ=    26.3488
   Eigenvalues:    25.4244    30.5449    34.5389
     41  H    Isotropic =    29.5518   Anisotropy =     3.5127
   XX=    26.8626   YX=     2.4673   ZX=    -0.7686
   XY=     2.9734   YY=    30.1498   ZY=    -0.8979
   XZ=    -0.4188   YZ=     1.0961   ZZ=    31.6431
   Eigenvalues:    25.2776    31.4843    31.8936
     42  H    Isotropic =    25.6535   Anisotropy =     7.6516
   XX=    24.2986   YX=     3.2634   ZX=    -0.2466
   XY=     1.4871   YY=    29.8667   ZY=     0.5406
   XZ=    -0.6943   YZ=     0.4708   ZZ=    22.7951
   Eigenvalues:    22.4089    23.7970    30.7545
     43  H    Isotropic =    26.7109   Anisotropy =     6.8758
   XX=    23.8513   YX=     0.0487   ZX=    -0.6349
   XY=     2.3072   YY=    30.9035   ZY=     1.5897
   XZ=    -0.0976   YZ=     0.7252   ZZ=    25.3780
   Eigenvalues:    23.4873    25.3507    31.2948
     44  H    Isotropic =    26.8088   Anisotropy =     7.3732
   XX=    23.3372   YX=     0.4609   ZX=    -0.3125
   XY=    -1.5997   YY=    31.6323   ZY=     0.1821
   XZ=    -1.2714   YZ=     0.8594   ZZ=    25.4568
   Eigenvalues:    23.0572    25.6449    31.7242
 End of Minotr F.D. properties file   721 does not exist.
 End of Minotr F.D. properties file   722 does not exist.
 End of Minotr F.D. properties file   788 does not exist.

 **********************************************************************

            Population analysis using the SCF density.

 **********************************************************************

 Orbital symmetries:
       Occupied  (A) (A) (A) (A) (A) (A) (A) (A) (A) (A) (A) (A)
                 (A) (A) (A) (A) (A) (A) (A) (A) (A) (A) (A) (A)
                 (A) (A) (A) (A) (A) (A) (A) (A) (A) (A) (A) (A)
                 (A) (A) (A) (A) (A) (A) (A) (A) (A) (A) (A) (A)
                 (A) (A) (A) (A) (A) (A) (A) (A) (A) (A) (A) (A)
                 (A) (A) (A) (A) (A) (A) (A) (A) (A) (A) (A) (A)
                 (A) (A)
       Virtual   (A) (A) (A) (A) (A) (A) (A) (A) (A) (A) (A) (A)
                 (A) (A) (A) (A) (A) (A) (A) (A) (A) (A) (A) (A)
                 (A) (A) (A) (A) (A) (A) (A) (A) (A) (A) (A) (A)
                 (A) (A) (A) (A) (A) (A) (A) (A) (A) (A) (A) (A)
                 (A) (A) (A) (A) (A) (A) (A) (A) (A) (A) (A) (A)
                 (A) (A) (A) (A) (A) (A) (A) (A) (A) (A) (A) (A)
                 (A) (A) (A) (A) (A) (A) (A) (A) (A) (A) (A) (A)
                 (A) (A) (A) (A) (A) (A) (A) (A) (A) (A) (A) (A)
                 (A) (A) (A) (A) (A) (A) (A) (A) (A) (A) (A) (A)
                 (A) (A) (A) (A) (A) (A) (A) (A) (A) (A) (A) (A)
                 (A) (A) (A) (A) (A) (A) (A) (A) (A) (A) (A) (A)
                 (A) (A) (A) (A) (A) (A) (A) (A) (A) (A) (A) (A)
                 (A) (A) (A) (A) (A) (A) (A) (A) (A) (A) (A) (A)
                 (A) (A) (A) (A) (A) (A) (A) (A) (A) (A) (A) (A)
                 (A) (A) (A) (A) (A) (A) (A) (A) (A) (A) (A) (A)
                 (A) (A) (A) (A) (A) (A) (A) (A) (A) (A) (A) (A)
                 (A) (A) (A) (A) (A) (A) (A) (A) (A) (A) (A) (A)
                 (A) (A) (A) (A) (A) (A) (A) (A) (A) (A) (A) (A)
                 (A) (A) (A) (A) (A) (A) (A) (A) (A) (A) (A) (A)
                 (A) (A) (A) (A) (A) (A) (A) (A) (A) (A) (A) (A)
                 (A) (A) (A) (A) (A) (A) (A) (A) (A) (A) (A) (A)
                 (A) (A) (A) (A) (A) (A) (A) (A) (A) (A) (A) (A)
                 (A) (A) (A) (A) (A) (A) (A) (A) (A) (A) (A) (A)
                 (A) (A) (A) (A) (A) (A) (A) (A) (A) (A) (A) (A)
                 (A) (A) (A) (A) (A) (A) (A) (A) (A) (A) (A) (A)
                 (A) (A) (A) (A) (A) (A) (A) (A) (A) (A) (A) (A)
                 (A) (A) (A) (A) (A) (A) (A) (A) (A) (A) (A) (A)
                 (A) (A) (A) (A) (A) (A) (A) (A) (A) (A) (A) (A)
 The electronic state is 1-A.
 Alpha  occ. eigenvalues --  -66.27273 -19.25918 -19.20490 -19.19628 -10.36659
 Alpha  occ. eigenvalues --  -10.32072 -10.30700 -10.25690 -10.24922 -10.24066
 Alpha  occ. eigenvalues --  -10.24063 -10.24037 -10.23156 -10.22793 -10.22325
 Alpha  occ. eigenvalues --  -10.20735 -10.20623 -10.20533  -5.33008  -3.66900
 Alpha  occ. eigenvalues --   -3.66599  -3.66586  -1.13296  -1.04896  -1.03877
 Alpha  occ. eigenvalues --   -0.85918  -0.83211  -0.80319  -0.77607  -0.73960
 Alpha  occ. eigenvalues --   -0.72520  -0.72392  -0.70096  -0.70034  -0.67279
 Alpha  occ. eigenvalues --   -0.62739  -0.62337  -0.58470  -0.56157  -0.54153
 Alpha  occ. eigenvalues --   -0.52727  -0.50615  -0.49079  -0.48343  -0.46432
 Alpha  occ. eigenvalues --   -0.45999  -0.45467  -0.44841  -0.44489  -0.43356
 Alpha  occ. eigenvalues --   -0.42750  -0.42503  -0.42141  -0.41952  -0.40840
 Alpha  occ. eigenvalues --   -0.40677  -0.40437  -0.39990  -0.39472  -0.38979
 Alpha  occ. eigenvalues --   -0.38301  -0.38061  -0.37508  -0.36501  -0.36177
 Alpha  occ. eigenvalues --   -0.35674  -0.35124  -0.33373  -0.32500  -0.30971
 Alpha  occ. eigenvalues --   -0.30211  -0.28623  -0.28261  -0.27198
 Alpha virt. eigenvalues --    0.00622   0.01278   0.03691   0.05043   0.05677
 Alpha virt. eigenvalues --    0.06625   0.07709   0.08147   0.08396   0.08962
 Alpha virt. eigenvalues --    0.09347   0.10005   0.10260   0.10885   0.11814
 Alpha virt. eigenvalues --    0.12064   0.12259   0.12897   0.13235   0.13371
 Alpha virt. eigenvalues --    0.13928   0.14592   0.14840   0.15158   0.15281
 Alpha virt. eigenvalues --    0.15803   0.16714   0.17526   0.18082   0.18182
 Alpha virt. eigenvalues --    0.18602   0.19060   0.19999   0.20283   0.20684
 Alpha virt. eigenvalues --    0.21500   0.23000   0.23413   0.23895   0.24112
 Alpha virt. eigenvalues --    0.24615   0.25828   0.26791   0.27413   0.28294
 Alpha virt. eigenvalues --    0.28858   0.31134   0.31935   0.32552   0.33097
 Alpha virt. eigenvalues --    0.33378   0.34348   0.34950   0.35308   0.35936
 Alpha virt. eigenvalues --    0.36750   0.38243   0.38913   0.39844   0.40312
 Alpha virt. eigenvalues --    0.41044   0.42385   0.42978   0.44393   0.45080
 Alpha virt. eigenvalues --    0.45186   0.45421   0.46277   0.46843   0.48731
 Alpha virt. eigenvalues --    0.49435   0.50778   0.51480   0.52062   0.52320
 Alpha virt. eigenvalues --    0.53347   0.53663   0.54355   0.55116   0.55470
 Alpha virt. eigenvalues --    0.56370   0.57016   0.57610   0.58230   0.59025
 Alpha virt. eigenvalues --    0.59549   0.59879   0.60213   0.60615   0.60977
 Alpha virt. eigenvalues --    0.61591   0.62199   0.62465   0.62652   0.63222
 Alpha virt. eigenvalues --    0.63382   0.64011   0.64389   0.64992   0.65163
 Alpha virt. eigenvalues --    0.65878   0.66208   0.67186   0.67516   0.68504
 Alpha virt. eigenvalues --    0.69087   0.69180   0.69561   0.70697   0.71186
 Alpha virt. eigenvalues --    0.71826   0.72297   0.73212   0.74587   0.74721
 Alpha virt. eigenvalues --    0.76510   0.76924   0.77827   0.79555   0.82148
 Alpha virt. eigenvalues --    0.83848   0.84703   0.85606   0.87146   0.88629
 Alpha virt. eigenvalues --    0.89279   0.91367   0.92687   0.93434   0.94272
 Alpha virt. eigenvalues --    0.95084   0.95856   0.96538   0.97696   0.98775
 Alpha virt. eigenvalues --    1.02119   1.03654   1.06283   1.07762   1.11056
 Alpha virt. eigenvalues --    1.12075   1.15512   1.17022   1.19019   1.21410
 Alpha virt. eigenvalues --    1.22223   1.23988   1.25612   1.27132   1.27919
 Alpha virt. eigenvalues --    1.29809   1.30280   1.32135   1.32931   1.33675
 Alpha virt. eigenvalues --    1.37015   1.37515   1.39303   1.40708   1.41503
 Alpha virt. eigenvalues --    1.43054   1.45071   1.46128   1.48116   1.48929
 Alpha virt. eigenvalues --    1.50365   1.51559   1.52326   1.52956   1.54446
 Alpha virt. eigenvalues --    1.55213   1.56279   1.57436   1.57841   1.58452
 Alpha virt. eigenvalues --    1.58909   1.59157   1.60002   1.60434   1.60542
 Alpha virt. eigenvalues --    1.61900   1.62850   1.63141   1.63804   1.64364
 Alpha virt. eigenvalues --    1.65301   1.65859   1.67480   1.68295   1.69006
 Alpha virt. eigenvalues --    1.70914   1.71643   1.72819   1.73984   1.74290
 Alpha virt. eigenvalues --    1.76357   1.77771   1.79351   1.80359   1.80624
 Alpha virt. eigenvalues --    1.81692   1.82942   1.84061   1.85953   1.87134
 Alpha virt. eigenvalues --    1.88729   1.91350   1.93522   1.93708   1.96769
 Alpha virt. eigenvalues --    1.99939   2.01908   2.03990   2.08481   2.11908
 Alpha virt. eigenvalues --    2.16387   2.17031   2.20017   2.22816   2.24249
 Alpha virt. eigenvalues --    2.28721   2.30864   2.34724   2.37272   2.39619
 Alpha virt. eigenvalues --    2.41574   2.42313   2.42662   2.43179   2.43918
 Alpha virt. eigenvalues --    2.44873   2.45248   2.46077   2.47166   2.47776
 Alpha virt. eigenvalues --    2.47959   2.48674   2.49448   2.51984   2.53331
 Alpha virt. eigenvalues --    2.53583   2.54553   2.56583   2.57172   2.57972
 Alpha virt. eigenvalues --    2.61817   2.64795   2.68813   2.72087   2.80694
 Alpha virt. eigenvalues --    2.81232   2.87927   2.89182   2.90769   2.90880
 Alpha virt. eigenvalues --    2.91750   2.92537   2.93276   2.93937   2.96781
 Alpha virt. eigenvalues --    2.98434   3.00971   3.02389   3.04704   3.07993
 Alpha virt. eigenvalues --    3.10324   3.10378   3.10979   3.13314   3.15377
 Alpha virt. eigenvalues --    3.15639   3.16693   3.17285   3.20573   3.21772
 Alpha virt. eigenvalues --    3.21987   3.23016   3.23412   3.24265   3.25469
 Alpha virt. eigenvalues --    3.27432   3.27485   3.28197   3.29964   3.32599
 Alpha virt. eigenvalues --    3.34289   3.35105   3.36200   3.39404   3.39797
 Alpha virt. eigenvalues --    3.46377   3.51245   3.56739   3.59502   3.62154
 Alpha virt. eigenvalues --    3.76136   3.86940   3.91997   3.96931   4.04767
 Alpha virt. eigenvalues --    4.07232   4.12829   4.19866   4.23782   4.25912
 Alpha virt. eigenvalues --    4.96918   5.01122   5.02340   5.10708   5.16770
 Alpha virt. eigenvalues --    5.25910   5.53142   5.55189   5.77515   5.84824
 Alpha virt. eigenvalues --   11.52934  11.52983  11.57777  23.41558  23.49686
 Alpha virt. eigenvalues --   23.54214  23.54913  23.57946  23.61174  23.72504
 Alpha virt. eigenvalues --   23.74980  23.77697  23.80341  23.82755  23.86207
 Alpha virt. eigenvalues --   23.90897  24.29359  49.99569  50.05493  50.13284
 Alpha virt. eigenvalues --  141.28936
          Condensed to atoms (all electrons):
               1          2          3          4          5          6
     1  C    5.232698   0.270570  -0.064705  -0.029078  -0.065145   0.396134
     2  C    0.270570   5.529424   0.359999  -0.049572  -0.015580  -0.056560
     3  C   -0.064705   0.359999   5.074110   0.214343  -0.024357  -0.009163
     4  C   -0.029078  -0.049572   0.214343   5.885941   0.258964   0.001558
     5  C   -0.065145  -0.015580  -0.024357   0.258964   4.392762  -0.005357
     6  H    0.396134  -0.056560  -0.009163   0.001558  -0.005357   0.482156
     7  H   -0.052448   0.396843  -0.050814  -0.002990   0.000875   0.008518
     8  H    0.000324   0.004795  -0.023876   0.365418  -0.024829  -0.000253
     9  H   -0.000469   0.003239  -0.040308   0.361103  -0.027407   0.000626
    10  O    0.199273  -0.031928   0.000258  -0.103725   0.338156  -0.027525
    11  O    0.003901  -0.001528   0.004508  -0.093773   0.666804  -0.000202
    12  C    0.336000  -0.045439   0.006519  -0.000490   0.003040  -0.047307
    13  C   -0.076962  -0.005558  -0.000219  -0.000123  -0.000152   0.007689
    14  C   -0.054521   0.261568  -0.056967   0.006862   0.000305   0.002701
    15  O    0.004200  -0.035623   0.221804  -0.049494   0.001271   0.000094
    16  Si   0.002478  -0.001009  -0.045993  -0.009929  -0.000072   0.000153
    17  C    0.000004  -0.000043   0.002142  -0.000217  -0.000007   0.000000
    18  C   -0.000171  -0.001870  -0.002459   0.002061  -0.004624  -0.000026
    19  C    0.000018  -0.002498   0.001383  -0.000241  -0.000065  -0.000006
    20  H    0.000004   0.000073  -0.000003   0.000010   0.000171   0.000000
    21  H   -0.000001   0.000294   0.000149  -0.001367  -0.000953  -0.000008
    22  H   -0.000244  -0.000489  -0.000064   0.001058   0.000794  -0.000002
    23  H    0.000001   0.000082  -0.000077   0.000003  -0.000001   0.000000
    24  H   -0.000021  -0.000689   0.000425  -0.000022  -0.000001  -0.000010
    25  H   -0.000021   0.000006   0.000329  -0.000044   0.000000   0.000001
    26  H    0.000000  -0.000024  -0.000056  -0.000039   0.000001   0.000000
    27  H    0.000001  -0.000010  -0.000043   0.000107  -0.000001   0.000000
    28  H    0.000000   0.000006  -0.000049  -0.000006   0.000000   0.000000
    29  H   -0.002976  -0.038261  -0.008822  -0.000198   0.000019   0.002370
    30  H    0.006109  -0.039045  -0.003212   0.000670  -0.000084  -0.000321
    31  H   -0.007684  -0.030501   0.006508  -0.000222  -0.000035  -0.000467
    32  H   -0.037533  -0.008662  -0.000263   0.000090  -0.000047  -0.000164
    33  H   -0.046637   0.009084  -0.000164   0.000145  -0.000226  -0.007591
    34  H   -0.008123   0.006164   0.000389  -0.000011  -0.000056  -0.000462
    35  H   -0.008812  -0.000481  -0.000263   0.000459   0.000477   0.000448
    36  H    0.008033  -0.000307   0.000003  -0.000001   0.000011  -0.000164
    37  C    0.000028  -0.080501   0.308779  -0.077193   0.003744   0.004593
    38  C   -0.000390   0.008665  -0.050162  -0.026357   0.000372  -0.000248
    39  C   -0.000024  -0.000076  -0.003297   0.001517   0.000035  -0.000054
    40  H    0.000810  -0.002180  -0.041236   0.001066  -0.000283   0.005236
    41  H    0.000655  -0.012583  -0.040188   0.007619  -0.000135  -0.000142
    42  H   -0.000037   0.000158  -0.002438  -0.000475  -0.000024   0.000005
    43  H   -0.000001   0.000017  -0.000344   0.000081   0.000000  -0.000004
    44  H   -0.000006  -0.000055   0.000146  -0.000025  -0.000003   0.000009
               7          8          9         10         11         12
     1  C   -0.052448   0.000324  -0.000469   0.199273   0.003901   0.336000
     2  C    0.396843   0.004795   0.003239  -0.031928  -0.001528  -0.045439
     3  C   -0.050814  -0.023876  -0.040308   0.000258   0.004508   0.006519
     4  C   -0.002990   0.365418   0.361103  -0.103725  -0.093773  -0.000490
     5  C    0.000875  -0.024829  -0.027407   0.338156   0.666804   0.003040
     6  H    0.008518  -0.000253   0.000626  -0.027525  -0.000202  -0.047307
     7  H    0.471841  -0.000381  -0.000178   0.004870  -0.001060  -0.009476
     8  H   -0.000381   0.399350  -0.013160   0.004376   0.007142   0.000104
     9  H   -0.000178  -0.013160   0.420683   0.000305   0.000732   0.000119
    10  O    0.004870   0.004376   0.000305   8.048334  -0.076092  -0.054916
    11  O   -0.001060   0.007142   0.000732  -0.076092   7.866903  -0.000135
    12  C   -0.009476   0.000104   0.000119  -0.054916  -0.000135   5.310378
    13  C    0.002900   0.000002  -0.000004  -0.002076  -0.000029   0.293441
    14  C   -0.035874  -0.000178  -0.000382   0.004638  -0.000007  -0.009118
    15  O   -0.006094  -0.001789   0.003343  -0.000041   0.000000  -0.000085
    16  Si   0.007376  -0.000569   0.000881  -0.000900  -0.001538  -0.000394
    17  C   -0.000116  -0.000066  -0.000007   0.000000   0.000002   0.000000
    18  C    0.002016   0.000090   0.000056  -0.000304  -0.000969   0.000028
    19  C    0.002412   0.000040   0.000009   0.000006   0.000000   0.000012
    20  H    0.000082   0.000015  -0.000002   0.000000   0.000003   0.000000
    21  H   -0.000615   0.002365   0.000065   0.000102   0.009773   0.000012
    22  H    0.003085  -0.000184  -0.000008   0.000424   0.000480  -0.000024
    23  H   -0.000012  -0.000001   0.000000   0.000000   0.000000   0.000000
    24  H    0.002757   0.000003   0.000002  -0.000017   0.000001   0.000012
    25  H   -0.000087  -0.000003   0.000002   0.000000   0.000000  -0.000001
    26  H    0.000002  -0.000032   0.000002   0.000000   0.000000   0.000000
    27  H   -0.000006   0.000165  -0.000010   0.000000   0.000000   0.000000
    28  H    0.000018   0.000008   0.000000   0.000000   0.000000   0.000000
    29  H    0.006598  -0.000006  -0.000035   0.000031   0.000000  -0.002183
    30  H   -0.005055  -0.000018  -0.000044  -0.000135   0.000000   0.000297
    31  H   -0.008033   0.000014   0.000023   0.000060   0.000000   0.001408
    32  H    0.000424  -0.000007  -0.000006   0.003480   0.000007   0.388329
    33  H   -0.000724  -0.000006  -0.000033   0.002830  -0.000030   0.403290
    34  H   -0.003567   0.000000   0.000000  -0.000474   0.000003  -0.033762
    35  H    0.000271  -0.000017  -0.000005   0.011478   0.000116  -0.041850
    36  H    0.000301   0.000000   0.000000  -0.000093  -0.000001  -0.035930
    37  C    0.005471  -0.003573  -0.006623  -0.000209  -0.000081  -0.000493
    38  C   -0.000118   0.001632   0.002363  -0.000026  -0.000015   0.000012
    39  C   -0.000001   0.000650   0.004555   0.000000   0.000001   0.000000
    40  H    0.000455   0.000137  -0.002107  -0.000136   0.000009   0.000010
    41  H   -0.000299  -0.000136   0.001130  -0.000021   0.000005  -0.000007
    42  H    0.000026   0.000417   0.000072   0.000001   0.000001   0.000001
    43  H   -0.000001   0.000032   0.000061   0.000000   0.000000   0.000000
    44  H    0.000001   0.000002   0.000235   0.000002   0.000000   0.000000
              13         14         15         16         17         18
     1  C   -0.076962  -0.054521   0.004200   0.002478   0.000004  -0.000171
     2  C   -0.005558   0.261568  -0.035623  -0.001009  -0.000043  -0.001870
     3  C   -0.000219  -0.056967   0.221804  -0.045993   0.002142  -0.002459
     4  C   -0.000123   0.006862  -0.049494  -0.009929  -0.000217   0.002061
     5  C   -0.000152   0.000305   0.001271  -0.000072  -0.000007  -0.004624
     6  H    0.007689   0.002701   0.000094   0.000153   0.000000  -0.000026
     7  H    0.002900  -0.035874  -0.006094   0.007376  -0.000116   0.002016
     8  H    0.000002  -0.000178  -0.001789  -0.000569  -0.000066   0.000090
     9  H   -0.000004  -0.000382   0.003343   0.000881  -0.000007   0.000056
    10  O   -0.002076   0.004638  -0.000041  -0.000900   0.000000  -0.000304
    11  O   -0.000029  -0.000007   0.000000  -0.001538   0.000002  -0.000969
    12  C    0.293441  -0.009118  -0.000085  -0.000394   0.000000   0.000028
    13  C    5.379621  -0.002906   0.000000   0.000178   0.000000  -0.000067
    14  C   -0.002906   5.442005  -0.000458  -0.001586  -0.000007   0.000109
    15  O    0.000000  -0.000458   8.282800   0.351901  -0.030704  -0.023231
    16  Si   0.000178  -0.001586   0.351901  11.523370   0.330891   0.313425
    17  C    0.000000  -0.000007  -0.030704   0.330891   5.725191  -0.043080
    18  C   -0.000067   0.000109  -0.023231   0.313425  -0.043080   5.796454
    19  C   -0.000050  -0.000439  -0.025628   0.308440  -0.049414  -0.053095
    20  H    0.000000  -0.000005   0.000774  -0.011175  -0.000749   0.361763
    21  H   -0.000002  -0.000022  -0.002178  -0.027181   0.000146   0.365402
    22  H    0.000209   0.000148  -0.001013  -0.029115   0.002231   0.369122
    23  H    0.000000   0.000056   0.000989  -0.011951   0.000211   0.000096
    24  H    0.000136  -0.000556  -0.001661  -0.028477   0.002279  -0.001334
    25  H    0.000001   0.000330  -0.002780  -0.025379  -0.000584   0.001994
    26  H    0.000000  -0.000002  -0.002132  -0.022157   0.369402   0.002059
    27  H    0.000000   0.000000  -0.001695  -0.024829   0.371149  -0.000556
    28  H    0.000000   0.000000   0.001179  -0.013557   0.361001  -0.000164
    29  H    0.000451   0.388061  -0.000013   0.000060   0.000000  -0.000005
    30  H   -0.000169   0.388175   0.005473   0.001968  -0.000021   0.000038
    31  H    0.000270   0.388653  -0.000148  -0.000435   0.000000   0.000003
    32  H   -0.035962   0.003354  -0.000004  -0.000024   0.000000   0.000000
    33  H   -0.042447  -0.000405   0.000005   0.000030   0.000000   0.000000
    34  H    0.381758  -0.000638  -0.000001   0.000098   0.000000  -0.000023
    35  H    0.384630   0.000384   0.000003   0.000015   0.000000   0.000011
    36  H    0.391384   0.000084   0.000000  -0.000014   0.000000   0.000000
    37  C    0.000005  -0.017855  -0.076118   0.002769   0.000093  -0.000263
    38  C    0.000000  -0.000235   0.004409  -0.000241  -0.000066  -0.000007
    39  C    0.000000  -0.000031   0.000835   0.000162  -0.000002   0.000001
    40  H    0.000010  -0.001070   0.004006   0.000093   0.000003   0.000016
    41  H   -0.000001   0.003745   0.001761   0.000714  -0.000017   0.000034
    42  H    0.000000  -0.000085   0.007014   0.000644   0.000106   0.000022
    43  H    0.000000   0.000000   0.000006   0.000002   0.000000   0.000000
    44  H    0.000000  -0.000011  -0.000003  -0.000004   0.000000   0.000000
              19         20         21         22         23         24
     1  C    0.000018   0.000004  -0.000001  -0.000244   0.000001  -0.000021
     2  C   -0.002498   0.000073   0.000294  -0.000489   0.000082  -0.000689
     3  C    0.001383  -0.000003   0.000149  -0.000064  -0.000077   0.000425
     4  C   -0.000241   0.000010  -0.001367   0.001058   0.000003  -0.000022
     5  C   -0.000065   0.000171  -0.000953   0.000794  -0.000001  -0.000001
     6  H   -0.000006   0.000000  -0.000008  -0.000002   0.000000  -0.000010
     7  H    0.002412   0.000082  -0.000615   0.003085  -0.000012   0.002757
     8  H    0.000040   0.000015   0.002365  -0.000184  -0.000001   0.000003
     9  H    0.000009  -0.000002   0.000065  -0.000008   0.000000   0.000002
    10  O    0.000006   0.000000   0.000102   0.000424   0.000000  -0.000017
    11  O    0.000000   0.000003   0.009773   0.000480   0.000000   0.000001
    12  C    0.000012   0.000000   0.000012  -0.000024   0.000000   0.000012
    13  C   -0.000050   0.000000  -0.000002   0.000209   0.000000   0.000136
    14  C   -0.000439  -0.000005  -0.000022   0.000148   0.000056  -0.000556
    15  O   -0.025628   0.000774  -0.002178  -0.001013   0.000989  -0.001661
    16  Si   0.308440  -0.011175  -0.027181  -0.029115  -0.011951  -0.028477
    17  C   -0.049414  -0.000749   0.000146   0.002231   0.000211   0.002279
    18  C   -0.053095   0.361763   0.365402   0.369122   0.000096  -0.001334
    19  C    5.777680   0.000181   0.001818  -0.000919   0.361889   0.370254
    20  H    0.000181   0.446811  -0.019587  -0.020857   0.000449  -0.000025
    21  H    0.001818  -0.019587   0.437242  -0.019897  -0.000072  -0.000052
    22  H   -0.000919  -0.020857  -0.019897   0.441705   0.000053   0.000870
    23  H    0.361889   0.000449  -0.000072   0.000053   0.455303  -0.022630
    24  H    0.370254  -0.000025  -0.000052   0.000870  -0.022630   0.451471
    25  H    0.371045  -0.000067  -0.000096   0.000015  -0.022346  -0.019694
    26  H   -0.000921  -0.000052  -0.000047  -0.000085  -0.000064  -0.000106
    27  H    0.002131  -0.000071   0.001042  -0.000079  -0.000045  -0.000094
    28  H    0.000920   0.000578  -0.000043  -0.000093   0.000739  -0.000059
    29  H    0.000025   0.000000   0.000001  -0.000004  -0.000002   0.000059
    30  H   -0.001319   0.000001   0.000006   0.000013   0.000179  -0.000818
    31  H    0.000110   0.000000   0.000000   0.000002  -0.000014   0.000251
    32  H    0.000000   0.000000  -0.000001   0.000005   0.000000   0.000000
    33  H    0.000000   0.000000   0.000001  -0.000002   0.000000   0.000001
    34  H    0.000063   0.000000   0.000001   0.000019  -0.000002   0.000572
    35  H   -0.000005  -0.000001  -0.000016   0.000383   0.000000  -0.000009
    36  H    0.000000   0.000000   0.000000  -0.000009   0.000000  -0.000009
    37  C   -0.000172   0.000004  -0.000078  -0.000060   0.000006  -0.000014
    38  C    0.000022   0.000000  -0.000020   0.000003   0.000000   0.000004
    39  C    0.000000   0.000000   0.000000   0.000000   0.000000   0.000000
    40  H   -0.000003   0.000000   0.000001   0.000003   0.000000  -0.000003
    41  H   -0.000012   0.000000   0.000007   0.000001  -0.000002  -0.000011
    42  H    0.000002   0.000000   0.000007   0.000001   0.000000   0.000000
    43  H    0.000000   0.000000   0.000000   0.000000   0.000000   0.000000
    44  H    0.000000   0.000000   0.000000   0.000000   0.000000   0.000000
              25         26         27         28         29         30
     1  C   -0.000021   0.000000   0.000001   0.000000  -0.002976   0.006109
     2  C    0.000006  -0.000024  -0.000010   0.000006  -0.038261  -0.039045
     3  C    0.000329  -0.000056  -0.000043  -0.000049  -0.008822  -0.003212
     4  C   -0.000044  -0.000039   0.000107  -0.000006  -0.000198   0.000670
     5  C    0.000000   0.000001  -0.000001   0.000000   0.000019  -0.000084
     6  H    0.000001   0.000000   0.000000   0.000000   0.002370  -0.000321
     7  H   -0.000087   0.000002  -0.000006   0.000018   0.006598  -0.005055
     8  H   -0.000003  -0.000032   0.000165   0.000008  -0.000006  -0.000018
     9  H    0.000002   0.000002  -0.000010   0.000000  -0.000035  -0.000044
    10  O    0.000000   0.000000   0.000000   0.000000   0.000031  -0.000135
    11  O    0.000000   0.000000   0.000000   0.000000   0.000000   0.000000
    12  C   -0.000001   0.000000   0.000000   0.000000  -0.002183   0.000297
    13  C    0.000001   0.000000   0.000000   0.000000   0.000451  -0.000169
    14  C    0.000330  -0.000002   0.000000   0.000000   0.388061   0.388175
    15  O   -0.002780  -0.002132  -0.001695   0.001179  -0.000013   0.005473
    16  Si  -0.025379  -0.022157  -0.024829  -0.013557   0.000060   0.001968
    17  C   -0.000584   0.369402   0.371149   0.361001   0.000000  -0.000021
    18  C    0.001994   0.002059  -0.000556  -0.000164  -0.000005   0.000038
    19  C    0.371045  -0.000921   0.002131   0.000920   0.000025  -0.001319
    20  H   -0.000067  -0.000052  -0.000071   0.000578   0.000000   0.000001
    21  H   -0.000096  -0.000047   0.001042  -0.000043   0.000001   0.000006
    22  H    0.000015  -0.000085  -0.000079  -0.000093  -0.000004   0.000013
    23  H   -0.022346  -0.000064  -0.000045   0.000739  -0.000002   0.000179
    24  H   -0.019694  -0.000106  -0.000094  -0.000059   0.000059  -0.000818
    25  H    0.454037   0.001140  -0.000081   0.000056  -0.000012   0.000190
    26  H    0.001140   0.454400  -0.019720  -0.021996   0.000000  -0.000009
    27  H   -0.000081  -0.019720   0.454687  -0.021935   0.000000   0.000003
    28  H    0.000056  -0.021996  -0.021935   0.461611   0.000000  -0.000001
    29  H   -0.000012   0.000000   0.000000   0.000000   0.460346  -0.024941
    30  H    0.000190  -0.000009   0.000003  -0.000001  -0.024941   0.436665
    31  H    0.000047   0.000000   0.000000   0.000000  -0.026185  -0.023734
    32  H    0.000000   0.000000   0.000000   0.000000   0.000580   0.000327
    33  H    0.000000   0.000000   0.000000   0.000000  -0.000159   0.000030
    34  H   -0.000007   0.000000   0.000000   0.000000  -0.000159   0.000008
    35  H    0.000000   0.000000   0.000000   0.000000  -0.000013   0.000024
    36  H    0.000000   0.000000   0.000000   0.000000   0.000007  -0.000004
    37  C    0.000054   0.000096   0.000010   0.000001   0.002879  -0.004635
    38  C    0.000004   0.000001   0.000022   0.000000   0.000321  -0.000264
    39  C    0.000000  -0.000003  -0.000002   0.000000  -0.000011  -0.000007
    40  H   -0.000005  -0.000001   0.000001   0.000000   0.000835   0.000248
    41  H   -0.000021   0.000000   0.000004   0.000000  -0.002366   0.001905
    42  H   -0.000004   0.000111   0.000128   0.000003   0.000000   0.000006
    43  H    0.000000  -0.000001  -0.000001   0.000000   0.000000   0.000000
    44  H    0.000000   0.000000   0.000000   0.000000  -0.000006   0.000001
              31         32         33         34         35         36
     1  C   -0.007684  -0.037533  -0.046637  -0.008123  -0.008812   0.008033
     2  C   -0.030501  -0.008662   0.009084   0.006164  -0.000481  -0.000307
     3  C    0.006508  -0.000263  -0.000164   0.000389  -0.000263   0.000003
     4  C   -0.000222   0.000090   0.000145  -0.000011   0.000459  -0.000001
     5  C   -0.000035  -0.000047  -0.000226  -0.000056   0.000477   0.000011
     6  H   -0.000467  -0.000164  -0.007591  -0.000462   0.000448  -0.000164
     7  H   -0.008033   0.000424  -0.000724  -0.003567   0.000271   0.000301
     8  H    0.000014  -0.000007  -0.000006   0.000000  -0.000017   0.000000
     9  H    0.000023  -0.000006  -0.000033   0.000000  -0.000005   0.000000
    10  O    0.000060   0.003480   0.002830  -0.000474   0.011478  -0.000093
    11  O    0.000000   0.000007  -0.000030   0.000003   0.000116  -0.000001
    12  C    0.001408   0.388329   0.403290  -0.033762  -0.041850  -0.035930
    13  C    0.000270  -0.035962  -0.042447   0.381758   0.384630   0.391384
    14  C    0.388653   0.003354  -0.000405  -0.000638   0.000384   0.000084
    15  O   -0.000148  -0.000004   0.000005  -0.000001   0.000003   0.000000
    16  Si  -0.000435  -0.000024   0.000030   0.000098   0.000015  -0.000014
    17  C    0.000000   0.000000   0.000000   0.000000   0.000000   0.000000
    18  C    0.000003   0.000000   0.000000  -0.000023   0.000011   0.000000
    19  C    0.000110   0.000000   0.000000   0.000063  -0.000005   0.000000
    20  H    0.000000   0.000000   0.000000   0.000000  -0.000001   0.000000
    21  H    0.000000  -0.000001   0.000001   0.000001  -0.000016   0.000000
    22  H    0.000002   0.000005  -0.000002   0.000019   0.000383  -0.000009
    23  H   -0.000014   0.000000   0.000000  -0.000002   0.000000   0.000000
    24  H    0.000251   0.000000   0.000001   0.000572  -0.000009  -0.000009
    25  H    0.000047   0.000000   0.000000  -0.000007   0.000000   0.000000
    26  H    0.000000   0.000000   0.000000   0.000000   0.000000   0.000000
    27  H    0.000000   0.000000   0.000000   0.000000   0.000000   0.000000
    28  H    0.000000   0.000000   0.000000   0.000000   0.000000   0.000000
    29  H   -0.026185   0.000580  -0.000159  -0.000159  -0.000013   0.000007
    30  H   -0.023734   0.000327   0.000030   0.000008   0.000024  -0.000004
    31  H    0.448193  -0.001961   0.000253   0.004639  -0.000135  -0.000001
    32  H   -0.001961   0.475112  -0.026588  -0.005517   0.006834  -0.003906
    33  H    0.000253  -0.026588   0.468600   0.006401  -0.003452  -0.005290
    34  H    0.004639  -0.005517   0.006401   0.480237  -0.027374  -0.027335
    35  H   -0.000135   0.006834  -0.003452  -0.027374   0.458678  -0.024994
    36  H   -0.000001  -0.003906  -0.005290  -0.027335  -0.024994   0.463618
    37  C    0.000413  -0.000015   0.000010  -0.000012   0.000004   0.000001
    38  C    0.000014  -0.000001  -0.000001   0.000000   0.000000   0.000000
    39  C    0.000001   0.000000   0.000000   0.000000   0.000000   0.000000
    40  H   -0.000151   0.000015  -0.000030  -0.000002   0.000001   0.000000
    41  H    0.000408  -0.000013   0.000004   0.000002   0.000000   0.000000
    42  H    0.000001   0.000000   0.000000   0.000000   0.000000   0.000000
    43  H    0.000000   0.000000   0.000000   0.000000   0.000000   0.000000
    44  H    0.000000   0.000000   0.000000   0.000000   0.000000   0.000000
              37         38         39         40         41         42
     1  C    0.000028  -0.000390  -0.000024   0.000810   0.000655  -0.000037
     2  C   -0.080501   0.008665  -0.000076  -0.002180  -0.012583   0.000158
     3  C    0.308779  -0.050162  -0.003297  -0.041236  -0.040188  -0.002438
     4  C   -0.077193  -0.026357   0.001517   0.001066   0.007619  -0.000475
     5  C    0.003744   0.000372   0.000035  -0.000283  -0.000135  -0.000024
     6  H    0.004593  -0.000248  -0.000054   0.005236  -0.000142   0.000005
     7  H    0.005471  -0.000118  -0.000001   0.000455  -0.000299   0.000026
     8  H   -0.003573   0.001632   0.000650   0.000137  -0.000136   0.000417
     9  H   -0.006623   0.002363   0.004555  -0.002107   0.001130   0.000072
    10  O   -0.000209  -0.000026   0.000000  -0.000136  -0.000021   0.000001
    11  O   -0.000081  -0.000015   0.000001   0.000009   0.000005   0.000001
    12  C   -0.000493   0.000012   0.000000   0.000010  -0.000007   0.000001
    13  C    0.000005   0.000000   0.000000   0.000010  -0.000001   0.000000
    14  C   -0.017855  -0.000235  -0.000031  -0.001070   0.003745  -0.000085
    15  O   -0.076118   0.004409   0.000835   0.004006   0.001761   0.007014
    16  Si   0.002769  -0.000241   0.000162   0.000093   0.000714   0.000644
    17  C    0.000093  -0.000066  -0.000002   0.000003  -0.000017   0.000106
    18  C   -0.000263  -0.000007   0.000001   0.000016   0.000034   0.000022
    19  C   -0.000172   0.000022   0.000000  -0.000003  -0.000012   0.000002
    20  H    0.000004   0.000000   0.000000   0.000000   0.000000   0.000000
    21  H   -0.000078  -0.000020   0.000000   0.000001   0.000007   0.000007
    22  H   -0.000060   0.000003   0.000000   0.000003   0.000001   0.000001
    23  H    0.000006   0.000000   0.000000   0.000000  -0.000002   0.000000
    24  H   -0.000014   0.000004   0.000000  -0.000003  -0.000011   0.000000
    25  H    0.000054   0.000004   0.000000  -0.000005  -0.000021  -0.000004
    26  H    0.000096   0.000001  -0.000003  -0.000001   0.000000   0.000111
    27  H    0.000010   0.000022  -0.000002   0.000001   0.000004   0.000128
    28  H    0.000001   0.000000   0.000000   0.000000   0.000000   0.000003
    29  H    0.002879   0.000321  -0.000011   0.000835  -0.002366   0.000000
    30  H   -0.004635  -0.000264  -0.000007   0.000248   0.001905   0.000006
    31  H    0.000413   0.000014   0.000001  -0.000151   0.000408   0.000001
    32  H   -0.000015  -0.000001   0.000000   0.000015  -0.000013   0.000000
    33  H    0.000010  -0.000001   0.000000  -0.000030   0.000004   0.000000
    34  H   -0.000012   0.000000   0.000000  -0.000002   0.000002   0.000000
    35  H    0.000004   0.000000   0.000000   0.000001   0.000000   0.000000
    36  H    0.000001   0.000000   0.000000   0.000000   0.000000   0.000000
    37  C    5.449501   0.331229  -0.064027   0.385200   0.390125  -0.049405
    38  C    0.331229   5.060646   0.616149  -0.048157  -0.040038   0.397895
    39  C   -0.064027   0.616149   5.153810   0.001994   0.000418  -0.039598
    40  H    0.385200  -0.048157   0.001994   0.466367  -0.021015   0.005473
    41  H    0.390125  -0.040038   0.000418  -0.021015   0.449034  -0.001355
    42  H   -0.049405   0.397895  -0.039598   0.005473  -0.001355   0.458931
    43  H    0.006367  -0.038498   0.392484   0.000139  -0.000326  -0.007723
    44  H   -0.008995  -0.039669   0.386643   0.004956   0.000206   0.005888
              43         44
     1  C   -0.000001  -0.000006
     2  C    0.000017  -0.000055
     3  C   -0.000344   0.000146
     4  C    0.000081  -0.000025
     5  C    0.000000  -0.000003
     6  H   -0.000004   0.000009
     7  H   -0.000001   0.000001
     8  H    0.000032   0.000002
     9  H    0.000061   0.000235
    10  O    0.000000   0.000002
    11  O    0.000000   0.000000
    12  C    0.000000   0.000000
    13  C    0.000000   0.000000
    14  C    0.000000  -0.000011
    15  O    0.000006  -0.000003
    16  Si   0.000002  -0.000004
    17  C    0.000000   0.000000
    18  C    0.000000   0.000000
    19  C    0.000000   0.000000
    20  H    0.000000   0.000000
    21  H    0.000000   0.000000
    22  H    0.000000   0.000000
    23  H    0.000000   0.000000
    24  H    0.000000   0.000000
    25  H    0.000000   0.000000
    26  H   -0.000001   0.000000
    27  H   -0.000001   0.000000
    28  H    0.000000   0.000000
    29  H    0.000000  -0.000006
    30  H    0.000000   0.000001
    31  H    0.000000   0.000000
    32  H    0.000000   0.000000
    33  H    0.000000   0.000000
    34  H    0.000000   0.000000
    35  H    0.000000   0.000000
    36  H    0.000000   0.000000
    37  C    0.006367  -0.008995
    38  C   -0.038498  -0.039669
    39  C    0.392484   0.386643
    40  H    0.000139   0.004956
    41  H   -0.000326   0.000206
    42  H   -0.007723   0.005888
    43  H    0.454635  -0.034281
    44  H   -0.034281   0.466627
 Mulliken charges:
               1
     1  C   -0.005231
     2  C   -0.389919
     3  C    0.267752
     4  C   -0.663484
     5  C    0.501646
     6  H    0.243745
     7  H    0.260808
     8  H    0.282003
     9  H    0.291183
    10  O   -0.320007
    11  O   -0.384929
    12  C   -0.461402
    13  C   -0.675960
    14  C   -0.707822
    15  O   -0.630975
    16  Si   1.410879
    17  C   -1.039752
    18  C   -1.082551
    19  C   -1.063671
    20  H    0.241675
    21  H    0.253802
    22  H    0.252526
    23  H    0.237164
    24  H    0.247214
    25  H    0.241979
    26  H    0.240232
    27  H    0.239729
    28  H    0.231782
    29  H    0.243720
    30  H    0.261502
    31  H    0.248437
    32  H    0.242115
    33  H    0.243102
    34  H    0.227167
    35  H    0.243213
    36  H    0.234617
    37  C   -0.501058
    38  C   -0.179248
    39  C   -0.452122
    40  H    0.239294
    41  H    0.260914
    42  H    0.224233
    43  H    0.227354
    44  H    0.218343
 Sum of Mulliken charges =   0.00000
 Mulliken charges with hydrogens summed into heavy atoms:
               1
     1  C    0.238513
     2  C   -0.129110
     3  C    0.267752
     4  C   -0.090298
     5  C    0.501646
    10  O   -0.320007
    11  O   -0.384929
    12  C    0.023815
    13  C    0.029037
    14  C    0.045836
    15  O   -0.630975
    16  Si   1.410879
    17  C   -0.328008
    18  C   -0.334549
    19  C   -0.337313
    37  C   -0.000850
    38  C    0.044985
    39  C   -0.006424
 Electronic spatial extent (au):  <R**2>=           5166.6567
 Charge=              0.0000 electrons
 Dipole moment (field-independent basis, Debye):
    X=             -0.2936    Y=              0.7671    Z=             -4.9385  Tot=              5.0063
 Quadrupole moment (field-independent basis, Debye-Ang):
   XX=           -115.2820   YY=           -113.5924   ZZ=           -134.2304
   XY=             -5.1149   XZ=             10.3301   YZ=              3.5133
 Traceless Quadrupole moment (field-independent basis, Debye-Ang):
   XX=              5.7530   YY=              7.4425   ZZ=            -13.1955
   XY=             -5.1149   XZ=             10.3301   YZ=              3.5133
 Octapole moment (field-independent basis, Debye-Ang**2):
  XXX=            -22.8340  YYY=              5.7452  ZZZ=            -45.7454  XYY=             -2.7258
  XXY=             -2.3338  XXZ=            -10.2813  XZZ=             15.0161  YZZ=              4.7427
  YYZ=             14.4334  XYZ=             -1.0938
 Hexadecapole moment (field-independent basis, Debye-Ang**3):
 XXXX=          -3157.5130 YYYY=          -2400.9175 ZZZZ=          -1542.9698 XXXY=              3.5778
 XXXZ=             19.5683 YYYX=            -35.7878 YYYZ=             30.5503 ZZZX=             44.8346
 ZZZY=             15.3820 XXYY=           -896.4778 XXZZ=           -773.0456 YYZZ=           -669.8534
 XXYZ=             15.4793 YYXZ=             22.4919 ZZXY=             -9.1966
 N-N= 1.643324703022D+03 E-N=-5.781956051489D+03  KE= 1.060527924659D+03
 1\1\GINC-CPU-E-532\SP\RmPW1PW91\6-311G(d)\C14H26O3Si1\KE291\06-Feb-201
 9\0\\# mPW1PW91/6-311g(d) geom=checkpoint nmr=giao scrf=(solvent=chlor
 oform)\\P_ng_correct1ginp014\\0,1\C,0,0.9482698778,-0.2855138551,0.608
 063614\C,0,-0.5587289897,-0.4182894139,0.8897211234\C,0,-1.0107847789,
 0.6842775802,1.9008391136\C,0,-0.143360279,1.9663999292,1.7037258822\C
 ,0,0.5837581176,2.1005151313,0.3865004279\H,0,1.5054993315,-0.26437377
 78,1.5549155897\H,0,-1.0512285553,-0.1761597521,-0.0600580499\H,0,-0.7
 505298235,2.8578552437,1.8572868657\H,0,0.6381193495,1.987162805,2.474
 106526\O,0,1.1843806698,0.9811718416,-0.0777808374\O,0,0.7072281026,3.
 1390335272,-0.228535495\C,0,1.5759247867,-1.3550620449,-0.2896378073\C
 ,0,0.9664879174,-1.4721735538,-1.6906945212\C,0,-0.981807494,-1.837999
 8832,1.2887379168\O,0,-2.3920429989,0.9916788456,1.7330095737\Si,0,-3.
 443173066,1.3350142819,0.4634109613\C,0,-4.8188217719,2.3289823234,1.2
 750627418\C,0,-2.635328403,2.3369200495,-0.9157397236\C,0,-4.155869823
 8,-0.2618956035,-0.2469445897\H,0,-3.4099938504,2.6605747425,-1.621278
 0124\H,0,-2.1306650524,3.232411113,-0.5411976804\H,0,-1.9008488775,1.7
 58719264,-1.4855618977\H,0,-4.9386508493,-0.0318504442,-0.9793465971\H
 ,0,-3.4006292689,-0.8705794085,-0.7549823701\H,0,-4.608351832,-0.87541
 15869,0.5395029081\H,0,-5.2692923763,1.7727770772,2.1038495219\H,0,-4.
 4421504104,3.2770206206,1.673004772\H,0,-5.6126930043,2.5584111252,0.5
 555461564\H,0,-0.4004339227,-2.2224114283,2.1322362478\H,0,-2.03788943
 9,-1.855267341,1.5701507453\H,0,-0.8526034017,-2.5315992161,0.45454978
 24\H,0,1.5210981234,-2.3148631773,0.235208555\H,0,2.6415483842,-1.1146
 607071,-0.3770109602\H,0,-0.0824242913,-1.784034115,-1.6619327124\H,0,
 1.020012292,-0.5170565394,-2.2197526472\H,0,1.5130286122,-2.2150505758
 ,-2.2791206432\C,0,-0.877097103,0.2124409752,3.3743693142\C,0,-1.19904
 68633,1.2756844483,4.3881012278\C,0,-0.379419532,1.6682839691,5.364712
 4589\H,0,0.1371827239,-0.1666266427,3.5476535613\H,0,-1.5686857659,-0.
 6261939424,3.5098310012\H,0,-2.1836039787,1.7308196463,4.2968488012\H,
 0,-0.6696689479,2.4314874387,6.0809400283\H,0,0.6105534622,1.234690030
 1,5.4897451269\\Version=ES64L-G09RevD.01\State=1-A\HF=-1064.3825755\RM
 SD=9.112e-09\Dipole=-0.391665,-1.775863,0.7565382\Quadrupole=2.2186204
 ,-1.6470727,-0.5715478,-8.1567918,7.1333306,5.6080557\PG=C01 [X(C14H26
 O3Si1)]\\@


 QUANTUM MECHANICS IS BOHRING -- M.S. GORDON
 Job cpu time:       0 days  0 hours 19 minutes 39.3 seconds.
 File lengths (MBytes):  RWF=    232 Int=      0 D2E=      0 Chk=     18 Scr=      1
 Normal termination of Gaussian 09 at Wed Feb  6 11:39:09 2019.
