 Entering Gaussian System, Link 0=/usr/local/Cluster-Apps/gaussian/g09/g09
 Initial command:
 /usr/local/Cluster-Apps/gaussian/g09/l1.exe "/home/ke291/rds/hpc-work/06Feb0927IP1/Gau-178176.inp" -scrdir="/home/ke291/rds/hpc-work/06Feb0927IP1/"
 Entering Link 1 = /usr/local/Cluster-Apps/gaussian/g09/l1.exe PID=    178181.
  
 Copyright (c) 1988,1990,1992,1993,1995,1998,2003,2009,2013,
            Gaussian, Inc.  All Rights Reserved.
  
 This is part of the Gaussian(R) 09 program.  It is based on
 the Gaussian(R) 03 system (copyright 2003, Gaussian, Inc.),
 the Gaussian(R) 98 system (copyright 1998, Gaussian, Inc.),
 the Gaussian(R) 94 system (copyright 1995, Gaussian, Inc.),
 the Gaussian 92(TM) system (copyright 1992, Gaussian, Inc.),
 the Gaussian 90(TM) system (copyright 1990, Gaussian, Inc.),
 the Gaussian 88(TM) system (copyright 1988, Gaussian, Inc.),
 the Gaussian 86(TM) system (copyright 1986, Carnegie Mellon
 University), and the Gaussian 82(TM) system (copyright 1983,
 Carnegie Mellon University). Gaussian is a federally registered
 trademark of Gaussian, Inc.
  
 This software contains proprietary and confidential information,
 including trade secrets, belonging to Gaussian, Inc.
  
 This software is provided under written license and may be
 used, copied, transmitted, or stored only in accord with that
 written license.
  
 The following legend is applicable only to US Government
 contracts under FAR:
  
                    RESTRICTED RIGHTS LEGEND
  
 Use, reproduction and disclosure by the US Government is
 subject to restrictions as set forth in subparagraphs (a)
 and (c) of the Commercial Computer Software - Restricted
 Rights clause in FAR 52.227-19.
  
 Gaussian, Inc.
 340 Quinnipiac St., Bldg. 40, Wallingford CT 06492
  
  
 ---------------------------------------------------------------
 Warning -- This program may not be used in any manner that
 competes with the business of Gaussian, Inc. or will provide
 assistance to any competitor of Gaussian, Inc.  The licensee
 of this program is prohibited from giving any competitor of
 Gaussian, Inc. access to this program.  By using this program,
 the user acknowledges that Gaussian, Inc. is engaged in the
 business of creating and licensing software in the field of
 computational chemistry and represents and warrants to the
 licensee that it is not a competitor of Gaussian, Inc. and that
 it will not use this program in any manner prohibited above.
 ---------------------------------------------------------------
  

 Cite this work as:
 Gaussian 09, Revision D.01,
 M. J. Frisch, G. W. Trucks, H. B. Schlegel, G. E. Scuseria, 
 M. A. Robb, J. R. Cheeseman, G. Scalmani, V. Barone, B. Mennucci, 
 G. A. Petersson, H. Nakatsuji, M. Caricato, X. Li, H. P. Hratchian, 
 A. F. Izmaylov, J. Bloino, G. Zheng, J. L. Sonnenberg, M. Hada, 
 M. Ehara, K. Toyota, R. Fukuda, J. Hasegawa, M. Ishida, T. Nakajima, 
 Y. Honda, O. Kitao, H. Nakai, T. Vreven, J. A. Montgomery, Jr., 
 J. E. Peralta, F. Ogliaro, M. Bearpark, J. J. Heyd, E. Brothers, 
 K. N. Kudin, V. N. Staroverov, T. Keith, R. Kobayashi, J. Normand, 
 K. Raghavachari, A. Rendell, J. C. Burant, S. S. Iyengar, J. Tomasi, 
 M. Cossi, N. Rega, J. M. Millam, M. Klene, J. E. Knox, J. B. Cross, 
 V. Bakken, C. Adamo, J. Jaramillo, R. Gomperts, R. E. Stratmann, 
 O. Yazyev, A. J. Austin, R. Cammi, C. Pomelli, J. W. Ochterski, 
 R. L. Martin, K. Morokuma, V. G. Zakrzewski, G. A. Voth, 
 P. Salvador, J. J. Dannenberg, S. Dapprich, A. D. Daniels, 
 O. Farkas, J. B. Foresman, J. V. Ortiz, J. Cioslowski, 
 and D. J. Fox, Gaussian, Inc., Wallingford CT, 2013.
 
 ******************************************
 Gaussian 09:  ES64L-G09RevD.01 24-Apr-2013
                 6-Feb-2019 
 ******************************************
 %nprocshared=2
 Will use up to    2 processors via shared memory.
 %mem=6000MB
 %chk=/home/ke291/rds/hpc-work/06Feb0927IP1/P_ng_2ginp010.chk
 ----------------------------------------------------------------------
 # mPW1PW91/6-311g(d) geom=checkpoint nmr=giao scrf=(solvent=chloroform
 )
 ----------------------------------------------------------------------
 1/29=2,38=1/1;
 2/12=2,40=1/2;
 3/5=4,6=6,7=1,11=2,14=-4,16=1,25=1,30=1,70=2201,72=7,74=-7/1,2,8,3;
 4//1;
 5/5=2,38=5,53=7/2;
 8/6=1,10=90,11=11/1;
 10/13=100,45=16/2;
 6/7=2,8=2,9=2,10=2,28=1/1;
 99/9=1/99;
 -------------
 P_ng_2ginp010
 -------------
 Structure from the checkpoint file:  "/home/ke291/rds/hpc-work/06Feb0927IP1/P_ng_2ginp010.chk"
 Charge =  0 Multiplicity = 1
 Redundant internal coordinates found in file.
 C,0,-0.3128910974,-0.0448743573,1.1543508694
 C,0,-0.8490083045,1.2461089844,0.5124074303
 C,0,-1.929530621,1.9582718056,1.3740230883
 C,0,-1.333529541,2.1642791755,2.7761744569
 C,0,-0.6599051537,0.9618929581,3.4052587833
 H,0,-1.0551929011,-0.8410277413,1.0345588278
 H,0,-0.0218343581,1.9675724041,0.4706247776
 H,0,-0.5583887623,2.9357690035,2.6900941197
 H,0,-2.0719441966,2.5349128402,3.4903241625
 O,0,-0.0944154971,0.046272214,2.5982921396
 O,0,-0.5501669614,0.8315835897,4.6079325673
 C,0,1.0255795548,-0.5031275991,0.5693040431
 C,0,1.519379011,-1.8388815177,1.13342618
 C,0,-1.3187195147,0.9812329748,-0.9265008728
 O,0,-2.0948295294,3.2409964955,0.7641412653
 Si,0,-3.1866889498,4.5158282353,0.899254484
 C,0,-4.7612575015,4.167123346,-0.081924093
 C,0,-3.6236346458,4.908948043,2.6934233377
 C,0,-2.273062321,5.9678948439,0.1279462075
 H,0,-4.2754929562,5.7900554477,2.7246359872
 H,0,-4.1582222988,4.0934398153,3.1915092001
 H,0,-2.7309928031,5.1384542092,3.2844514594
 H,0,-2.9050036688,6.8629884288,0.1156359039
 H,0,-1.3628893441,6.2069786562,0.6876725262
 H,0,-1.983833221,5.7491311889,-0.9052490301
 H,0,-5.3928255407,5.0628871067,-0.1099524171
 H,0,-4.5273719766,3.8952319,-1.1169387761
 H,0,-5.3562733185,3.3572893403,0.3514034142
 H,0,-1.8126232785,1.8705144942,-1.3232565408
 H,0,-0.4771926636,0.7483317604,-1.5833019582
 H,0,-2.0220565768,0.1435588446,-0.977159124
 H,0,1.7683292864,0.2837918365,0.7517523087
 H,0,0.9137259046,-0.5862686412,-0.5166686756
 H,0,1.6588518006,-1.7831878217,2.2157213996
 H,0,0.8038812959,-2.6427234281,0.9269919596
 H,0,2.4751506953,-2.1185499945,0.6800344066
 C,0,-3.3099553933,1.2440153889,1.4240869614
 C,0,-3.3947884098,-0.0894899737,2.1197423115
 C,0,-3.8770537029,-1.203640733,1.5653780633
 H,0,-3.6925570525,1.155027616,0.4030832435
 H,0,-3.984926995,1.9315297959,1.9519850281
 H,0,-3.0903629717,-0.1177407094,3.1657056723
 H,0,-3.9560886021,-2.129495192,2.1270906891
 H,0,-4.2162869186,-1.227909034,0.5322582126
 Recover connectivity data from disk.
                          Input orientation:                          
 ---------------------------------------------------------------------
 Center     Atomic      Atomic             Coordinates (Angstroms)
 Number     Number       Type             X           Y           Z
 ---------------------------------------------------------------------
      1          6           0       -0.312891   -0.044874    1.154351
      2          6           0       -0.849008    1.246109    0.512407
      3          6           0       -1.929531    1.958272    1.374023
      4          6           0       -1.333530    2.164279    2.776174
      5          6           0       -0.659905    0.961893    3.405259
      6          1           0       -1.055193   -0.841028    1.034559
      7          1           0       -0.021834    1.967572    0.470625
      8          1           0       -0.558389    2.935769    2.690094
      9          1           0       -2.071944    2.534913    3.490324
     10          8           0       -0.094415    0.046272    2.598292
     11          8           0       -0.550167    0.831584    4.607933
     12          6           0        1.025580   -0.503128    0.569304
     13          6           0        1.519379   -1.838882    1.133426
     14          6           0       -1.318720    0.981233   -0.926501
     15          8           0       -2.094830    3.240996    0.764141
     16         14           0       -3.186689    4.515828    0.899254
     17          6           0       -4.761258    4.167123   -0.081924
     18          6           0       -3.623635    4.908948    2.693423
     19          6           0       -2.273062    5.967895    0.127946
     20          1           0       -4.275493    5.790055    2.724636
     21          1           0       -4.158222    4.093440    3.191509
     22          1           0       -2.730993    5.138454    3.284451
     23          1           0       -2.905004    6.862988    0.115636
     24          1           0       -1.362889    6.206979    0.687673
     25          1           0       -1.983833    5.749131   -0.905249
     26          1           0       -5.392826    5.062887   -0.109952
     27          1           0       -4.527372    3.895232   -1.116939
     28          1           0       -5.356273    3.357289    0.351403
     29          1           0       -1.812623    1.870514   -1.323257
     30          1           0       -0.477193    0.748332   -1.583302
     31          1           0       -2.022057    0.143559   -0.977159
     32          1           0        1.768329    0.283792    0.751752
     33          1           0        0.913726   -0.586269   -0.516669
     34          1           0        1.658852   -1.783188    2.215721
     35          1           0        0.803881   -2.642723    0.926992
     36          1           0        2.475151   -2.118550    0.680034
     37          6           0       -3.309955    1.244015    1.424087
     38          6           0       -3.394788   -0.089490    2.119742
     39          6           0       -3.877054   -1.203641    1.565378
     40          1           0       -3.692557    1.155028    0.403083
     41          1           0       -3.984927    1.931530    1.951985
     42          1           0       -3.090363   -0.117741    3.165706
     43          1           0       -3.956089   -2.129495    2.127091
     44          1           0       -4.216287   -1.227909    0.532258
 ---------------------------------------------------------------------
                    Distance matrix (angstroms):
                    1          2          3          4          5
     1  C    0.000000
     2  C    1.538230   0.000000
     3  C    2.583481   1.554698   0.000000
     4  C    2.924444   2.490470   1.537428   0.000000
     5  C    2.490098   2.912924   2.594347   1.515008   0.000000
     6  H    1.095090   2.161318   2.952250   3.484618   3.004496
     7  H    2.145259   1.098395   2.110810   2.659849   3.167113
     8  H    3.361995   2.771593   2.137188   1.097019   2.101893
     9  H    3.899531   3.467647   2.198073   1.092078   2.115533
    10  O    1.463218   2.521891   2.919285   2.460284   1.345115
    11  O    3.570953   4.127283   3.691916   2.396888   1.214680
    12  C    1.530941   2.564595   3.929216   4.189359   3.609679
    13  C    2.564393   3.938539   5.135293   5.182953   4.213649
    14  C    2.528741   1.536634   2.572957   3.887110   4.381615
    15  O    3.758260   2.365379   1.429917   2.405655   3.772111
    16  Si   5.396647   4.038003   2.889108   3.533668   5.029428
    17  C    6.249581   4.918460   3.875240   4.891772   6.265384
    18  C    6.153871   5.086430   3.649287   3.575561   4.986948
    19  C    6.406963   4.946817   4.212814   4.728988   6.197024
    20  H    7.225954   6.105915   4.691509   4.669482   6.070163
    21  H    6.005184   5.122087   3.581796   3.445730   4.700053
    22  H    6.103396   5.135800   3.795476   3.325202   4.663439
    23  H    7.450943   5.994487   5.156678   5.623688   7.119341
    24  H    6.356568   4.990493   4.340930   4.550398   5.948982
    25  H    6.372166   4.855387   4.423646   5.179473   6.576543
    26  H    7.313920   5.966691   4.882134   5.762772   7.181601
    27  H    6.200407   4.816947   4.087234   5.324768   6.634158
    28  H    6.136379   4.979803   3.839996   4.846159   6.092605
    29  H    3.472240   2.165202   2.701238   4.137773   4.951082
    30  H    2.854981   2.185870   3.509845   4.662966   4.996472
    31  H    2.738629   2.193278   2.971498   4.317973   4.661621
    32  H    2.145131   2.798892   4.106735   4.154040   3.660224
    33  H    2.142429   2.742961   4.258346   4.843396   4.500515
    34  H    2.834786   4.285706   5.251996   4.985073   3.785116
    35  H    2.836846   4.245815   5.370338   5.576314   4.612780
    36  H    3.506891   4.732765   6.041797   6.102661   5.171513
    37  C    3.273590   2.624390   1.555070   2.565402   3.320753
    38  C    3.229870   3.293683   2.626101   3.123966   3.199616
    39  C    3.770270   4.034734   3.718488   4.390721   4.292405
    40  H    3.664193   2.847107   2.167069   3.495020   4.271690
    41  H    4.245732   3.517978   2.135277   2.786282   3.756058
    42  H    3.430045   3.731454   2.977832   2.906168   2.670228
    43  H    4.308684   4.863728   4.624272   5.073029   4.696299
    44  H    4.125902   4.178484   4.011181   4.985217   5.069242
                    6          7          8          9         10
     6  H    0.000000
     7  H    3.045338   0.000000
     8  H    4.153529   2.480189   0.000000
     9  H    4.296690   3.693699   1.758381   0.000000
    10  O    2.038543   2.867687   2.927950   3.301465   0.000000
    11  O    3.977648   4.322837   2.847063   2.542869   2.205239
    12  C    2.158762   2.685363   4.339668   5.230363   2.381811
    13  C    2.762953   4.159776   5.434852   6.130469   2.881661
    14  C    2.689951   2.146331   4.180679   4.742321   3.846718
    15  O    4.221006   2.450524   2.482561   2.816230   4.191900
    16  Si   5.766931   4.085785   3.551289   3.446785   5.694367
    17  C    6.329536   5.254090   5.183090   4.759987   6.778229
    18  C    6.512369   5.154172   3.645433   2.945987   6.009164
    19  C    6.976144   4.603046   4.324176   4.809511   6.776041
    20  H    7.562933   6.146996   4.686684   4.004730   7.105520
    21  H    6.215319   5.388156   3.814501   2.621231   5.765934
    22  H    6.604887   5.031069   3.150443   2.693540   5.775177
    23  H    7.976095   5.692432   5.249523   5.551103   7.780142
    24  H    7.063243   4.451753   3.918893   4.673509   6.573720
    25  H    6.932202   4.476902   4.782613   5.446102   6.954660
    26  H    7.414929   6.226202   5.978016   5.511887   7.782940
    27  H    6.254368   5.151320   5.582732   5.395041   6.947556
    28  H    6.049121   5.513780   5.354143   4.616919   6.610483
    29  H    3.672255   2.536603   4.337609   4.866131   4.653885
    30  H    3.116624   2.431566   4.801394   5.610418   4.257362
    31  H    2.439517   3.069852   4.836063   5.067491   4.063141
    32  H    3.052454   2.473628   4.025391   5.226378   2.633618
    33  H    2.519494   2.893463   4.985499   5.891688   3.334582
    34  H    3.106260   4.465229   5.235431   5.847174   2.562661
    35  H    2.591107   4.705837   6.006986   6.453601   3.291030
    36  H    3.771084   4.793243   6.228069   7.087208   3.868958
    37  C    3.095657   3.499195   3.469283   2.732842   3.626712
    38  C    2.686287   4.281111   4.186007   3.242823   3.337649
    39  C    2.894159   5.110557   5.423397   4.576092   4.115525
    40  H    3.367297   3.760186   4.269013   3.749870   4.358314
    41  H    4.136676   4.231055   3.646158   2.527857   4.371269
    42  H    3.034279   4.585614   3.995125   2.859917   3.053614
    43  H    3.356929   5.916773   6.125213   5.212016   4.457411
    44  H    3.224050   5.273361   5.947494   5.244730   4.783499
                   11         12         13         14         15
    11  O    0.000000
    12  C    4.535962   0.000000
    13  C    4.846297   1.531767   0.000000
    14  C    5.589546   3.152221   4.500128   0.000000
    15  O    4.792284   4.877846   6.245321   2.926969   0.000000
    16  Si   5.854844   6.560640   7.911021   4.395004   1.683927
    17  C    7.131190   7.464772   8.774712   4.765950   2.946757
    18  C    5.453114   7.444302   8.626551   5.817511   2.973455
    19  C    7.029960   7.276673   8.737240   5.185501   2.805795
    20  H    6.481613   8.505938   9.711497   6.722952   3.885426
    21  H    5.065967   7.407847   8.465418   5.891232   3.297933
    22  H    5.005671   7.301459   8.448419   6.083512   3.218231
    23  H    7.880598   8.361517   9.814968   6.180404   3.767727
    24  H    6.702524   7.123505   8.558156   5.469545   3.055918
    25  H    7.525480   7.093773   8.602711   4.814113   3.014950
    26  H    7.975820   8.522783   9.846775   5.824516   3.867829
    27  H    7.614345   7.281775   8.631767   4.338560   3.143843
    28  H    6.898977   7.461792   8.653690   4.855978   3.289512
    29  H    6.152412   4.155882   5.558520   1.091869   2.512984
    30  H    6.192224   2.908296   4.249774   1.092611   3.786901
    31  H    5.816622   3.478195   4.574539   1.094964   3.554088
    32  H    4.532728   1.097364   2.171035   3.582294   4.865101
    33  H    5.514964   1.094879   2.158395   2.758412   5.033869
    34  H    4.176059   2.179513   1.092665   5.136294   6.437363
    35  H    5.239616   2.180587   1.095771   4.590635   6.561037
    36  H    5.769248   2.173271   1.094202   5.155876   7.043900
    37  C    4.233604   4.751844   5.736829   3.091818   2.428990
    38  C    3.889902   4.702617   5.308694   3.838764   3.823570
    39  C    4.946458   5.051603   5.450835   4.186670   4.855214
    40  H    5.259277   5.003791   6.054847   2.726372   2.652237
    41  H    4.479008   5.739733   6.721862   4.037005   2.588077
    42  H    3.071454   4.881681   5.323740   4.592670   4.247318
    43  H    5.150036   5.467064   5.572483   5.094778   5.845006
    44  H    5.856028   5.291866   5.799358   3.924816   4.952319
                   16         17         18         19         20
    16  Si   0.000000
    17  C    1.887743   0.000000
    18  C    1.887990   3.089829   0.000000
    19  C    1.880991   3.078626   3.086598   0.000000
    20  H    2.478138   3.278209   1.096469   3.283923   0.000000
    21  H    2.525217   3.329331   1.094955   4.056209   1.763584
    22  H    2.506888   4.049437   1.094896   3.295633   1.767331
    23  H    2.490495   3.279085   3.313562   1.095762   3.136289
    24  H    2.496197   4.037598   3.289208   1.094929   3.578590
    25  H    2.494821   3.300712   4.042932   1.094990   4.292953
    26  H    2.486928   1.096383   3.318531   3.257078   3.132427
    27  H    2.499521   1.095392   4.045148   3.305689   4.290862
    28  H    2.519811   1.094371   3.300718   4.046157   3.566324
    29  H    3.718238   3.938244   5.352155   4.371100   6.149306
    30  H    5.262935   5.682911   6.745458   5.779045   7.642277
    31  H    4.898371   4.949115   6.224722   5.933561   7.117878
    32  H    6.517982   7.642695   7.364471   7.002214   8.410648
    33  H    6.696987   7.415469   7.815992   7.316297   8.836943
    34  H    8.055430   9.050038   8.539177   8.938570   9.634804
    35  H    8.195748   8.852271   8.930337   9.178715  10.007164
    36  H    8.724647   9.615398   9.520223   9.393664  10.597057
    37  C    3.315932   3.594288   3.891188   5.007012   4.825989
    38  C    4.768842   4.983305   5.036453   6.474367   5.975834
    39  C    5.799366   5.686873   6.220968   7.487985   7.100311
    40  H    3.434686   3.232657   4.397991   5.025371   5.216599
    41  H    2.902417   3.120473   3.089544   4.748667   3.945838
    42  H    5.159074   5.630191   5.076911   6.850615   6.041617
    43  H    6.801462   6.721268   7.069013   8.508636   7.948482
    44  H    5.846818   5.457159   6.533214   7.464528   7.352676
                   21         22         23         24         25
    21  H    0.000000
    22  H    1.771349   0.000000
    23  H    4.324575   3.611882   0.000000
    24  H    4.306986   3.123574   1.770788   0.000000
    25  H    4.924704   4.299391   1.769587   1.769914   0.000000
    26  H    3.655642   4.314283   3.079044   4.264450   3.567164
    27  H    4.328774   4.913737   3.599847   4.314481   3.154575
    28  H    3.169139   4.320581   4.284184   4.917410   4.321277
    29  H    5.552147   5.723094   5.309285   4.801148   3.904832
    30  H    6.894820   6.931653   6.794828   5.978178   5.266661
    31  H    6.127198   6.604006   6.864731   6.322280   5.606164
    32  H    7.455860   7.087045   8.095092   6.700207   6.833324
    33  H    7.834214   7.778492   8.394876   7.265096   6.977402
    34  H    8.326180   8.265715   9.999775   8.678054   8.930030
    35  H    8.667549   8.865646  10.235853   9.114241   9.030597
    36  H    9.428571   9.303281  10.484877   9.167608   9.181289
    37  C    3.458693   4.354631   5.783501   5.381856   5.242182
    38  C    4.385022   5.397089   7.252123   6.769413   6.725390
    39  C    5.548191   6.670145   8.253311   7.874558   7.617698
    40  H    4.077552   5.009449   5.769201   5.570507   5.073190
    41  H    2.498061   3.692178   5.371936   5.172333   5.171290
    42  H    4.344540   5.269804   7.620227   7.009058   7.226152
    43  H    6.316547   7.460793   9.274454   8.848356   8.669350
    44  H    5.949096   7.093042   8.207049   7.965148   7.465210
                   26         27         28         29         30
    26  H    0.000000
    27  H    1.768177   0.000000
    28  H    1.767272   1.769884   0.000000
    29  H    4.947848   3.392920   4.191950   0.000000
    30  H    6.704446   5.150187   5.861329   1.763602   0.000000
    31  H    6.026103   4.513446   4.817691   1.773703   1.766285
    32  H    8.652423   7.494689   7.769596   4.432445   3.272712
    33  H    8.476495   7.074582   7.457754   3.757572   2.203070
    34  H   10.099686   9.034403   8.894502   6.158331   5.040224
    35  H    9.942377   8.680137   8.618524   5.681464   4.409306
    36  H   10.681862   9.403723   9.561591   6.189573   4.696598
    37  C    4.612527   3.868832   3.131133   3.190987   4.161086
    38  C    5.959084   5.257077   4.342204   4.266041   4.788199
    39  C    6.661356   5.797951   4.946100   4.696436   5.028264
    40  H    4.292492   3.242854   2.760540   2.650721   3.801276
    41  H    4.004892   3.683567   2.544650   3.930628   5.118829
    42  H    6.547532   6.042350   5.013031   5.073121   5.489245
    43  H    7.668047   6.866399   5.934508   5.700826   5.843939
    44  H    6.432013   5.391029   4.728247   4.338290   4.728842
                   31         32         33         34         35
    31  H    0.000000
    32  H    4.168432   0.000000
    33  H    3.059987   1.759615   0.000000
    34  H    5.239840   2.535270   3.074701   0.000000
    35  H    4.401714   3.086318   2.515001   1.769350   0.000000
    36  H    5.299840   2.505192   2.493598   1.771199   1.768866
    37  C    2.938651   5.211817   4.995594   5.871941   5.681329
    38  C    3.395512   5.354299   5.075505   5.330770   5.056726
    39  C    3.423515   5.894471   5.260003   5.604023   4.938588
    40  H    2.391382   5.540930   5.009581   6.368386   5.908921
    41  H    3.953427   6.103733   6.035757   6.761725   6.701275
    42  H    4.286360   5.440155   5.460048   5.121643   5.152913
    43  H    4.306231   6.362741   5.752052   5.626308   4.935682
    44  H    2.995649   6.176492   5.275318   6.136745   5.230641
                   36         37         38         39         40
    36  H    0.000000
    37  C    6.732601   0.000000
    38  C    6.375424   1.506443   0.000000
    39  C    6.478533   2.516463   1.334628   0.000000
    40  H    6.988106   1.093961   2.141123   2.635960   0.000000
    41  H    7.730046   1.098608   2.112091   3.160759   1.757138
    42  H    6.415352   2.221674   1.089730   2.087848   3.100751
    43  H    6.592035   3.506034   2.115829   1.085806   3.718836
    44  H    6.752068   2.779785   2.119189   1.087660   2.443229
                   41         42         43         44
    41  H    0.000000
    42  H    2.544184   0.000000
    43  H    4.064901   2.423914   0.000000
    44  H    3.471485   3.071681   1.850419   0.000000
 Stoichiometry    C14H26O3Si
 Framework group  C1[X(C14H26O3Si)]
 Deg. of freedom   126
 Full point group                 C1      NOp   1
 Largest Abelian subgroup         C1      NOp   1
 Largest concise Abelian subgroup C1      NOp   1
                         Standard orientation:                         
 ---------------------------------------------------------------------
 Center     Atomic      Atomic             Coordinates (Angstroms)
 Number     Number       Type             X           Y           Z
 ---------------------------------------------------------------------
      1          6           0        2.301764   -0.601861   -0.109884
      2          6           0        0.855635   -1.117193   -0.206286
      3          6           0       -0.208977   -0.003176    0.000239
      4          6           0        0.113786    1.127070   -0.990747
      5          6           0        1.557794    1.581973   -1.046880
      6          1           0        2.555064   -0.436541    0.942605
      7          1           0        0.689827   -1.457927   -1.237246
      8          1           0       -0.127216    0.757755   -1.995224
      9          1           0       -0.501032    2.013904   -0.822938
     10          8           0        2.523885    0.692990   -0.754111
     11          8           0        1.876504    2.695075   -1.414134
     12          6           0        3.326893   -1.549321   -0.738542
     13          6           0        4.778025   -1.091888   -0.561679
     14          6           0        0.644976   -2.318447    0.728518
     15          8           0       -1.445888   -0.603868   -0.392041
     16         14           0       -3.078042   -0.207552   -0.271141
     17          6           0       -3.751931   -0.623787    1.442392
     18          6           0       -3.414720    1.607166   -0.668574
     19          6           0       -3.899810   -1.309249   -1.555309
     20          1           0       -4.495642    1.789936   -0.647461
     21          1           0       -2.956527    2.294150    0.050480
     22          1           0       -3.054903    1.874260   -1.667569
     23          1           0       -4.987238   -1.174786   -1.544716
     24          1           0       -3.542555   -1.077875   -2.564123
     25          1           0       -3.692186   -2.366508   -1.360117
     26          1           0       -4.841695   -0.504378    1.456931
     27          1           0       -3.529735   -1.662341    1.710568
     28          1           0       -3.338931    0.020428    2.224738
     29          1           0       -0.412096   -2.591302    0.746584
     30          1           0        1.207046   -3.191235    0.387760
     31          1           0        0.962495   -2.097403    1.752857
     32          1           0        3.089423   -1.654858   -1.804692
     33          1           0        3.200082   -2.538760   -0.287223
     34          1           0        4.942078   -0.112999   -1.018603
     35          1           0        5.041194   -1.016646    0.499355
     36          1           0        5.465827   -1.804973   -1.026133
     37          6           0       -0.343992    0.518397    1.458996
     38          6           0        0.812378    1.281735    2.050176
     39          6           0        1.415841    0.972100    3.199606
     40          1           0       -0.602530   -0.324261    2.106944
     41          1           0       -1.213085    1.190422    1.458492
     42          1           0        1.130216    2.179357    1.520303
     43          1           0        2.217836    1.583009    3.602804
     44          1           0        1.124890    0.100609    3.781719
 ---------------------------------------------------------------------
 Rotational constants (GHZ):      0.5677449      0.2323544      0.2275673
 Standard basis: 6-311G(d) (5D, 7F)
 There are   428 symmetry adapted cartesian basis functions of A   symmetry.
 There are   410 symmetry adapted basis functions of A   symmetry.
   410 basis functions,   720 primitive gaussians,   428 cartesian basis functions
    74 alpha electrons       74 beta electrons
       nuclear repulsion energy      1618.9806481147 Hartrees.
 NAtoms=   44 NActive=   44 NUniq=   44 SFac= 1.00D+00 NAtFMM=   60 NAOKFM=F Big=F
 Integral buffers will be    131072 words long.
 Raffenetti 2 integral format.
 Two-electron integral symmetry is turned on.
 ------------------------------------------------------------------------------
 Polarizable Continuum Model (PCM)
 =================================
 Model                : PCM (using non-symmetric T matrix).
 Atomic radii         : UFF (Universal Force Field).
 Polarization charges : Total charges.
 Charge compensation  : None.
 Solution method      : On-the-fly selection.
 Cavity type          : Scaled VdW (van der Waals Surface) (Alpha=1.100).
 Cavity algorithm     : GePol (No added spheres)
                        Default sphere list used, NSphG=   44.
                        Lebedev-Laikov grids with approx.  5.0 points / Ang**2.
                        Smoothing algorithm: Karplus/York (Gamma=1.0000).
                        Polarization charges: spherical gaussians, with
                                              point-specific exponents (IZeta= 3).
                        Self-potential: point-specific (ISelfS= 7).
                        Self-field    : sphere-specific E.n sum rule (ISelfD= 2).
 Solvent              : Chloroform, Eps=   4.711300 Eps(inf)=   2.090627
 ------------------------------------------------------------------------------
 One-electron integrals computed using PRISM.
 NBasis=   410 RedAO= T EigKep=  9.88D-04  NBF=   410
 NBsUse=   410 1.00D-06 EigRej= -1.00D+00 NBFU=   410
 ExpMin= 6.54D-02 ExpMax= 6.94D+04 ExpMxC= 2.33D+03 IAcc=2 IRadAn=         4 AccDes= 0.00D+00
 Harris functional with IExCor=  908 and IRadAn=       4 diagonalized for initial guess.
 HarFok:  IExCor=  908 AccDes= 0.00D+00 IRadAn=         4 IDoV= 1 UseB2=F ITyADJ=14
 ICtDFT=  3500011 ScaDFX=  1.000000  1.000000  1.000000  1.000000
 FoFCou: FMM=F IPFlag=           0 FMFlag=      100000 FMFlg1=           0
         NFxFlg=           0 DoJE=T BraDBF=F KetDBF=T FulRan=T
         wScrn=  0.000000 ICntrl=     500 IOpCl=  0 I1Cent=   200000004 NGrid=           0
         NMat0=    1 NMatS0=      1 NMatT0=    0 NMatD0=    1 NMtDS0=    0 NMtDT0=    0
 Petite list used in FoFCou.
 Requested convergence on RMS density matrix=1.00D-08 within 128 cycles.
 Requested convergence on MAX density matrix=1.00D-06.
 Requested convergence on             energy=1.00D-06.
 No special actions if energy rises.
 Inv3:  Mode=1 IEnd=    25212603.
 Iteration    1 A*A^-1 deviation from unit magnitude is 5.11D-15 for   2898.
 Iteration    1 A*A^-1 deviation from orthogonality  is 2.62D-15 for   2338    436.
 Iteration    1 A^-1*A deviation from unit magnitude is 5.11D-15 for   2898.
 Iteration    1 A^-1*A deviation from orthogonality  is 3.73D-13 for   2058   2045.
 Error on total polarization charges =  0.01141
 SCF Done:  E(RmPW1PW91) =  -1064.38273664     A.U. after   13 cycles
            NFock= 13  Conv=0.32D-08     -V/T= 2.0036
 DoSCS=F DFT=T ScalE2(SS,OS)=  1.000000  1.000000
 Range of M.O.s used for correlation:     1   410
 NBasis=   410 NAE=    74 NBE=    74 NFC=     0 NFV=     0
 NROrb=    410 NOA=    74 NOB=    74 NVA=   336 NVB=   336
 NEqPCM:  Using equilibrium solvation (IEInf=0, Eps=   4.7113, EpsInf=   2.0906)
          Differentiating once with respect to magnetic field using GIAOs.
          Electric field/nuclear overlap derivatives assumed to be zero.
 FoFJK:  IHMeth= 1 ICntrl=    6127 DoSepK=F KAlg= 0 I1Cent=   0 FoldK=F
 IRaf=         1 NMat=   1 IRICut=       1 DoRegI=T DoRafI=F ISym2E= 0.
          There are     3 degrees of freedom in the 1st order CPHF.  IDoFFX=0 NUNeed=     3.
      3 vectors produced by pass  0 Test12= 8.29D-13 3.33D-08 XBig12= 3.72D+01 8.09D-01.
 AX will form     3 AO Fock derivatives at one time.
      3 vectors produced by pass  1 Test12= 8.29D-13 3.33D-08 XBig12= 7.48D-02 8.22D-02.
      3 vectors produced by pass  2 Test12= 8.29D-13 3.33D-08 XBig12= 9.62D-04 1.07D-02.
      3 vectors produced by pass  3 Test12= 8.29D-13 3.33D-08 XBig12= 4.75D-06 3.39D-04.
      3 vectors produced by pass  4 Test12= 8.29D-13 3.33D-08 XBig12= 1.64D-08 2.08D-05.
      3 vectors produced by pass  5 Test12= 8.29D-13 3.33D-08 XBig12= 5.92D-11 1.37D-06.
      1 vectors produced by pass  6 Test12= 8.29D-13 3.33D-08 XBig12= 2.39D-13 6.40D-08.
 InvSVY:  IOpt=1 It=  1 EMax= 4.44D-15
 Solved reduced A of dimension    19 with     3 vectors.
 Calculating GIAO nuclear magnetic shielding tensors.
 SCF GIAO Magnetic shielding tensor (ppm):
      1  C    Isotropic =   100.7053   Anisotropy =    51.0572
   XX=    93.2079   YX=     9.7028   ZX=   -10.1208
   XY=    -3.3885   YY=   118.7263   ZY=   -25.1243
   XZ=    -1.8986   YZ=   -26.4726   ZZ=    90.1816
   Eigenvalues:    74.2758    93.0966   134.7434
      2  C    Isotropic =   139.0444   Anisotropy =    25.7307
   XX=   151.4543   YX=   -10.4237   ZX=    -0.0079
   XY=   -10.9680   YY=   130.3145   ZY=    12.7079
   XZ=     2.9043   YZ=     5.8316   ZZ=   135.3643
   Eigenvalues:   120.2882   140.6467   156.1982
      3  C    Isotropic =   107.6375   Anisotropy =    54.4129
   XX=   132.8709   YX=    15.6368   ZX=    14.5789
   XY=    14.6456   YY=    99.2357   ZY=     6.9888
   XZ=    16.2538   YZ=     5.6965   ZZ=    90.8057
   Eigenvalues:    85.5577    93.4419   143.9127
      4  C    Isotropic =   140.0784   Anisotropy =    33.3444
   XX=   145.8006   YX=    10.7775   ZX=    -9.2000
   XY=    13.7566   YY=   142.3727   ZY=   -16.1491
   XZ=    -4.2695   YZ=    -8.3384   ZZ=   132.0618
   Eigenvalues:   123.8382   134.0889   162.3079
      5  C    Isotropic =    12.7627   Anisotropy =    90.9084
   XX=   -57.8712   YX=    36.3313   ZX=   -16.3594
   XY=    48.6228   YY=    28.9532   ZY=    15.7785
   XZ=   -18.6801   YZ=    17.2188   ZZ=    67.2061
   Eigenvalues:   -78.6658    43.5856    73.3683
      6  H    Isotropic =    27.8494   Anisotropy =     3.3513
   XX=    28.4754   YX=    -1.4866   ZX=    -1.1468
   XY=    -0.4351   YY=    25.8775   ZY=     0.4338
   XZ=    -0.3884   YZ=     1.4026   ZZ=    29.1954
   Eigenvalues:    25.4448    28.0199    30.0837
      7  H    Isotropic =    30.2807   Anisotropy =     3.7886
   XX=    30.5959   YX=    -1.4159   ZX=    -0.0275
   XY=    -1.5433   YY=    28.4873   ZY=     2.2426
   XZ=    -0.0087   YZ=     1.4678   ZZ=    31.7588
   Eigenvalues:    27.1212    30.9143    32.8064
      8  H    Isotropic =    29.5848   Anisotropy =     4.1871
   XX=    29.9105   YX=     0.5751   ZX=     0.4537
   XY=     0.6433   YY=    27.0964   ZY=    -1.7938
   XZ=     1.1513   YZ=    -1.3489   ZZ=    31.7474
   Eigenvalues:    26.4205    29.9577    32.3761
      9  H    Isotropic =    29.3041   Anisotropy =     3.9569
   XX=    31.3564   YX=    -1.3281   ZX=    -0.7043
   XY=     0.2950   YY=    31.1121   ZY=    -2.0252
   XZ=    -1.3535   YZ=    -2.4403   ZZ=    25.4439
   Eigenvalues:    24.4805    31.4898    31.9421
     10  O    Isotropic =    98.5129   Anisotropy =   202.2761
   XX=   145.0178   YX=   -84.4481   ZX=    28.5259
   XY=   -96.8381   YY=   -49.0631   ZY=   116.7953
   XZ=    28.2843   YZ=    78.1486   ZZ=   199.5841
   Eigenvalues:  -117.1138   179.2890   233.3637
     11  O    Isotropic =   -98.7761   Anisotropy =   551.3270
   XX=  -209.7159   YX=    57.0260   ZX=   -33.8749
   XY=    35.9170   YY=  -295.5421   ZY=   194.6637
   XZ=   -36.5117   YZ=   170.2374   ZZ=   208.9298
   Eigenvalues:  -373.2138  -191.8896   268.7753
     12  C    Isotropic =   156.0620   Anisotropy =    25.7261
   XX=   162.9556   YX=   -10.5887   ZX=    -4.8046
   XY=    -8.2992   YY=   153.5376   ZY=     8.5965
   XZ=    -5.5900   YZ=    10.6338   ZZ=   151.6927
   Eigenvalues:   142.5336   152.4396   173.2127
     13  C    Isotropic =   175.5773   Anisotropy =    21.8513
   XX=   189.3042   YX=     1.3316   ZX=     1.9044
   XY=     4.8279   YY=   164.9409   ZY=     4.9111
   XZ=     2.2848   YZ=     6.0576   ZZ=   172.4867
   Eigenvalues:   161.9415   174.6454   190.1448
     14  C    Isotropic =   176.3592   Anisotropy =    17.9784
   XX=   170.5764   YX=    -0.6872   ZX=    -2.4486
   XY=     4.1534   YY=   178.8045   ZY=    -9.2589
   XZ=    -3.3056   YZ=    -7.6930   ZZ=   179.6966
   Eigenvalues:   169.5528   171.1799   188.3448
     15  O    Isotropic =   227.0511   Anisotropy =    59.3948
   XX=   212.2520   YX=    12.5176   ZX=    10.2341
   XY=    13.6606   YY=   222.7844   ZY=    19.1601
   XZ=    21.8119   YZ=    23.8719   ZZ=   246.1171
   Eigenvalues:   203.3222   211.1836   266.6477
     16  Si   Isotropic =   333.2832   Anisotropy =    41.8482
   XX=   359.0157   YX=   -17.4010   ZX=    -1.6982
   XY=    -0.3728   YY=   318.6436   ZY=     4.6632
   XZ=    10.0029   YZ=     1.9311   ZZ=   322.1904
   Eigenvalues:   314.5276   324.1400   361.1820
     17  C    Isotropic =   185.2507   Anisotropy =    11.9960
   XX=   187.5158   YX=     0.0931   ZX=    -4.0795
   XY=    -0.7448   YY=   177.6863   ZY=    -4.1676
   XZ=    -2.1926   YZ=    -4.0036   ZZ=   190.5501
   Eigenvalues:   176.3651   186.1390   193.2481
     18  C    Isotropic =   185.8910   Anisotropy =     9.0022
   XX=   187.8611   YX=    -2.1368   ZX=     0.0029
   XY=     0.3961   YY=   190.4840   ZY=    -4.0303
   XZ=    -1.3586   YZ=    -4.0590   ZZ=   179.3279
   Eigenvalues:   177.9315   187.8489   191.8925
     19  C    Isotropic =   186.4337   Anisotropy =    13.1615
   XX=   189.1879   YX=     1.7186   ZX=     2.9369
   XY=     1.6907   YY=   183.1787   ZY=     8.4307
   XZ=     2.7845   YZ=     7.8194   ZZ=   186.9345
   Eigenvalues:   176.7005   187.3925   195.2081
     20  H    Isotropic =    32.1649   Anisotropy =    10.4933
   XX=    37.8470   YX=    -3.5934   ZX=     0.5910
   XY=    -2.9701   YY=    30.6691   ZY=    -0.5704
   XZ=     0.3784   YZ=    -0.5929   ZZ=    27.9787
   Eigenvalues:    27.8525    29.4818    39.1605
     21  H    Isotropic =    31.8566   Anisotropy =     6.5008
   XX=    31.2719   YX=     0.2828   ZX=     2.2616
   XY=     1.2798   YY=    34.0441   ZY=     3.1174
   XZ=     2.0619   YZ=     2.5470   ZZ=    30.2539
   Eigenvalues:    27.9387    31.4407    36.1905
     22  H    Isotropic =    31.8669   Anisotropy =     7.6258
   XX=    30.5143   YX=    -0.3744   ZX=    -1.0943
   XY=     0.5179   YY=    30.4684   ZY=    -3.9580
   XZ=    -1.2744   YZ=    -3.4204   ZZ=    34.6179
   Eigenvalues:    28.1802    30.4697    36.9507
     23  H    Isotropic =    32.3752   Anisotropy =    10.2425
   XX=    38.8230   YX=     0.6080   ZX=     1.9139
   XY=     0.4093   YY=    28.9623   ZY=     0.7589
   XZ=     1.7422   YZ=     0.7842   ZZ=    29.3403
   Eigenvalues:    28.2957    29.6263    39.2036
     24  H    Isotropic =    32.0367   Anisotropy =     8.3418
   XX=    29.8664   YX=     1.2414   ZX=    -0.4941
   XY=     0.9112   YY=    28.7098   ZY=     0.4882
   XZ=    -0.9089   YZ=    -0.1679   ZZ=    37.5338
   Eigenvalues:    28.0399    30.4722    37.5979
     25  H    Isotropic =    31.9424   Anisotropy =     8.3095
   XX=    29.5522   YX=     0.2485   ZX=     1.3394
   XY=    -0.1080   YY=    37.4466   ZY=     0.1853
   XZ=     1.2032   YZ=     0.8781   ZZ=    28.8285
   Eigenvalues:    27.8533    30.4920    37.4821
     26  H    Isotropic =    32.2733   Anisotropy =    10.3552
   XX=    38.6751   YX=    -0.1643   ZX=    -2.2815
   XY=    -0.3415   YY=    28.2502   ZY=    -0.2919
   XZ=    -2.0211   YZ=    -0.3041   ZZ=    29.8947
   Eigenvalues:    28.1504    29.4929    39.1768
     27  H    Isotropic =    31.8818   Anisotropy =     7.9008
   XX=    30.0570   YX=    -0.0789   ZX=    -0.8285
   XY=    -0.5824   YY=    35.3054   ZY=    -3.1967
   XZ=    -0.2733   YZ=    -3.9185   ZZ=    30.2831
   Eigenvalues:    28.2162    30.2802    37.1491
     28  H    Isotropic =    31.9414   Anisotropy =     6.4624
   XX=    31.5803   YX=     1.8953   ZX=     0.2189
   XY=     1.7518   YY=    29.7206   ZY=     2.4934
   XZ=     1.0783   YZ=     3.1700   ZZ=    34.5235
   Eigenvalues:    27.8615    31.7131    36.2497
     29  H    Isotropic =    30.4932   Anisotropy =     7.5042
   XX=    34.6312   YX=     1.3135   ZX=    -0.0248
   XY=     2.0149   YY=    31.5346   ZY=    -2.6728
   XZ=    -0.3978   YZ=    -2.0583   ZZ=    25.3137
   Eigenvalues:    24.5051    31.4784    35.4960
     30  H    Isotropic =    31.1803   Anisotropy =     9.8666
   XX=    30.0845   YX=    -2.9039   ZX=    -2.4391
   XY=    -2.9355   YY=    36.5312   ZY=     0.2412
   XZ=    -2.0013   YZ=     0.2439   ZZ=    26.9254
   Eigenvalues:    25.6485    30.1345    37.7581
     31  H    Isotropic =    31.4142   Anisotropy =     7.7167
   XX=    28.3202   YX=    -1.3262   ZX=     1.3340
   XY=    -0.4648   YY=    29.9375   ZY=    -1.7166
   XZ=     1.5895   YZ=    -0.8304   ZZ=    35.9849
   Eigenvalues:    27.8256    29.8583    36.5587
     32  H    Isotropic =    30.6847   Anisotropy =     5.5758
   XX=    31.9264   YX=    -0.5221   ZX=    -0.2227
   XY=    -0.3788   YY=    26.9998   ZY=     3.2687
   XZ=    -0.0585   YZ=     2.7687   ZZ=    33.1279
   Eigenvalues:    25.7412    31.9110    34.4019
     33  H    Isotropic =    30.3469   Anisotropy =     5.5852
   XX=    32.8450   YX=    -0.2788   ZX=    -2.1817
   XY=    -0.4472   YY=    33.5823   ZY=    -2.1974
   XZ=    -1.8955   YZ=    -2.0489   ZZ=    24.6134
   Eigenvalues:    23.6698    33.3006    34.0703
     34  H    Isotropic =    30.5629   Anisotropy =     7.7521
   XX=    32.9745   YX=     2.4162   ZX=    -1.7034
   XY=     1.4216   YY=    32.1608   ZY=    -3.1836
   XZ=    -1.8104   YZ=    -2.8563   ZZ=    26.5534
   Eigenvalues:    25.1363    30.8214    35.7309
     35  H    Isotropic =    31.2897   Anisotropy =     8.8249
   XX=    33.2996   YX=     0.2693   ZX=     3.9805
   XY=    -0.0727   YY=    26.8451   ZY=     0.8912
   XZ=     3.2827   YZ=     0.2672   ZZ=    33.7243
   Eigenvalues:    26.7876    29.9085    37.1729
     36  H    Isotropic =    31.0639   Anisotropy =    11.5233
   XX=    35.8006   YX=    -4.0813   ZX=    -2.9279
   XY=    -3.3521   YY=    29.5440   ZY=     2.2701
   XZ=    -2.8185   YZ=     2.5673   ZZ=    27.8471
   Eigenvalues:    26.1253    28.3203    38.7460
     37  C    Isotropic =   140.5221   Anisotropy =    29.5265
   XX=   146.5844   YX=     7.7177   ZX=     4.6879
   XY=    11.0759   YY=   128.3077   ZY=    15.6183
   XZ=     5.2012   YZ=    12.1043   ZZ=   146.6743
   Eigenvalues:   119.4472   141.9127   160.2065
     38  C    Isotropic =    46.2745   Anisotropy =   175.2448
   XX=    61.7367   YX=   -98.1052   ZX=   -23.7564
   XY=   -97.8293   YY=    -1.3495   ZY=    49.2902
   XZ=   -28.3879   YZ=    47.8228   ZZ=    78.4364
   Eigenvalues:   -76.7076    52.4268   163.1044
     39  C    Isotropic =    63.7662   Anisotropy =   144.8305
   XX=    67.3616   YX=   -92.0440   ZX=   -21.6282
   XY=   -89.8576   YY=    20.7850   ZY=    33.8780
   XZ=   -17.6280   YZ=    31.2556   ZZ=   103.1519
   Eigenvalues:   -51.0818    82.0605   160.3198
     40  H    Isotropic =    29.2664   Anisotropy =     2.7583
   XX=    29.4593   YX=     1.0740   ZX=    -0.5817
   XY=    -0.6104   YY=    27.2545   ZY=     0.0368
   XZ=     0.2250   YZ=    -0.0683   ZZ=    31.0855
   Eigenvalues:    27.2304    29.4636    31.1053
     41  H    Isotropic =    29.7048   Anisotropy =     6.6269
   XX=    33.6929   YX=    -1.5471   ZX=     2.0580
   XY=    -1.5212   YY=    27.4300   ZY=     1.8263
   XZ=     0.2569   YZ=     2.6066   ZZ=    27.9913
   Eigenvalues:    25.0514    29.9402    34.1227
     42  H    Isotropic =    25.9829   Anisotropy =     6.5085
   XX=    24.8870   YX=    -0.3285   ZX=     2.1744
   XY=     0.1686   YY=    24.6623   ZY=     3.2561
   XZ=     1.5044   YZ=     2.2223   ZZ=    28.3994
   Eigenvalues:    22.7340    24.8928    30.3219
     43  H    Isotropic =    26.7698   Anisotropy =     6.7236
   XX=    26.0966   YX=    -0.2168   ZX=     1.8609
   XY=    -1.1275   YY=    24.3478   ZY=     0.5098
   XZ=     3.2562   YZ=     1.9474   ZZ=    29.8650
   Eigenvalues:    23.3504    25.7068    31.2522
     44  H    Isotropic =    26.6285   Anisotropy =     7.0464
   XX=    25.5538   YX=    -2.3530   ZX=     2.8942
   XY=    -0.8249   YY=    23.6877   ZY=     1.7804
   XZ=     1.0717   YZ=    -0.5268   ZZ=    30.6440
   Eigenvalues:    22.4734    26.0861    31.3261
 End of Minotr F.D. properties file   721 does not exist.
 End of Minotr F.D. properties file   722 does not exist.
 End of Minotr F.D. properties file   788 does not exist.

 **********************************************************************

            Population analysis using the SCF density.

 **********************************************************************

 Orbital symmetries:
       Occupied  (A) (A) (A) (A) (A) (A) (A) (A) (A) (A) (A) (A)
                 (A) (A) (A) (A) (A) (A) (A) (A) (A) (A) (A) (A)
                 (A) (A) (A) (A) (A) (A) (A) (A) (A) (A) (A) (A)
                 (A) (A) (A) (A) (A) (A) (A) (A) (A) (A) (A) (A)
                 (A) (A) (A) (A) (A) (A) (A) (A) (A) (A) (A) (A)
                 (A) (A) (A) (A) (A) (A) (A) (A) (A) (A) (A) (A)
                 (A) (A)
       Virtual   (A) (A) (A) (A) (A) (A) (A) (A) (A) (A) (A) (A)
                 (A) (A) (A) (A) (A) (A) (A) (A) (A) (A) (A) (A)
                 (A) (A) (A) (A) (A) (A) (A) (A) (A) (A) (A) (A)
                 (A) (A) (A) (A) (A) (A) (A) (A) (A) (A) (A) (A)
                 (A) (A) (A) (A) (A) (A) (A) (A) (A) (A) (A) (A)
                 (A) (A) (A) (A) (A) (A) (A) (A) (A) (A) (A) (A)
                 (A) (A) (A) (A) (A) (A) (A) (A) (A) (A) (A) (A)
                 (A) (A) (A) (A) (A) (A) (A) (A) (A) (A) (A) (A)
                 (A) (A) (A) (A) (A) (A) (A) (A) (A) (A) (A) (A)
                 (A) (A) (A) (A) (A) (A) (A) (A) (A) (A) (A) (A)
                 (A) (A) (A) (A) (A) (A) (A) (A) (A) (A) (A) (A)
                 (A) (A) (A) (A) (A) (A) (A) (A) (A) (A) (A) (A)
                 (A) (A) (A) (A) (A) (A) (A) (A) (A) (A) (A) (A)
                 (A) (A) (A) (A) (A) (A) (A) (A) (A) (A) (A) (A)
                 (A) (A) (A) (A) (A) (A) (A) (A) (A) (A) (A) (A)
                 (A) (A) (A) (A) (A) (A) (A) (A) (A) (A) (A) (A)
                 (A) (A) (A) (A) (A) (A) (A) (A) (A) (A) (A) (A)
                 (A) (A) (A) (A) (A) (A) (A) (A) (A) (A) (A) (A)
                 (A) (A) (A) (A) (A) (A) (A) (A) (A) (A) (A) (A)
                 (A) (A) (A) (A) (A) (A) (A) (A) (A) (A) (A) (A)
                 (A) (A) (A) (A) (A) (A) (A) (A) (A) (A) (A) (A)
                 (A) (A) (A) (A) (A) (A) (A) (A) (A) (A) (A) (A)
                 (A) (A) (A) (A) (A) (A) (A) (A) (A) (A) (A) (A)
                 (A) (A) (A) (A) (A) (A) (A) (A) (A) (A) (A) (A)
                 (A) (A) (A) (A) (A) (A) (A) (A) (A) (A) (A) (A)
                 (A) (A) (A) (A) (A) (A) (A) (A) (A) (A) (A) (A)
                 (A) (A) (A) (A) (A) (A) (A) (A) (A) (A) (A) (A)
                 (A) (A) (A) (A) (A) (A) (A) (A) (A) (A) (A) (A)
 The electronic state is 1-A.
 Alpha  occ. eigenvalues --  -66.27419 -19.25692 -19.20664 -19.19423 -10.36848
 Alpha  occ. eigenvalues --  -10.31865 -10.30147 -10.25174 -10.24964 -10.24795
 Alpha  occ. eigenvalues --  -10.24643 -10.23647 -10.23323 -10.22638 -10.21927
 Alpha  occ. eigenvalues --  -10.21046 -10.20810 -10.20668  -5.33155  -3.67042
 Alpha  occ. eigenvalues --   -3.66750  -3.66733  -1.13050  -1.04611  -1.03989
 Alpha  occ. eigenvalues --   -0.85808  -0.83232  -0.80724  -0.77663  -0.73865
 Alpha  occ. eigenvalues --   -0.73014  -0.71794  -0.70370  -0.70118  -0.66775
 Alpha  occ. eigenvalues --   -0.63701  -0.62013  -0.58373  -0.56322  -0.53427
 Alpha  occ. eigenvalues --   -0.52669  -0.50590  -0.49092  -0.48045  -0.47045
 Alpha  occ. eigenvalues --   -0.46625  -0.45299  -0.44822  -0.44256  -0.43928
 Alpha  occ. eigenvalues --   -0.42790  -0.42527  -0.41801  -0.41629  -0.41066
 Alpha  occ. eigenvalues --   -0.40851  -0.40549  -0.40211  -0.39707  -0.38663
 Alpha  occ. eigenvalues --   -0.38227  -0.37732  -0.37246  -0.36231  -0.35996
 Alpha  occ. eigenvalues --   -0.35449  -0.34368  -0.33499  -0.32308  -0.31044
 Alpha  occ. eigenvalues --   -0.30198  -0.29815  -0.28082  -0.27205
 Alpha virt. eigenvalues --   -0.00347   0.01399   0.03806   0.05891   0.06149
 Alpha virt. eigenvalues --    0.06867   0.07373   0.07864   0.08507   0.09170
 Alpha virt. eigenvalues --    0.09227   0.09905   0.10278   0.10743   0.11018
 Alpha virt. eigenvalues --    0.11790   0.12055   0.13335   0.13574   0.13649
 Alpha virt. eigenvalues --    0.14140   0.14412   0.14922   0.15207   0.15608
 Alpha virt. eigenvalues --    0.15975   0.16615   0.16969   0.17562   0.17814
 Alpha virt. eigenvalues --    0.18330   0.19137   0.19734   0.20426   0.21200
 Alpha virt. eigenvalues --    0.22069   0.22436   0.23582   0.24060   0.24419
 Alpha virt. eigenvalues --    0.24611   0.25680   0.26957   0.27811   0.28212
 Alpha virt. eigenvalues --    0.28602   0.29640   0.30657   0.31459   0.32093
 Alpha virt. eigenvalues --    0.32794   0.33714   0.34173   0.35242   0.36329
 Alpha virt. eigenvalues --    0.36745   0.37408   0.38236   0.40271   0.40923
 Alpha virt. eigenvalues --    0.41226   0.41767   0.42542   0.42908   0.44305
 Alpha virt. eigenvalues --    0.44613   0.45155   0.47034   0.48045   0.48738
 Alpha virt. eigenvalues --    0.50338   0.50598   0.51288   0.51421   0.52768
 Alpha virt. eigenvalues --    0.53381   0.54257   0.54867   0.56272   0.56549
 Alpha virt. eigenvalues --    0.56941   0.57827   0.58473   0.58747   0.58974
 Alpha virt. eigenvalues --    0.59917   0.60180   0.60491   0.60886   0.61545
 Alpha virt. eigenvalues --    0.61580   0.61936   0.62338   0.62854   0.63419
 Alpha virt. eigenvalues --    0.63826   0.64645   0.64707   0.65127   0.65586
 Alpha virt. eigenvalues --    0.66348   0.66907   0.67058   0.67614   0.68225
 Alpha virt. eigenvalues --    0.68648   0.68760   0.69272   0.69807   0.70300
 Alpha virt. eigenvalues --    0.71219   0.72014   0.72980   0.73641   0.75014
 Alpha virt. eigenvalues --    0.75201   0.76559   0.77405   0.79133   0.81917
 Alpha virt. eigenvalues --    0.81981   0.84947   0.86106   0.87807   0.88084
 Alpha virt. eigenvalues --    0.88782   0.90014   0.91640   0.93680   0.95034
 Alpha virt. eigenvalues --    0.95581   0.97004   0.98035   1.00410   1.01122
 Alpha virt. eigenvalues --    1.03392   1.03714   1.05541   1.07066   1.11216
 Alpha virt. eigenvalues --    1.13184   1.15275   1.15993   1.18863   1.20675
 Alpha virt. eigenvalues --    1.21602   1.23017   1.24387   1.25558   1.27174
 Alpha virt. eigenvalues --    1.28258   1.31375   1.32093   1.32662   1.33120
 Alpha virt. eigenvalues --    1.34695   1.37548   1.38980   1.39981   1.41322
 Alpha virt. eigenvalues --    1.41731   1.44386   1.46071   1.47005   1.48809
 Alpha virt. eigenvalues --    1.50010   1.50671   1.51626   1.53020   1.53716
 Alpha virt. eigenvalues --    1.54368   1.54851   1.55785   1.57187   1.58206
 Alpha virt. eigenvalues --    1.58926   1.59534   1.59591   1.60319   1.61266
 Alpha virt. eigenvalues --    1.61816   1.62102   1.62355   1.62487   1.64009
 Alpha virt. eigenvalues --    1.64837   1.65994   1.66807   1.67934   1.68362
 Alpha virt. eigenvalues --    1.68790   1.70982   1.72587   1.73659   1.74732
 Alpha virt. eigenvalues --    1.75674   1.77462   1.78674   1.80677   1.80913
 Alpha virt. eigenvalues --    1.81611   1.81682   1.84801   1.86372   1.86811
 Alpha virt. eigenvalues --    1.88888   1.90001   1.92459   1.95817   1.98174
 Alpha virt. eigenvalues --    2.01348   2.04212   2.05806   2.08973   2.11707
 Alpha virt. eigenvalues --    2.16883   2.18023   2.20343   2.23493   2.25034
 Alpha virt. eigenvalues --    2.26381   2.28948   2.34522   2.35239   2.41267
 Alpha virt. eigenvalues --    2.41462   2.41737   2.42289   2.42588   2.43100
 Alpha virt. eigenvalues --    2.43871   2.45057   2.45529   2.46507   2.47235
 Alpha virt. eigenvalues --    2.47712   2.48352   2.49429   2.49720   2.51869
 Alpha virt. eigenvalues --    2.53417   2.54353   2.55846   2.60184   2.60828
 Alpha virt. eigenvalues --    2.61976   2.65043   2.65588   2.73329   2.79537
 Alpha virt. eigenvalues --    2.81891   2.86855   2.88402   2.89916   2.91459
 Alpha virt. eigenvalues --    2.92282   2.93734   2.94285   2.95868   2.97281
 Alpha virt. eigenvalues --    2.99262   3.00337   3.00971   3.03135   3.05488
 Alpha virt. eigenvalues --    3.06914   3.08914   3.12126   3.14519   3.15085
 Alpha virt. eigenvalues --    3.16005   3.16804   3.17947   3.19183   3.20059
 Alpha virt. eigenvalues --    3.22270   3.22465   3.23097   3.23425   3.24761
 Alpha virt. eigenvalues --    3.25169   3.26876   3.29060   3.29231   3.31670
 Alpha virt. eigenvalues --    3.34165   3.34899   3.36352   3.38408   3.41162
 Alpha virt. eigenvalues --    3.42349   3.50733   3.59823   3.61654   3.66400
 Alpha virt. eigenvalues --    3.78313   3.87545   3.89469   3.99223   4.04429
 Alpha virt. eigenvalues --    4.09616   4.12416   4.20790   4.21671   4.26590
 Alpha virt. eigenvalues --    4.94649   5.01261   5.02866   5.10095   5.16291
 Alpha virt. eigenvalues --    5.23985   5.54192   5.56097   5.77335   5.86079
 Alpha virt. eigenvalues --   11.51811  11.52953  11.56714  23.42843  23.48632
 Alpha virt. eigenvalues --   23.53922  23.54416  23.56788  23.59868  23.71430
 Alpha virt. eigenvalues --   23.73221  23.77892  23.80576  23.82988  23.88890
 Alpha virt. eigenvalues --   23.89647  24.28372  50.00205  50.05567  50.13774
 Alpha virt. eigenvalues --  141.28673
          Condensed to atoms (all electrons):
               1          2          3          4          5          6
     1  C    5.256452   0.250110  -0.038987  -0.001836  -0.051400   0.375447
     2  C    0.250110   5.564493   0.267387  -0.101171  -0.008077  -0.038440
     3  C   -0.038987   0.267387   5.186595   0.237747  -0.023054  -0.012857
     4  C   -0.001836  -0.101171   0.237747   5.840827   0.244558   0.001714
     5  C   -0.051400  -0.008077  -0.023054   0.244558   4.408997  -0.001682
     6  H    0.375447  -0.038440  -0.012857   0.001714  -0.001682   0.472527
     7  H   -0.044794   0.402104  -0.059857  -0.004452   0.001139   0.007121
     8  H    0.001806  -0.007728  -0.032546   0.368956  -0.025442  -0.000051
     9  H   -0.000730   0.007537  -0.028486   0.360063  -0.027199   0.000172
    10  O    0.208991  -0.028005   0.002244  -0.103709   0.343729  -0.034335
    11  O    0.002226  -0.000319   0.004158  -0.094523   0.661440  -0.000058
    12  C    0.317328  -0.064118   0.007810  -0.002244   0.002156  -0.047230
    13  C   -0.070401   0.007012  -0.000144   0.000038   0.000052  -0.005869
    14  C   -0.066821   0.294265  -0.053752   0.007330   0.000132  -0.001709
    15  O    0.004227  -0.063161   0.220220  -0.039501   0.001906  -0.000045
    16  Si   0.000262   0.002046  -0.044189  -0.011545   0.001436  -0.000091
    17  C    0.000004  -0.000170   0.000447  -0.000238   0.000003  -0.000001
    18  C    0.000009  -0.000320  -0.000250  -0.001130  -0.000134   0.000000
    19  C   -0.000002   0.000048   0.002385  -0.000229  -0.000005   0.000000
    20  H    0.000000   0.000006  -0.000084   0.000201   0.000001   0.000000
    21  H    0.000005  -0.000080   0.000511  -0.000064  -0.000103  -0.000001
    22  H    0.000003  -0.000089  -0.000037   0.000733  -0.000088   0.000000
    23  H    0.000000   0.000001  -0.000062  -0.000004   0.000000   0.000000
    24  H   -0.000001   0.000003  -0.000023   0.000079  -0.000002   0.000000
    25  H   -0.000002   0.000079  -0.000133  -0.000026   0.000000   0.000000
    26  H    0.000000   0.000003  -0.000066   0.000001   0.000000   0.000000
    27  H    0.000000   0.000034   0.000432  -0.000031   0.000001   0.000000
    28  H    0.000003  -0.000028   0.000147  -0.000028   0.000003   0.000000
    29  H    0.006969  -0.040935  -0.004852   0.000529  -0.000083  -0.000105
    30  H   -0.006234  -0.032749   0.006551  -0.000300  -0.000004  -0.000599
    31  H   -0.006247  -0.039940  -0.009611  -0.000196   0.000025   0.005737
    32  H   -0.045919  -0.005797  -0.000987   0.000272  -0.000178   0.008049
    33  H   -0.043023  -0.005398  -0.000084   0.000097   0.000024  -0.000481
    34  H   -0.011601   0.000449  -0.000057   0.000360   0.000822   0.000254
    35  H   -0.003891  -0.000129  -0.000007  -0.000001  -0.000093   0.004588
    36  H    0.008062  -0.000228   0.000011  -0.000001   0.000001  -0.000218
    37  C    0.006165  -0.085593   0.312554  -0.090079   0.003292   0.001200
    38  C   -0.017393   0.003662  -0.040963  -0.004821  -0.003045   0.002712
    39  C   -0.004682   0.002017  -0.000631  -0.000149   0.000022   0.003414
    40  H    0.000534  -0.011126  -0.031934   0.006687  -0.000192  -0.000392
    41  H   -0.000372   0.006969  -0.043072  -0.008020   0.000214   0.000172
    42  H   -0.001418   0.001107  -0.006026   0.002308   0.005786   0.001172
    43  H    0.000060  -0.000048  -0.000107   0.000026  -0.000068  -0.000284
    44  H    0.000052   0.000051  -0.000080   0.000013   0.000009   0.000016
               7          8          9         10         11         12
     1  C   -0.044794   0.001806  -0.000730   0.208991   0.002226   0.317328
     2  C    0.402104  -0.007728   0.007537  -0.028005  -0.000319  -0.064118
     3  C   -0.059857  -0.032546  -0.028486   0.002244   0.004158   0.007810
     4  C   -0.004452   0.368956   0.360063  -0.103709  -0.094523  -0.002244
     5  C    0.001139  -0.025442  -0.027199   0.343729   0.661440   0.002156
     6  H    0.007121  -0.000051   0.000172  -0.034335  -0.000058  -0.047230
     7  H    0.476690   0.003624   0.000002   0.001594  -0.000084  -0.009066
     8  H    0.003624   0.408537  -0.014467   0.000698   0.000219  -0.000136
     9  H    0.000002  -0.014467   0.421132   0.004985   0.011178   0.000064
    10  O    0.001594   0.000698   0.004985   8.051511  -0.078159  -0.053713
    11  O   -0.000084   0.000219   0.011178  -0.078159   7.878849  -0.000148
    12  C   -0.009066  -0.000136   0.000064  -0.053713  -0.000148   5.315945
    13  C   -0.000054   0.000010  -0.000003  -0.005852  -0.000020   0.318695
    14  C   -0.035155  -0.000177  -0.000119   0.003293   0.000004  -0.004968
    15  O    0.005002  -0.000393  -0.001237  -0.000014  -0.000022  -0.000103
    16  Si  -0.000106   0.000268  -0.002431  -0.000155  -0.000254  -0.000001
    17  C    0.000060   0.000064  -0.000091   0.000000   0.000000   0.000000
    18  C    0.000009   0.000279  -0.002013  -0.000001  -0.000006   0.000000
    19  C   -0.000101  -0.000171  -0.000002   0.000000   0.000000   0.000000
    20  H    0.000000  -0.000015   0.000238   0.000000   0.000000   0.000000
    21  H   -0.000001  -0.000034   0.000618  -0.000001  -0.000021   0.000000
    22  H   -0.000005   0.000472  -0.000523   0.000000  -0.000005   0.000000
    23  H    0.000000   0.000003  -0.000002   0.000000   0.000000   0.000000
    24  H   -0.000028   0.000068   0.000005   0.000000   0.000000   0.000000
    25  H   -0.000029  -0.000025  -0.000004   0.000000   0.000000   0.000000
    26  H   -0.000001  -0.000001  -0.000001   0.000000   0.000000   0.000000
    27  H    0.000004   0.000000  -0.000004   0.000000   0.000000   0.000000
    28  H    0.000007   0.000007  -0.000019   0.000000   0.000000   0.000000
    29  H   -0.002412   0.000050  -0.000036  -0.000108   0.000000  -0.000122
    30  H   -0.007459  -0.000023   0.000015  -0.000014   0.000000   0.001731
    31  H    0.006590  -0.000012   0.000022   0.000042   0.000001   0.000157
    32  H    0.006210  -0.000036   0.000019   0.003206  -0.000110   0.386820
    33  H    0.000163  -0.000010  -0.000003   0.003789   0.000008   0.387848
    34  H    0.000021  -0.000012  -0.000009   0.013261   0.000257  -0.038796
    35  H    0.000007   0.000000   0.000000  -0.000416  -0.000003  -0.040663
    36  H   -0.000032   0.000000   0.000000  -0.000169   0.000000  -0.037902
    37  C    0.009053   0.006763  -0.007101  -0.001868   0.000190  -0.000743
    38  C   -0.000561  -0.000075   0.000680   0.004125  -0.002356   0.000587
    39  C   -0.000040  -0.000005  -0.000023  -0.000182   0.000014   0.000195
    40  H   -0.000132  -0.000178   0.000077  -0.000047   0.000001  -0.000045
    41  H   -0.000095  -0.000026   0.002168  -0.000015  -0.000043   0.000020
    42  H    0.000050   0.000271   0.000622  -0.003684   0.004944  -0.000091
    43  H   -0.000004  -0.000002  -0.000004   0.000112  -0.000017   0.000006
    44  H    0.000010   0.000002   0.000003  -0.000021   0.000000  -0.000008
              13         14         15         16         17         18
     1  C   -0.070401  -0.066821   0.004227   0.000262   0.000004   0.000009
     2  C    0.007012   0.294265  -0.063161   0.002046  -0.000170  -0.000320
     3  C   -0.000144  -0.053752   0.220220  -0.044189   0.000447  -0.000250
     4  C    0.000038   0.007330  -0.039501  -0.011545  -0.000238  -0.001130
     5  C    0.000052   0.000132   0.001906   0.001436   0.000003  -0.000134
     6  H   -0.005869  -0.001709  -0.000045  -0.000091  -0.000001   0.000000
     7  H   -0.000054  -0.035155   0.005002  -0.000106   0.000060   0.000009
     8  H    0.000010  -0.000177  -0.000393   0.000268   0.000064   0.000279
     9  H   -0.000003  -0.000119  -0.001237  -0.002431  -0.000091  -0.002013
    10  O   -0.005852   0.003293  -0.000014  -0.000155   0.000000  -0.000001
    11  O   -0.000020   0.000004  -0.000022  -0.000254   0.000000  -0.000006
    12  C    0.318695  -0.004968  -0.000103  -0.000001   0.000000   0.000000
    13  C    5.337252  -0.000305   0.000001   0.000001   0.000000   0.000000
    14  C   -0.000305   5.406605  -0.006688   0.000437  -0.000013  -0.000003
    15  O    0.000001  -0.006688   8.279308   0.350050  -0.024521  -0.023499
    16  Si   0.000001   0.000437   0.350050  11.515308   0.312396   0.311677
    17  C    0.000000  -0.000013  -0.024521   0.312396   5.769489  -0.053381
    18  C    0.000000  -0.000003  -0.023499   0.311677  -0.053381   5.782651
    19  C    0.000000  -0.000013  -0.030517   0.338469  -0.048388  -0.043724
    20  H    0.000000   0.000000   0.000811  -0.010939   0.000203   0.362795
    21  H    0.000000   0.000001  -0.001281  -0.028208  -0.001004   0.368737
    22  H    0.000000   0.000002  -0.002060  -0.025499   0.002104   0.369977
    23  H    0.000000   0.000000   0.001157  -0.014316   0.000837   0.000065
    24  H    0.000000   0.000005  -0.001566  -0.023491   0.002175  -0.000688
    25  H    0.000000   0.000010  -0.001770  -0.022762  -0.000635   0.002149
    26  H    0.000000   0.000001   0.000894  -0.011370   0.361443   0.000553
    27  H    0.000000   0.000145  -0.002356  -0.025791   0.370917   0.002016
    28  H    0.000000   0.000007  -0.001594  -0.027968   0.372007  -0.001199
    29  H    0.000018   0.384795   0.008620   0.001983   0.000329   0.000045
    30  H    0.000041   0.390969  -0.000165   0.000000  -0.000005   0.000000
    31  H   -0.000124   0.385149   0.000274  -0.000173   0.000008   0.000001
    32  H   -0.040804   0.001150  -0.000031  -0.000025   0.000000   0.000000
    33  H   -0.037274   0.001197  -0.000005  -0.000003   0.000000   0.000000
    34  H    0.384433  -0.000081   0.000000   0.000001   0.000000   0.000000
    35  H    0.385163   0.000067   0.000000   0.000000   0.000000   0.000000
    36  H    0.392425  -0.000002   0.000000   0.000000   0.000000   0.000000
    37  C    0.000019  -0.010033  -0.045008  -0.005587  -0.002579  -0.002350
    38  C   -0.000019   0.000053   0.004756   0.002867   0.000019  -0.000067
    39  C   -0.000011  -0.000397  -0.000085  -0.000320   0.000013   0.000002
    40  H    0.000001   0.001149   0.000103  -0.002803  -0.001419   0.000227
    41  H   -0.000001  -0.000296  -0.005587   0.009222  -0.000390   0.001828
    42  H   -0.000018  -0.000035  -0.000032  -0.000145  -0.000009   0.000015
    43  H    0.000004   0.000033   0.000003   0.000012   0.000000   0.000000
    44  H   -0.000001   0.000127  -0.000016  -0.000043   0.000003   0.000000
              19         20         21         22         23         24
     1  C   -0.000002   0.000000   0.000005   0.000003   0.000000  -0.000001
     2  C    0.000048   0.000006  -0.000080  -0.000089   0.000001   0.000003
     3  C    0.002385  -0.000084   0.000511  -0.000037  -0.000062  -0.000023
     4  C   -0.000229   0.000201  -0.000064   0.000733  -0.000004   0.000079
     5  C   -0.000005   0.000001  -0.000103  -0.000088   0.000000  -0.000002
     6  H    0.000000   0.000000  -0.000001   0.000000   0.000000   0.000000
     7  H   -0.000101   0.000000  -0.000001  -0.000005   0.000000  -0.000028
     8  H   -0.000171  -0.000015  -0.000034   0.000472   0.000003   0.000068
     9  H   -0.000002   0.000238   0.000618  -0.000523  -0.000002   0.000005
    10  O    0.000000   0.000000  -0.000001   0.000000   0.000000   0.000000
    11  O    0.000000   0.000000  -0.000021  -0.000005   0.000000   0.000000
    12  C    0.000000   0.000000   0.000000   0.000000   0.000000   0.000000
    13  C    0.000000   0.000000   0.000000   0.000000   0.000000   0.000000
    14  C   -0.000013   0.000000   0.000001   0.000002   0.000000   0.000005
    15  O   -0.030517   0.000811  -0.001281  -0.002060   0.001157  -0.001566
    16  Si   0.338469  -0.010939  -0.028208  -0.025499  -0.014316  -0.023491
    17  C   -0.048388   0.000203  -0.001004   0.002104   0.000837   0.002175
    18  C   -0.043724   0.362795   0.368737   0.369977   0.000065  -0.000688
    19  C    5.718457  -0.000474   0.002358  -0.000423   0.360708   0.369225
    20  H   -0.000474   0.445146  -0.020760  -0.021109   0.000559  -0.000054
    21  H    0.002358  -0.020760   0.445693  -0.019690  -0.000079  -0.000075
    22  H   -0.000423  -0.021109  -0.019690   0.447838  -0.000055   0.001262
    23  H    0.360708   0.000559  -0.000079  -0.000055   0.461409  -0.021713
    24  H    0.369225  -0.000054  -0.000075   0.001262  -0.021713   0.453884
    25  H    0.369610  -0.000076  -0.000085  -0.000055  -0.021825  -0.019707
    26  H   -0.000300   0.000450   0.000066  -0.000040   0.000748  -0.000036
    27  H   -0.000515  -0.000049  -0.000039  -0.000090   0.000017  -0.000072
    28  H    0.002241   0.000028   0.000669  -0.000030  -0.000063  -0.000094
    29  H    0.000002   0.000000   0.000004   0.000002  -0.000004  -0.000011
    30  H    0.000001   0.000000   0.000000   0.000000   0.000000   0.000001
    31  H    0.000001   0.000000   0.000000   0.000000   0.000000   0.000000
    32  H    0.000000   0.000000   0.000000   0.000000   0.000000   0.000000
    33  H    0.000000   0.000000   0.000000   0.000000   0.000000   0.000000
    34  H    0.000000   0.000000   0.000000   0.000000   0.000000   0.000000
    35  H    0.000000   0.000000   0.000000   0.000000   0.000000   0.000000
    36  H    0.000000   0.000000   0.000000   0.000000   0.000000   0.000000
    37  C   -0.000105   0.000066  -0.000220   0.000288   0.000006  -0.000006
    38  C    0.000004  -0.000001   0.000042   0.000008   0.000000   0.000001
    39  C    0.000000   0.000000  -0.000001   0.000000   0.000000   0.000000
    40  H   -0.000061  -0.000005   0.000052  -0.000004   0.000000  -0.000003
    41  H   -0.000009   0.000012   0.003795  -0.000319   0.000014   0.000001
    42  H    0.000000  -0.000001   0.000009  -0.000003   0.000000   0.000000
    43  H    0.000000   0.000000   0.000000   0.000000   0.000000   0.000000
    44  H    0.000000   0.000000   0.000000   0.000000   0.000000   0.000000
              25         26         27         28         29         30
     1  C   -0.000002   0.000000   0.000000   0.000003   0.006969  -0.006234
     2  C    0.000079   0.000003   0.000034  -0.000028  -0.040935  -0.032749
     3  C   -0.000133  -0.000066   0.000432   0.000147  -0.004852   0.006551
     4  C   -0.000026   0.000001  -0.000031  -0.000028   0.000529  -0.000300
     5  C    0.000000   0.000000   0.000001   0.000003  -0.000083  -0.000004
     6  H    0.000000   0.000000   0.000000   0.000000  -0.000105  -0.000599
     7  H   -0.000029  -0.000001   0.000004   0.000007  -0.002412  -0.007459
     8  H   -0.000025  -0.000001   0.000000   0.000007   0.000050  -0.000023
     9  H   -0.000004  -0.000001  -0.000004  -0.000019  -0.000036   0.000015
    10  O    0.000000   0.000000   0.000000   0.000000  -0.000108  -0.000014
    11  O    0.000000   0.000000   0.000000   0.000000   0.000000   0.000000
    12  C    0.000000   0.000000   0.000000   0.000000  -0.000122   0.001731
    13  C    0.000000   0.000000   0.000000   0.000000   0.000018   0.000041
    14  C    0.000010   0.000001   0.000145   0.000007   0.384795   0.390969
    15  O   -0.001770   0.000894  -0.002356  -0.001594   0.008620  -0.000165
    16  Si  -0.022762  -0.011370  -0.025791  -0.027968   0.001983   0.000000
    17  C   -0.000635   0.361443   0.370917   0.372007   0.000329  -0.000005
    18  C    0.002149   0.000553   0.002016  -0.001199   0.000045   0.000000
    19  C    0.369610  -0.000300  -0.000515   0.002241   0.000002   0.000001
    20  H   -0.000076   0.000450  -0.000049   0.000028   0.000000   0.000000
    21  H   -0.000085   0.000066  -0.000039   0.000669   0.000004   0.000000
    22  H   -0.000055  -0.000040  -0.000090  -0.000030   0.000002   0.000000
    23  H   -0.021825   0.000748   0.000017  -0.000063  -0.000004   0.000000
    24  H   -0.019707  -0.000036  -0.000072  -0.000094  -0.000011   0.000001
    25  H    0.453278  -0.000091   0.001132  -0.000089   0.000123   0.000003
    26  H   -0.000091   0.454490  -0.021755  -0.023004  -0.000002   0.000000
    27  H    0.001132  -0.021755   0.452411  -0.019562   0.000592  -0.000005
    28  H   -0.000089  -0.023004  -0.019562   0.451525  -0.000013  -0.000001
    29  H    0.000123  -0.000002   0.000592  -0.000013   0.430957  -0.023302
    30  H    0.000003   0.000000  -0.000005  -0.000001  -0.023302   0.454009
    31  H   -0.000002  -0.000001  -0.000001  -0.000006  -0.024594  -0.026586
    32  H    0.000000   0.000000   0.000000   0.000000  -0.000100   0.000211
    33  H    0.000000   0.000000   0.000000   0.000000   0.000359   0.001675
    34  H    0.000000   0.000000   0.000000   0.000000   0.000005  -0.000020
    35  H    0.000000   0.000000   0.000000   0.000000  -0.000005   0.000049
    36  H    0.000000   0.000000   0.000000   0.000000  -0.000001   0.000006
    37  C   -0.000025   0.000164  -0.000111   0.000382  -0.000651  -0.000054
    38  C    0.000000  -0.000001  -0.000050   0.000026   0.000021  -0.000010
    39  C    0.000000   0.000000   0.000002   0.000048  -0.000015   0.000011
    40  H   -0.000015   0.000160   0.000076  -0.000376   0.000867   0.000220
    41  H    0.000008  -0.000008  -0.000007   0.001745  -0.000180   0.000008
    42  H    0.000000   0.000000   0.000001   0.000003   0.000002   0.000005
    43  H    0.000000   0.000000   0.000000  -0.000001  -0.000001   0.000000
    44  H    0.000000   0.000000   0.000002   0.000015  -0.000016   0.000000
              31         32         33         34         35         36
     1  C   -0.006247  -0.045919  -0.043023  -0.011601  -0.003891   0.008062
     2  C   -0.039940  -0.005797  -0.005398   0.000449  -0.000129  -0.000228
     3  C   -0.009611  -0.000987  -0.000084  -0.000057  -0.000007   0.000011
     4  C   -0.000196   0.000272   0.000097   0.000360  -0.000001  -0.000001
     5  C    0.000025  -0.000178   0.000024   0.000822  -0.000093   0.000001
     6  H    0.005737   0.008049  -0.000481   0.000254   0.004588  -0.000218
     7  H    0.006590   0.006210   0.000163   0.000021   0.000007  -0.000032
     8  H   -0.000012  -0.000036  -0.000010  -0.000012   0.000000   0.000000
     9  H    0.000022   0.000019  -0.000003  -0.000009   0.000000   0.000000
    10  O    0.000042   0.003206   0.003789   0.013261  -0.000416  -0.000169
    11  O    0.000001  -0.000110   0.000008   0.000257  -0.000003   0.000000
    12  C    0.000157   0.386820   0.387848  -0.038796  -0.040663  -0.037902
    13  C   -0.000124  -0.040804  -0.037274   0.384433   0.385163   0.392425
    14  C    0.385149   0.001150   0.001197  -0.000081   0.000067  -0.000002
    15  O    0.000274  -0.000031  -0.000005   0.000000   0.000000   0.000000
    16  Si  -0.000173  -0.000025  -0.000003   0.000001   0.000000   0.000000
    17  C    0.000008   0.000000   0.000000   0.000000   0.000000   0.000000
    18  C    0.000001   0.000000   0.000000   0.000000   0.000000   0.000000
    19  C    0.000001   0.000000   0.000000   0.000000   0.000000   0.000000
    20  H    0.000000   0.000000   0.000000   0.000000   0.000000   0.000000
    21  H    0.000000   0.000000   0.000000   0.000000   0.000000   0.000000
    22  H    0.000000   0.000000   0.000000   0.000000   0.000000   0.000000
    23  H    0.000000   0.000000   0.000000   0.000000   0.000000   0.000000
    24  H    0.000000   0.000000   0.000000   0.000000   0.000000   0.000000
    25  H   -0.000002   0.000000   0.000000   0.000000   0.000000   0.000000
    26  H   -0.000001   0.000000   0.000000   0.000000   0.000000   0.000000
    27  H   -0.000001   0.000000   0.000000   0.000000   0.000000   0.000000
    28  H   -0.000006   0.000000   0.000000   0.000000   0.000000   0.000000
    29  H   -0.024594  -0.000100   0.000359   0.000005  -0.000005  -0.000001
    30  H   -0.026586   0.000211   0.001675  -0.000020   0.000049   0.000006
    31  H    0.473136   0.000053   0.000092  -0.000001  -0.000011   0.000003
    32  H    0.000053   0.487330  -0.025869  -0.004032   0.006872  -0.004882
    33  H    0.000092  -0.025869   0.479740   0.007017  -0.004755  -0.004792
    34  H   -0.000001  -0.004032   0.007017   0.460889  -0.027474  -0.025788
    35  H   -0.000011   0.006872  -0.004755  -0.027474   0.485878  -0.027613
    36  H    0.000003  -0.004882  -0.004792  -0.025788  -0.027613   0.472855
    37  C    0.002254  -0.000010   0.000037   0.000004  -0.000009   0.000000
    38  C    0.000534  -0.000046  -0.000028  -0.000008   0.000016   0.000001
    39  C    0.001933  -0.000011  -0.000005   0.000000   0.000044   0.000000
    40  H   -0.001699   0.000000   0.000008   0.000000   0.000000   0.000000
    41  H    0.000376  -0.000001  -0.000001   0.000000   0.000000   0.000000
    42  H    0.000021   0.000016   0.000009   0.000013   0.000004   0.000000
    43  H   -0.000012   0.000000  -0.000002  -0.000001   0.000006   0.000000
    44  H    0.001076   0.000001   0.000003   0.000000   0.000002   0.000000
              37         38         39         40         41         42
     1  C    0.006165  -0.017393  -0.004682   0.000534  -0.000372  -0.001418
     2  C   -0.085593   0.003662   0.002017  -0.011126   0.006969   0.001107
     3  C    0.312554  -0.040963  -0.000631  -0.031934  -0.043072  -0.006026
     4  C   -0.090079  -0.004821  -0.000149   0.006687  -0.008020   0.002308
     5  C    0.003292  -0.003045   0.000022  -0.000192   0.000214   0.005786
     6  H    0.001200   0.002712   0.003414  -0.000392   0.000172   0.001172
     7  H    0.009053  -0.000561  -0.000040  -0.000132  -0.000095   0.000050
     8  H    0.006763  -0.000075  -0.000005  -0.000178  -0.000026   0.000271
     9  H   -0.007101   0.000680  -0.000023   0.000077   0.002168   0.000622
    10  O   -0.001868   0.004125  -0.000182  -0.000047  -0.000015  -0.003684
    11  O    0.000190  -0.002356   0.000014   0.000001  -0.000043   0.004944
    12  C   -0.000743   0.000587   0.000195  -0.000045   0.000020  -0.000091
    13  C    0.000019  -0.000019  -0.000011   0.000001  -0.000001  -0.000018
    14  C   -0.010033   0.000053  -0.000397   0.001149  -0.000296  -0.000035
    15  O   -0.045008   0.004756  -0.000085   0.000103  -0.005587  -0.000032
    16  Si  -0.005587   0.002867  -0.000320  -0.002803   0.009222  -0.000145
    17  C   -0.002579   0.000019   0.000013  -0.001419  -0.000390  -0.000009
    18  C   -0.002350  -0.000067   0.000002   0.000227   0.001828   0.000015
    19  C   -0.000105   0.000004   0.000000  -0.000061  -0.000009   0.000000
    20  H    0.000066  -0.000001   0.000000  -0.000005   0.000012  -0.000001
    21  H   -0.000220   0.000042  -0.000001   0.000052   0.003795   0.000009
    22  H    0.000288   0.000008   0.000000  -0.000004  -0.000319  -0.000003
    23  H    0.000006   0.000000   0.000000   0.000000   0.000014   0.000000
    24  H   -0.000006   0.000001   0.000000  -0.000003   0.000001   0.000000
    25  H   -0.000025   0.000000   0.000000  -0.000015   0.000008   0.000000
    26  H    0.000164  -0.000001   0.000000   0.000160  -0.000008   0.000000
    27  H   -0.000111  -0.000050   0.000002   0.000076  -0.000007   0.000001
    28  H    0.000382   0.000026   0.000048  -0.000376   0.001745   0.000003
    29  H   -0.000651   0.000021  -0.000015   0.000867  -0.000180   0.000002
    30  H   -0.000054  -0.000010   0.000011   0.000220   0.000008   0.000005
    31  H    0.002254   0.000534   0.001933  -0.001699   0.000376   0.000021
    32  H   -0.000010  -0.000046  -0.000011   0.000000  -0.000001   0.000016
    33  H    0.000037  -0.000028  -0.000005   0.000008  -0.000001   0.000009
    34  H    0.000004  -0.000008   0.000000   0.000000   0.000000   0.000013
    35  H   -0.000009   0.000016   0.000044   0.000000   0.000000   0.000004
    36  H    0.000000   0.000001   0.000000   0.000000   0.000000   0.000000
    37  C    5.469889   0.279505  -0.053791   0.398289   0.391756  -0.049905
    38  C    0.279505   5.136016   0.631191  -0.044440  -0.045240   0.387835
    39  C   -0.053791   0.631191   5.122134   0.000491  -0.000779  -0.032383
    40  H    0.398289  -0.044440   0.000491   0.436638  -0.026175   0.004297
    41  H    0.391756  -0.045240  -0.000779  -0.026175   0.458922  -0.001756
    42  H   -0.049905   0.387835  -0.032383   0.004297  -0.001756   0.459944
    43  H    0.005768  -0.035592   0.390759   0.000153  -0.000391  -0.008359
    44  H   -0.008509  -0.044270   0.391046   0.004251   0.000145   0.005985
              43         44
     1  C    0.000060   0.000052
     2  C   -0.000048   0.000051
     3  C   -0.000107  -0.000080
     4  C    0.000026   0.000013
     5  C   -0.000068   0.000009
     6  H   -0.000284   0.000016
     7  H   -0.000004   0.000010
     8  H   -0.000002   0.000002
     9  H   -0.000004   0.000003
    10  O    0.000112  -0.000021
    11  O   -0.000017   0.000000
    12  C    0.000006  -0.000008
    13  C    0.000004  -0.000001
    14  C    0.000033   0.000127
    15  O    0.000003  -0.000016
    16  Si   0.000012  -0.000043
    17  C    0.000000   0.000003
    18  C    0.000000   0.000000
    19  C    0.000000   0.000000
    20  H    0.000000   0.000000
    21  H    0.000000   0.000000
    22  H    0.000000   0.000000
    23  H    0.000000   0.000000
    24  H    0.000000   0.000000
    25  H    0.000000   0.000000
    26  H    0.000000   0.000000
    27  H    0.000000   0.000002
    28  H   -0.000001   0.000015
    29  H   -0.000001  -0.000016
    30  H    0.000000   0.000000
    31  H   -0.000012   0.001076
    32  H    0.000000   0.000001
    33  H   -0.000002   0.000003
    34  H   -0.000001   0.000000
    35  H    0.000006   0.000002
    36  H    0.000000   0.000000
    37  C    0.005768  -0.008509
    38  C   -0.035592  -0.044270
    39  C    0.390759   0.391046
    40  H    0.000153   0.004251
    41  H   -0.000391   0.000145
    42  H   -0.008359   0.005985
    43  H    0.447909  -0.032958
    44  H   -0.032958   0.459047
 Mulliken charges:
               1
     1  C   -0.022960
     2  C   -0.275735
     3  C    0.183741
     4  C   -0.608239
     5  C    0.465102
     6  H    0.260152
     7  H    0.245008
     8  H    0.289468
     9  H    0.274905
    10  O   -0.331110
    11  O   -0.387340
    12  C   -0.439262
    13  C   -0.664266
    14  C   -0.696356
    15  O   -0.626071
    16  Si   1.411779
    17  C   -1.059678
    18  C   -1.074269
    19  C   -1.038470
    20  H    0.243051
    21  H    0.249186
    22  H    0.247436
    23  H    0.232597
    24  H    0.240862
    25  H    0.240964
    26  H    0.237702
    27  H    0.242656
    28  H    0.245213
    29  H    0.261278
    30  H    0.242025
    31  H    0.231729
    32  H    0.228627
    33  H    0.239665
    34  H    0.240096
    35  H    0.222374
    36  H    0.228266
    37  C   -0.523307
    38  C   -0.215677
    39  C   -0.449825
    40  H    0.266764
    41  H    0.255410
    42  H    0.229445
    43  H    0.233002
    44  H    0.224061
 Sum of Mulliken charges =   0.00000
 Mulliken charges with hydrogens summed into heavy atoms:
               1
     1  C    0.237192
     2  C   -0.030727
     3  C    0.183741
     4  C   -0.043866
     5  C    0.465102
    10  O   -0.331110
    11  O   -0.387340
    12  C    0.029030
    13  C    0.026470
    14  C    0.038676
    15  O   -0.626071
    16  Si   1.411779
    17  C   -0.334107
    18  C   -0.334596
    19  C   -0.324048
    37  C   -0.001133
    38  C    0.013768
    39  C    0.007238
 Electronic spatial extent (au):  <R**2>=           5711.1381
 Charge=              0.0000 electrons
 Dipole moment (field-independent basis, Debye):
    X=             -2.8413    Y=             -3.8098    Z=              2.3108  Tot=              5.2847
 Quadrupole moment (field-independent basis, Debye-Ang):
   XX=           -118.9445   YY=           -128.5796   ZZ=           -118.4659
   XY=            -13.1509   XZ=              6.0225   YZ=              5.2541
 Traceless Quadrupole moment (field-independent basis, Debye-Ang):
   XX=              3.0522   YY=             -6.5829   ZZ=              3.5308
   XY=            -13.1509   XZ=              6.0225   YZ=              5.2541
 Octapole moment (field-independent basis, Debye-Ang**2):
  XXX=            -31.0021  YYY=            -34.6883  ZZZ=             -6.7400  XYY=            -13.1180
  XXY=            -21.8936  XXZ=             10.1434  XZZ=              9.7012  YZZ=             -7.6892
  YYZ=             17.8064  XYZ=             20.3602
 Hexadecapole moment (field-independent basis, Debye-Ang**3):
 XXXX=          -4910.1652 YYYY=          -1504.0442 ZZZZ=          -1314.6953 XXXY=            -67.6627
 XXXZ=             19.3639 YYYX=            -49.3266 YYYZ=             46.7953 ZZZX=             31.5646
 ZZZY=            -20.3451 XXYY=          -1113.4376 XXZZ=          -1075.6100 YYZZ=           -497.1796
 XXYZ=             37.5845 YYXZ=             28.4658 ZZXY=            -12.6293
 N-N= 1.618980648115D+03 E-N=-5.733214748239D+03  KE= 1.060529642529D+03
 1\1\GINC-CPU-E-609\SP\RmPW1PW91\6-311G(d)\C14H26O3Si1\KE291\06-Feb-201
 9\0\\# mPW1PW91/6-311g(d) geom=checkpoint nmr=giao scrf=(solvent=chlor
 oform)\\P_ng_2ginp010\\0,1\C,0,-0.3128910974,-0.0448743573,1.154350869
 4\C,0,-0.8490083045,1.2461089844,0.5124074303\C,0,-1.929530621,1.95827
 18056,1.3740230883\C,0,-1.333529541,2.1642791755,2.7761744569\C,0,-0.6
 599051537,0.9618929581,3.4052587833\H,0,-1.0551929011,-0.8410277413,1.
 0345588278\H,0,-0.0218343581,1.9675724041,0.4706247776\H,0,-0.55838876
 23,2.9357690035,2.6900941197\H,0,-2.0719441966,2.5349128402,3.49032416
 25\O,0,-0.0944154971,0.046272214,2.5982921396\O,0,-0.5501669614,0.8315
 835897,4.6079325673\C,0,1.0255795548,-0.5031275991,0.5693040431\C,0,1.
 519379011,-1.8388815177,1.13342618\C,0,-1.3187195147,0.9812329748,-0.9
 265008728\O,0,-2.0948295294,3.2409964955,0.7641412653\Si,0,-3.18668894
 98,4.5158282353,0.899254484\C,0,-4.7612575015,4.167123346,-0.081924093
 \C,0,-3.6236346458,4.908948043,2.6934233377\C,0,-2.273062321,5.9678948
 439,0.1279462075\H,0,-4.2754929562,5.7900554477,2.7246359872\H,0,-4.15
 82222988,4.0934398153,3.1915092001\H,0,-2.7309928031,5.1384542092,3.28
 44514594\H,0,-2.9050036688,6.8629884288,0.1156359039\H,0,-1.3628893441
 ,6.2069786562,0.6876725262\H,0,-1.983833221,5.7491311889,-0.9052490301
 \H,0,-5.3928255407,5.0628871067,-0.1099524171\H,0,-4.5273719766,3.8952
 319,-1.1169387761\H,0,-5.3562733185,3.3572893403,0.3514034142\H,0,-1.8
 126232785,1.8705144942,-1.3232565408\H,0,-0.4771926636,0.7483317604,-1
 .5833019582\H,0,-2.0220565768,0.1435588446,-0.977159124\H,0,1.76832928
 64,0.2837918365,0.7517523087\H,0,0.9137259046,-0.5862686412,-0.5166686
 756\H,0,1.6588518006,-1.7831878217,2.2157213996\H,0,0.8038812959,-2.64
 27234281,0.9269919596\H,0,2.4751506953,-2.1185499945,0.6800344066\C,0,
 -3.3099553933,1.2440153889,1.4240869614\C,0,-3.3947884098,-0.089489973
 7,2.1197423115\C,0,-3.8770537029,-1.203640733,1.5653780633\H,0,-3.6925
 570525,1.155027616,0.4030832435\H,0,-3.984926995,1.9315297959,1.951985
 0281\H,0,-3.0903629717,-0.1177407094,3.1657056723\H,0,-3.9560886021,-2
 .129495192,2.1270906891\H,0,-4.2162869186,-1.227909034,0.5322582126\\V
 ersion=ES64L-G09RevD.01\State=1-A\HF=-1064.3827366\RMSD=3.219e-09\Dipo
 le=-0.8413904,0.5244705,-1.8275211\Quadrupole=3.2258986,5.7381441,-8.9
 640427,0.2397987,-6.0502988,7.098974\PG=C01 [X(C14H26O3Si1)]\\@


 THE FIRST MORNING OF CREATION WROTE WHAT THE LAST DAWN OF
 RECKONING SHALL READ. -- OMAR KHAYYAM
 Job cpu time:       0 days  0 hours 20 minutes  9.5 seconds.
 File lengths (MBytes):  RWF=    238 Int=      0 D2E=      0 Chk=     19 Scr=      1
 Normal termination of Gaussian 09 at Wed Feb  6 11:31:15 2019.
