 Entering Gaussian System, Link 0=/usr/local/Cluster-Apps/gaussian/g09/g09
 Initial command:
 /usr/local/Cluster-Apps/gaussian/g09/l1.exe "/home/ke291/rds/hpc-work/06Feb0927IP1/Gau-319716.inp" -scrdir="/home/ke291/rds/hpc-work/06Feb0927IP1/"
 Entering Link 1 = /usr/local/Cluster-Apps/gaussian/g09/l1.exe PID=    319723.
  
 Copyright (c) 1988,1990,1992,1993,1995,1998,2003,2009,2013,
            Gaussian, Inc.  All Rights Reserved.
  
 This is part of the Gaussian(R) 09 program.  It is based on
 the Gaussian(R) 03 system (copyright 2003, Gaussian, Inc.),
 the Gaussian(R) 98 system (copyright 1998, Gaussian, Inc.),
 the Gaussian(R) 94 system (copyright 1995, Gaussian, Inc.),
 the Gaussian 92(TM) system (copyright 1992, Gaussian, Inc.),
 the Gaussian 90(TM) system (copyright 1990, Gaussian, Inc.),
 the Gaussian 88(TM) system (copyright 1988, Gaussian, Inc.),
 the Gaussian 86(TM) system (copyright 1986, Carnegie Mellon
 University), and the Gaussian 82(TM) system (copyright 1983,
 Carnegie Mellon University). Gaussian is a federally registered
 trademark of Gaussian, Inc.
  
 This software contains proprietary and confidential information,
 including trade secrets, belonging to Gaussian, Inc.
  
 This software is provided under written license and may be
 used, copied, transmitted, or stored only in accord with that
 written license.
  
 The following legend is applicable only to US Government
 contracts under FAR:
  
                    RESTRICTED RIGHTS LEGEND
  
 Use, reproduction and disclosure by the US Government is
 subject to restrictions as set forth in subparagraphs (a)
 and (c) of the Commercial Computer Software - Restricted
 Rights clause in FAR 52.227-19.
  
 Gaussian, Inc.
 340 Quinnipiac St., Bldg. 40, Wallingford CT 06492
  
  
 ---------------------------------------------------------------
 Warning -- This program may not be used in any manner that
 competes with the business of Gaussian, Inc. or will provide
 assistance to any competitor of Gaussian, Inc.  The licensee
 of this program is prohibited from giving any competitor of
 Gaussian, Inc. access to this program.  By using this program,
 the user acknowledges that Gaussian, Inc. is engaged in the
 business of creating and licensing software in the field of
 computational chemistry and represents and warrants to the
 licensee that it is not a competitor of Gaussian, Inc. and that
 it will not use this program in any manner prohibited above.
 ---------------------------------------------------------------
  

 Cite this work as:
 Gaussian 09, Revision D.01,
 M. J. Frisch, G. W. Trucks, H. B. Schlegel, G. E. Scuseria, 
 M. A. Robb, J. R. Cheeseman, G. Scalmani, V. Barone, B. Mennucci, 
 G. A. Petersson, H. Nakatsuji, M. Caricato, X. Li, H. P. Hratchian, 
 A. F. Izmaylov, J. Bloino, G. Zheng, J. L. Sonnenberg, M. Hada, 
 M. Ehara, K. Toyota, R. Fukuda, J. Hasegawa, M. Ishida, T. Nakajima, 
 Y. Honda, O. Kitao, H. Nakai, T. Vreven, J. A. Montgomery, Jr., 
 J. E. Peralta, F. Ogliaro, M. Bearpark, J. J. Heyd, E. Brothers, 
 K. N. Kudin, V. N. Staroverov, T. Keith, R. Kobayashi, J. Normand, 
 K. Raghavachari, A. Rendell, J. C. Burant, S. S. Iyengar, J. Tomasi, 
 M. Cossi, N. Rega, J. M. Millam, M. Klene, J. E. Knox, J. B. Cross, 
 V. Bakken, C. Adamo, J. Jaramillo, R. Gomperts, R. E. Stratmann, 
 O. Yazyev, A. J. Austin, R. Cammi, C. Pomelli, J. W. Ochterski, 
 R. L. Martin, K. Morokuma, V. G. Zakrzewski, G. A. Voth, 
 P. Salvador, J. J. Dannenberg, S. Dapprich, A. D. Daniels, 
 O. Farkas, J. B. Foresman, J. V. Ortiz, J. Cioslowski, 
 and D. J. Fox, Gaussian, Inc., Wallingford CT, 2013.
 
 ******************************************
 Gaussian 09:  ES64L-G09RevD.01 24-Apr-2013
                 6-Feb-2019 
 ******************************************
 %nprocshared=2
 Will use up to    2 processors via shared memory.
 %mem=6000MB
 %chk=/home/ke291/rds/hpc-work/06Feb0927IP1/P_ng_3ginp003.chk
 ----------------------------------------------------------------------
 # mPW1PW91/6-311g(d) geom=checkpoint nmr=giao scrf=(solvent=chloroform
 )
 ----------------------------------------------------------------------
 1/29=2,38=1/1;
 2/12=2,40=1/2;
 3/5=4,6=6,7=1,11=2,14=-4,16=1,25=1,30=1,70=2201,72=7,74=-7/1,2,8,3;
 4//1;
 5/5=2,38=5,53=7/2;
 8/6=1,10=90,11=11/1;
 10/13=100,45=16/2;
 6/7=2,8=2,9=2,10=2,28=1/1;
 99/9=1/99;
 -------------
 P_ng_3ginp003
 -------------
 Structure from the checkpoint file:  "/home/ke291/rds/hpc-work/06Feb0927IP1/P_ng_3ginp003.chk"
 Charge =  0 Multiplicity = 1
 Redundant internal coordinates found in file.
 C,0,-0.2612660622,0.2922832389,-0.1604097481
 C,0,-1.6864749707,0.0961740254,0.3747422269
 C,0,-1.8550779281,0.9212744925,1.6807423475
 C,0,-1.6095229049,2.4009887857,1.3374283765
 C,0,-0.4172184691,2.6919270719,0.438818329
 H,0,0.450424229,-0.0968236474,0.5760578015
 H,0,-1.7640378548,-0.961693623,0.6519572391
 H,0,-2.4858086779,2.7895933702,0.8062733672
 H,0,-1.4913298112,3.0153742077,2.2326333312
 O,0,0.0787519966,1.7059580651,-0.3378068295
 O,0,0.0580099401,3.8046756857,0.3440592539
 C,0,0.0302285233,-0.3828351838,-1.4994989479
 C,0,1.5096679791,-0.3319282064,-1.8935230174
 C,0,-2.7735018,0.4008015231,-0.6690093068
 O,0,-3.1970329114,0.7287869889,2.1205433908
 Si,0,-4.1457851212,1.237967988,3.4153184834
 C,0,-3.8858459825,0.1332756773,4.9234978776
 C,0,-3.8266081719,3.0339536963,3.9016213931
 C,0,-5.9072634679,1.0423646019,2.7845072396
 H,0,-4.5381831684,3.3268029924,4.6827667344
 H,0,-2.8207061853,3.1893879442,4.3053614215
 H,0,-3.9627710148,3.7175241476,3.0576247483
 H,0,-6.1001728604,0.0125955141,2.4660289462
 H,0,-6.6323787267,1.2920259609,3.5671249221
 H,0,-6.0973898368,1.6989160238,1.9290523215
 H,0,-4.5798928727,0.4254617807,5.7204041624
 H,0,-4.0790826005,-0.9185125243,4.6871891473
 H,0,-2.8712063727,0.2064722878,5.3277600966
 H,0,-3.7586599484,0.3726662875,-0.2017838655
 H,0,-2.6402663626,1.384137642,-1.1313803128
 H,0,-2.7576553844,-0.3419672734,-1.4705135968
 H,0,-0.5798641365,0.0864644839,-2.2782035075
 H,0,-0.2996888997,-1.4262018138,-1.4214806274
 H,0,1.6714529605,-0.8263170387,-2.8560345155
 H,0,1.8566069678,0.7011325383,-1.979975057
 H,0,2.1352998711,-0.836707962,-1.1488414207
 C,0,-0.8657677084,0.4742643538,2.7940055124
 C,0,-0.8943274136,-0.9956962326,3.1111285723
 C,0,0.1834170978,-1.7791862506,3.181491962
 H,0,-1.1291583318,1.0513873888,3.6909592933
 H,0,0.1558334312,0.7777918142,2.539625609
 H,0,-1.8766174723,-1.4238242836,3.3024221483
 H,0,0.1058775685,-2.833389607,3.4308307947
 H,0,1.1849818649,-1.3937149323,3.0028817032
 Recover connectivity data from disk.
                          Input orientation:                          
 ---------------------------------------------------------------------
 Center     Atomic      Atomic             Coordinates (Angstroms)
 Number     Number       Type             X           Y           Z
 ---------------------------------------------------------------------
      1          6           0       -0.261266    0.292283   -0.160410
      2          6           0       -1.686475    0.096174    0.374742
      3          6           0       -1.855078    0.921274    1.680742
      4          6           0       -1.609523    2.400989    1.337428
      5          6           0       -0.417218    2.691927    0.438818
      6          1           0        0.450424   -0.096824    0.576058
      7          1           0       -1.764038   -0.961694    0.651957
      8          1           0       -2.485809    2.789593    0.806273
      9          1           0       -1.491330    3.015374    2.232633
     10          8           0        0.078752    1.705958   -0.337807
     11          8           0        0.058010    3.804676    0.344059
     12          6           0        0.030229   -0.382835   -1.499499
     13          6           0        1.509668   -0.331928   -1.893523
     14          6           0       -2.773502    0.400802   -0.669009
     15          8           0       -3.197033    0.728787    2.120543
     16         14           0       -4.145785    1.237968    3.415318
     17          6           0       -3.885846    0.133276    4.923498
     18          6           0       -3.826608    3.033954    3.901621
     19          6           0       -5.907263    1.042365    2.784507
     20          1           0       -4.538183    3.326803    4.682767
     21          1           0       -2.820706    3.189388    4.305361
     22          1           0       -3.962771    3.717524    3.057625
     23          1           0       -6.100173    0.012596    2.466029
     24          1           0       -6.632379    1.292026    3.567125
     25          1           0       -6.097390    1.698916    1.929052
     26          1           0       -4.579893    0.425462    5.720404
     27          1           0       -4.079083   -0.918513    4.687189
     28          1           0       -2.871206    0.206472    5.327760
     29          1           0       -3.758660    0.372666   -0.201784
     30          1           0       -2.640266    1.384138   -1.131380
     31          1           0       -2.757655   -0.341967   -1.470514
     32          1           0       -0.579864    0.086464   -2.278204
     33          1           0       -0.299689   -1.426202   -1.421481
     34          1           0        1.671453   -0.826317   -2.856035
     35          1           0        1.856607    0.701133   -1.979975
     36          1           0        2.135300   -0.836708   -1.148841
     37          6           0       -0.865768    0.474264    2.794006
     38          6           0       -0.894327   -0.995696    3.111129
     39          6           0        0.183417   -1.779186    3.181492
     40          1           0       -1.129158    1.051387    3.690959
     41          1           0        0.155833    0.777792    2.539626
     42          1           0       -1.876617   -1.423824    3.302422
     43          1           0        0.105878   -2.833390    3.430831
     44          1           0        1.184982   -1.393715    3.002882
 ---------------------------------------------------------------------
                    Distance matrix (angstroms):
                    1          2          3          4          5
     1  C    0.000000
     2  C    1.534948   0.000000
     3  C    2.515096   1.553980   0.000000
     4  C    2.916840   2.498971   1.538738   0.000000
     5  C    2.478243   2.890165   2.597119   1.521097   0.000000
     6  H    1.095578   2.155021   2.751762   3.325979   2.923828
     7  H    2.119132   1.096334   2.147616   3.435313   3.899781
     8  H    3.481325   2.842474   2.157112   1.095909   2.103242
     9  H    3.828177   3.465771   2.195939   1.092168   2.115681
    10  O    1.464773   2.493022   2.903441   2.477852   1.349544
    11  O    3.562770   4.098433   3.709532   2.395367   1.213685
    12  C    1.527715   2.586368   3.920334   4.299607   3.662164
    13  C    2.555294   3.942541   5.066301   5.257113   4.277430
    14  C    2.565498   1.537479   2.575991   3.062905   3.468229
    15  O    3.743262   2.393701   1.425244   2.435101   3.795983
    16  Si   5.363734   4.073942   2.890742   3.478918   4.987560
    17  C    6.245717   5.052701   3.906459   4.814983   6.220163
    18  C    6.060406   5.064543   3.644537   3.448362   4.871542
    19  C    6.411899   4.951495   4.201567   4.733970   6.193860
    20  H    7.138395   6.093298   4.690178   4.541527   5.949497
    21  H    5.906527   5.128764   3.600750   3.301085   4.579779
    22  H    5.982404   5.049115   3.762604   3.198455   4.525587
    23  H    6.408529   4.884792   4.411712   5.210000   6.601846
    24  H    7.448831   6.006940   5.149612   5.606284   7.097481
    25  H    6.356478   4.943767   4.320138   4.580816   5.955772
    26  H    7.297414   6.087397   4.897889   5.651219   7.096469
    27  H    6.288161   5.035013   4.167701   5.323412   6.670321
    28  H    6.077759   5.093932   3.852817   4.725515   6.008435
    29  H    3.498562   2.168590   2.732856   3.331975   4.117593
    30  H    2.791876   2.199312   2.956146   2.862068   3.019566
    31  H    2.889741   2.178156   3.512953   4.089811   4.281087
    32  H    2.151492   2.874509   4.242208   4.414750   3.767903
    33  H    2.131893   2.732622   4.189710   4.896390   4.520344
    34  H    3.500437   4.750220   6.006067   6.226190   5.253251
    35  H    2.821943   4.296987   5.217846   5.090062   3.870931
    36  H    2.827569   4.218713   5.198092   5.539667   4.635437
    37  C    3.021111   2.582508   1.554962   2.527263   3.265904
    38  C    3.572481   3.050818   2.577561   3.898075   4.579022
    39  C    3.956897   3.858927   3.701378   4.908062   5.279572
    40  H    4.020264   3.495759   2.141229   2.755228   3.711422
    41  H    2.774866   2.923256   2.191354   2.682635   2.899257
    42  H    4.188746   3.304218   2.851280   4.308333   5.222019
    43  H    4.775106   4.597233   4.583193   5.892678   6.305148
    44  H    3.865312   4.167991   4.043413   4.998277   5.082710
                    6          7          8          9         10
     6  H    0.000000
     7  H    2.378572   0.000000
     8  H    4.123817   3.823208   0.000000
     9  H    4.024975   4.288353   1.753416   0.000000
    10  O    2.055070   3.389967   3.010009   3.284340   0.000000
    11  O    3.928041   5.112038   2.777597   2.567131   2.206805
    12  C    2.136891   2.860635   4.659542   5.271791   2.390594
    13  C    2.697425   4.194428   5.744269   6.102097   2.936112
    14  C    3.491636   2.149503   2.822331   4.110898   3.154121
    15  O    4.046111   2.658561   2.545598   2.854903   4.210596
    16  Si   5.564909   4.259976   3.459795   3.406472   5.670245
    17  C    6.144625   4.893576   5.095848   4.613128   6.772938
    18  C    6.257327   5.547947   3.382105   2.870434   5.915079
    19  C    6.826067   5.072508   4.321177   4.868039   6.783921
    20  H    7.312488   6.506498   4.419054   3.922175   7.010662
    21  H    5.950394   5.629866   3.537741   2.468547   5.671546
    22  H    6.339063   5.702345   2.847992   2.698453   5.648828
    23  H    6.818672   4.800225   4.850787   5.505687   6.993432
    24  H    7.812905   6.105587   5.201832   5.584011   7.775545
    25  H    6.923088   5.242877   3.936207   4.800105   6.579014
    26  H    7.213957   5.961744   5.841489   5.330236   7.748843
    27  H    6.171953   4.652354   5.599114   5.310063   7.030364
    28  H    5.805505   4.945055   5.221579   4.401568   6.561201
    29  H    4.306025   2.547137   2.911678   4.248656   4.064714
    30  H    3.828963   3.074247   2.398680   3.911212   2.850682
    31  H    3.813178   2.424091   3.881280   5.156415   3.677258
    32  H    3.040049   3.329676   4.522558   5.454991   2.611833
    33  H    2.513976   2.580548   5.245468   5.873683   3.335864
    34  H    3.715149   4.911917   6.615900   7.117326   3.910318
    35  H    3.024465   4.775053   5.566096   5.857514   2.620526
    36  H    2.522204   4.296898   6.190895   6.278961   3.369320
    37  C    2.641552   2.730794   3.454904   2.676510   3.495345
    38  C    3.007144   2.608654   4.708884   4.149319   4.487870
    39  C    3.112864   3.295364   5.800015   5.166519   4.954054
    40  H    3.676422   3.700149   3.630878   2.472878   4.256579
    41  H    2.169639   3.205465   3.745681   2.795383   3.024409
    42  H    3.822187   2.692806   4.935054   4.582508   5.183655
    43  H    3.969538   3.836922   6.724811   6.180193   5.899919
    44  H    2.847978   3.796078   5.983298   5.214978   4.689554
                   11         12         13         14         15
    11  O    0.000000
    12  C    4.575448   0.000000
    13  C    4.921949   1.531858   0.000000
    14  C    4.542040   3.027326   4.514628   0.000000
    15  O    4.817914   4.975503   6.276215   2.840521   0.000000
    16  Si   5.804525   6.649927   7.914071   4.389276   1.683995
    17  C    7.071381   7.540351   8.706306   5.708329   2.947143
    18  C    5.323581   7.464699   8.566721   5.378958   2.980335
    19  C    7.012178   7.459069   8.876008   4.707318   2.807940
    20  H    6.338591   8.535351   9.654554   6.349574   3.887590
    21  H    4.935332   7.388167   8.341341   5.702877   3.312040
    22  H    4.851568   7.316035   8.417810   5.128627   3.224442
    23  H    7.536965   7.311881   8.776905   4.587582   3.010068
    24  H    7.839825   8.536169   9.937244   5.799142   3.769806
    25  H    6.695922   7.323685   8.752356   4.413984   3.064293
    26  H    7.863480   8.604276   9.778971   6.639899   3.868243
    27  H    7.634580   7.446375   8.653553   5.668685   3.174788
    28  H    6.809159   7.441577   8.463384   6.000713   3.265764
    29  H    5.161744   4.075601   5.577967   1.090701   2.415668
    30  H    3.913646   3.223236   4.554964   1.094755   3.363701
    31  H    5.330600   2.788334   4.288250   1.092870   3.772964
    32  H    4.594370   1.094914   2.165451   2.738679   5.158597
    33  H    5.532374   1.097063   2.166571   3.166055   5.058114
    34  H    5.855757   2.174967   1.094086   5.103579   7.133501
    35  H    4.274116   2.177499   1.093186   4.821487   6.508018
    36  H    5.299654   2.181808   1.095796   5.085076   6.447746
    37  C    4.236418   4.468961   5.316537   3.954405   2.439904
    38  C    5.622027   4.742182   5.591629   4.446453   3.042623
    39  C    6.264684   4.887222   5.441440   5.321849   4.340851
    40  H    4.493518   5.508360   6.329566   4.704939   2.616559
    41  H    3.740602   4.204445   4.766251   4.361016   3.379311
    42  H    6.311252   5.270500   6.297381   4.461606   2.788202
    43  H    7.320817   5.506277   6.047866   5.963179   5.031419
    44  H    5.946652   4.756760   5.020716   5.689698   4.948292
                   16         17         18         19         20
    16  Si   0.000000
    17  C    1.887464   0.000000
    18  C    1.887837   3.075983   0.000000
    19  C    1.881220   3.080236   3.089255   0.000000
    20  H    2.474598   3.268350   1.096489   3.270540   0.000000
    21  H    2.521121   3.294911   1.094991   4.055804   1.763815
    22  H    2.511899   4.041564   1.094595   3.318452   1.767724
    23  H    2.494458   3.310130   4.044580   1.095019   4.282255
    24  H    2.491810   3.275041   3.319420   1.095725   3.125801
    25  H    2.496041   4.038423   3.290867   1.094994   3.558663
    26  H    2.482345   1.096418   3.267972   3.280545   3.081592
    27  H    2.504498   1.095190   4.037679   3.287474   4.270070
    28  H    2.519120   1.094659   3.307766   4.047776   3.596011
    29  H    3.739257   5.132446   4.891319   3.739375   5.761373
    30  H    4.791703   6.306954   5.427744   5.111189   6.417191
    31  H    5.319253   6.510150   6.434232   5.471893   7.381938
    32  H    6.816007   7.924406   7.577551   7.411206   8.638472
    33  H    6.729404   7.453271   7.788938   7.431625   8.821435
    34  H    8.799511   9.608617   9.528708   9.630401  10.613271
    35  H    8.088640   8.997564   8.504949   9.115614   9.601022
    36  H    8.036658   8.606298   8.719722   9.147949   9.791724
    37  C    3.424586   3.711049   4.067604   5.073412   5.019067
    38  C    3.956484   3.675383   5.045912   5.421245   5.867856
    39  C    5.282034   4.821929   6.305966   6.724220   7.114665
    40  H    3.034934   3.156170   3.354278   4.863335   4.216948
    41  H    4.413901   4.736393   4.775473   6.073805   5.755372
    42  H    3.499572   3.014871   4.902376   4.753570   5.617628
    43  H    5.886665   5.192592   7.078969   7.183110   7.815537
    44  H    5.959273   5.633273   6.747445   7.502141   7.606571
                   21         22         23         24         25
    21  H    0.000000
    22  H    1.772029   0.000000
    23  H    4.922403   4.317982   0.000000
    24  H    4.321322   3.642724   1.769915   0.000000
    25  H    4.313352   3.147229   1.769754   1.770609   0.000000
    26  H    3.568805   4.278891   3.615614   3.098426   4.277713
    27  H    4.313253   4.915470   3.144093   3.558138   4.304859
    28  H    3.153670   4.321170   4.318949   4.292398   4.918014
    29  H    5.397040   4.674771   3.567851   4.827852   3.430606
    30  H    5.731461   4.974080   5.176237   6.166149   4.627854
    31  H    6.770168   6.199662   5.176341   6.562105   5.184214
    32  H    7.615303   7.286955   7.279217   8.500246   7.123489
    33  H    7.775340   7.741994   7.129410   8.507521   7.389572
    34  H    9.359005   9.346782   9.456548  10.709714   9.467248
    35  H    8.220348   8.266873   9.140644  10.157871   8.918640
    36  H    8.397605   8.696083   9.033915  10.180571   9.147677
    37  C    3.671223   4.492177   5.264951   5.875394   5.442223
    38  C    4.759418   5.624292   5.341688   6.194097   5.977466
    39  C    5.913930   6.886221   6.573117   7.485728   7.287958
    40  H    2.794615   3.941923   5.224034   5.509871   5.311020
    41  H    4.218223   5.086576   6.303059   6.884767   6.350124
    42  H    4.814449   5.553866   4.538863   5.482990   5.427022
    43  H    6.753040   7.720599   6.895327   7.902008   7.828005
    44  H    6.224695   7.254455   7.439046   8.285089   7.984386
                   26         27         28         29         30
    26  H    0.000000
    27  H    1.767657   0.000000
    28  H    1.766843   1.770561   0.000000
    29  H    5.979090   5.066742   5.602772   0.000000
    30  H    7.185274   6.420914   6.569682   1.771448   0.000000
    31  H    7.457801   6.324229   6.821305   1.767028   1.763017
    32  H    8.949462   7.859466   7.944516   3.807647   2.691545
    33  H    8.529673   7.201209   7.404767   4.085103   3.668851
    34  H   10.686514   9.485641   9.416841   6.161877   5.143099
    35  H   10.039938   9.072306   8.717792   5.899244   4.626930
    36  H    9.688830   8.525520   8.252254   6.090835   5.266735
    37  C    4.728733   3.981126   3.242439   4.165801   4.402882
    38  C    4.734068   3.554235   3.204171   4.588268   5.168249
    39  C    5.830581   4.601824   4.228479   5.622899   6.048196
    40  H    4.051913   3.684431   2.535297   4.746408   5.064497
    41  H    5.715645   5.042221   4.154885   4.796114   4.654258
    42  H    4.071142   2.650240   2.783715   4.364507   5.303434
    43  H    6.149691   4.770648   4.658554   6.197526   6.792835
    44  H    6.627829   5.547349   4.941490   6.150575   6.280216
                   31         32         33         34         35
    31  H    0.000000
    32  H    2.361925   0.000000
    33  H    2.686925   1.760861   0.000000
    34  H    4.665969   2.497096   2.510619   0.000000
    35  H    4.758048   2.530444   3.080110   1.770555   0.000000
    36  H    4.928413   3.082178   2.520120   1.769116   1.770143
    37  C    4.736201   5.095040   4.658599   6.328661   5.500335
    38  C    4.989068   5.505893   4.591675   6.497611   6.030440
    39  C    5.688292   5.819925   4.641696   6.290782   5.965927
    40  H    5.588760   6.071549   5.741386   7.364260   6.418487
    41  H    5.081682   4.922465   4.555815   5.829530   4.829627
    42  H    4.972681   5.925025   4.980157   7.132490   6.808533
    43  H    6.199208   6.448943   5.068490   6.782628   6.695873
    44  H    6.054901   5.761551   4.666935   5.906394   5.446864
                   36         37         38         39         40
    36  H    0.000000
    37  C    5.125534   0.000000
    38  C    5.229844   1.504050   0.000000
    39  C    4.842510   2.515745   1.334294   0.000000
    40  H    6.135574   1.098623   2.140537   3.161417   0.000000
    41  H    4.486612   1.095676   2.138858   2.636454   1.746891
    42  H    6.021124   2.209761   1.088476   2.093955   2.614637
    43  H    5.392466   3.505740   2.116539   1.086060   4.084663
    44  H    4.295366   2.781825   2.119826   1.087944   3.436164
                   41         42         43         44
    41  H    0.000000
    42  H    3.091897   0.000000
    43  H    3.719862   2.435908   0.000000
    44  H    2.447283   3.076365   1.849397   0.000000
 Stoichiometry    C14H26O3Si
 Framework group  C1[X(C14H26O3Si)]
 Deg. of freedom   126
 Full point group                 C1      NOp   1
 Largest Abelian subgroup         C1      NOp   1
 Largest concise Abelian subgroup C1      NOp   1
                         Standard orientation:                         
 ---------------------------------------------------------------------
 Center     Atomic      Atomic             Coordinates (Angstroms)
 Number     Number       Type             X           Y           Z
 ---------------------------------------------------------------------
      1          6           0        2.358477    0.222846    0.286580
      2          6           0        0.990035    0.244894    0.981522
      3          6           0       -0.119503   -0.008209   -0.076645
      4          6           0        0.139176   -1.386923   -0.709060
      5          6           0        1.582536   -1.695998   -1.076372
      6          1           0        2.398606    1.039243   -0.442925
      7          1           0        0.853182    1.268110    1.350643
      8          1           0       -0.160526   -2.163428    0.003845
      9          1           0       -0.459337   -1.543927   -1.609040
     10          8           0        2.576852   -1.007795   -0.477223
     11          8           0        1.871801   -2.594010   -1.839872
     12          6           0        3.563114    0.361845    1.215796
     13          6           0        4.887882    0.537623    0.467010
     14          6           0        0.902851   -0.714386    2.179864
     15          8           0       -1.362878   -0.005940    0.620013
     16         14           0       -2.989446   -0.183557    0.221806
     17          6           0       -3.731258    1.454820   -0.350866
     18          6           0       -3.284719   -1.493671   -1.104974
     19          6           0       -3.792162   -0.709738    1.839758
     20          1           0       -4.364045   -1.623632   -1.247988
     21          1           0       -2.860967   -1.214523   -2.075291
     22          1           0       -2.869755   -2.465819   -0.820593
     23          1           0       -3.602528    0.023210    2.630892
     24          1           0       -4.877684   -0.804470    1.724515
     25          1           0       -3.405037   -1.676341    2.178615
     26          1           0       -4.808882    1.336155   -0.514510
     27          1           0       -3.596376    2.239674    0.400966
     28          1           0       -3.293049    1.808939   -1.289403
     29          1           0       -0.121547   -0.755330    2.552101
     30          1           0        1.215294   -1.731065    1.920573
     31          1           0        1.545782   -0.372859    2.994949
     32          1           0        3.616461   -0.516147    1.867808
     33          1           0        3.382074    1.229038    1.862903
     34          1           0        5.720578    0.633424    1.170192
     35          1           0        5.087997   -0.319486   -0.181352
     36          1           0        4.872867    1.437384   -0.158268
     37          6           0       -0.135396    1.079321   -1.187921
     38          6           0       -0.221855    2.494325   -0.685473
     39          6           0        0.581632    3.487825   -1.069800
     40          1           0       -1.004024    0.858679   -1.823353
     41          1           0        0.739182    0.970998   -1.838987
     42          1           0       -1.011723    2.697563    0.035349
     43          1           0        0.463688    4.496766   -0.685541
     44          1           0        1.380955    3.332150   -1.791235
 ---------------------------------------------------------------------
 Rotational constants (GHZ):      0.5592059      0.2449965      0.2197883
 Standard basis: 6-311G(d) (5D, 7F)
 There are   428 symmetry adapted cartesian basis functions of A   symmetry.
 There are   410 symmetry adapted basis functions of A   symmetry.
   410 basis functions,   720 primitive gaussians,   428 cartesian basis functions
    74 alpha electrons       74 beta electrons
       nuclear repulsion energy      1620.7241384261 Hartrees.
 NAtoms=   44 NActive=   44 NUniq=   44 SFac= 1.00D+00 NAtFMM=   60 NAOKFM=F Big=F
 Integral buffers will be    131072 words long.
 Raffenetti 2 integral format.
 Two-electron integral symmetry is turned on.
 ------------------------------------------------------------------------------
 Polarizable Continuum Model (PCM)
 =================================
 Model                : PCM (using non-symmetric T matrix).
 Atomic radii         : UFF (Universal Force Field).
 Polarization charges : Total charges.
 Charge compensation  : None.
 Solution method      : On-the-fly selection.
 Cavity type          : Scaled VdW (van der Waals Surface) (Alpha=1.100).
 Cavity algorithm     : GePol (No added spheres)
                        Default sphere list used, NSphG=   44.
                        Lebedev-Laikov grids with approx.  5.0 points / Ang**2.
                        Smoothing algorithm: Karplus/York (Gamma=1.0000).
                        Polarization charges: spherical gaussians, with
                                              point-specific exponents (IZeta= 3).
                        Self-potential: point-specific (ISelfS= 7).
                        Self-field    : sphere-specific E.n sum rule (ISelfD= 2).
 Solvent              : Chloroform, Eps=   4.711300 Eps(inf)=   2.090627
 ------------------------------------------------------------------------------
 One-electron integrals computed using PRISM.
 NBasis=   410 RedAO= T EigKep=  9.53D-04  NBF=   410
 NBsUse=   410 1.00D-06 EigRej= -1.00D+00 NBFU=   410
 ExpMin= 6.54D-02 ExpMax= 6.94D+04 ExpMxC= 2.33D+03 IAcc=2 IRadAn=         4 AccDes= 0.00D+00
 Harris functional with IExCor=  908 and IRadAn=       4 diagonalized for initial guess.
 HarFok:  IExCor=  908 AccDes= 0.00D+00 IRadAn=         4 IDoV= 1 UseB2=F ITyADJ=14
 ICtDFT=  3500011 ScaDFX=  1.000000  1.000000  1.000000  1.000000
 FoFCou: FMM=F IPFlag=           0 FMFlag=      100000 FMFlg1=           0
         NFxFlg=           0 DoJE=T BraDBF=F KetDBF=T FulRan=T
         wScrn=  0.000000 ICntrl=     500 IOpCl=  0 I1Cent=   200000004 NGrid=           0
         NMat0=    1 NMatS0=      1 NMatT0=    0 NMatD0=    1 NMtDS0=    0 NMtDT0=    0
 Petite list used in FoFCou.
 Requested convergence on RMS density matrix=1.00D-08 within 128 cycles.
 Requested convergence on MAX density matrix=1.00D-06.
 Requested convergence on             energy=1.00D-06.
 No special actions if energy rises.
 Inv3:  Mode=1 IEnd=    24986988.
 Iteration    1 A*A^-1 deviation from unit magnitude is 5.33D-15 for   2878.
 Iteration    1 A*A^-1 deviation from orthogonality  is 2.80D-15 for   2878    919.
 Iteration    1 A^-1*A deviation from unit magnitude is 5.22D-15 for   2878.
 Iteration    1 A^-1*A deviation from orthogonality  is 6.85D-10 for   2723   2719.
 Iteration    2 A*A^-1 deviation from unit magnitude is 5.11D-15 for   1442.
 Iteration    2 A*A^-1 deviation from orthogonality  is 2.52D-15 for   1954    610.
 Iteration    2 A^-1*A deviation from unit magnitude is 8.88D-16 for    535.
 Iteration    2 A^-1*A deviation from orthogonality  is 3.76D-16 for   1806   1779.
 Error on total polarization charges =  0.01130
 SCF Done:  E(RmPW1PW91) =  -1064.38459460     A.U. after   12 cycles
            NFock= 12  Conv=0.85D-08     -V/T= 2.0036
 DoSCS=F DFT=T ScalE2(SS,OS)=  1.000000  1.000000
 Range of M.O.s used for correlation:     1   410
 NBasis=   410 NAE=    74 NBE=    74 NFC=     0 NFV=     0
 NROrb=    410 NOA=    74 NOB=    74 NVA=   336 NVB=   336
 NEqPCM:  Using equilibrium solvation (IEInf=0, Eps=   4.7113, EpsInf=   2.0906)
          Differentiating once with respect to magnetic field using GIAOs.
          Electric field/nuclear overlap derivatives assumed to be zero.
 FoFJK:  IHMeth= 1 ICntrl=    6127 DoSepK=F KAlg= 0 I1Cent=   0 FoldK=F
 IRaf=         1 NMat=   1 IRICut=       1 DoRegI=T DoRafI=F ISym2E= 0.
          There are     3 degrees of freedom in the 1st order CPHF.  IDoFFX=0 NUNeed=     3.
      3 vectors produced by pass  0 Test12= 8.29D-13 3.33D-08 XBig12= 3.60D+01 7.89D-01.
 AX will form     3 AO Fock derivatives at one time.
      3 vectors produced by pass  1 Test12= 8.29D-13 3.33D-08 XBig12= 7.92D-02 7.80D-02.
      3 vectors produced by pass  2 Test12= 8.29D-13 3.33D-08 XBig12= 7.22D-04 8.86D-03.
      3 vectors produced by pass  3 Test12= 8.29D-13 3.33D-08 XBig12= 3.72D-06 4.56D-04.
      3 vectors produced by pass  4 Test12= 8.29D-13 3.33D-08 XBig12= 1.64D-08 3.02D-05.
      3 vectors produced by pass  5 Test12= 8.29D-13 3.33D-08 XBig12= 6.29D-11 1.42D-06.
      2 vectors produced by pass  6 Test12= 8.29D-13 3.33D-08 XBig12= 1.81D-13 8.23D-08.
 InvSVY:  IOpt=1 It=  1 EMax= 3.55D-15
 Solved reduced A of dimension    20 with     3 vectors.
 Calculating GIAO nuclear magnetic shielding tensors.
 SCF GIAO Magnetic shielding tensor (ppm):
      1  C    Isotropic =   104.4658   Anisotropy =    47.9052
   XX=    99.1025   YX=    -3.3688   ZX=     0.0565
   XY=     1.5652   YY=   120.6889   ZY=    24.3357
   XZ=     2.2752   YZ=    27.5274   ZZ=    93.6060
   Eigenvalues:    77.7925    99.2024   136.4026
      2  C    Isotropic =   145.4678   Anisotropy =    21.1684
   XX=   158.5701   YX=     3.4077   ZX=     0.5921
   XY=     4.2910   YY=   137.3308   ZY=     2.1892
   XZ=     5.3737   YZ=    -7.2838   ZZ=   140.5026
   Eigenvalues:   134.9326   141.8908   159.5801
      3  C    Isotropic =   108.1527   Anisotropy =    55.5018
   XX=   136.7965   YX=     1.2515   ZX=   -20.5253
   XY=     5.7413   YY=    85.9620   ZY=    -1.9845
   XZ=   -16.9001   YZ=    -1.3083   ZZ=   101.6994
   Eigenvalues:    85.7081    93.5960   145.1539
      4  C    Isotropic =   143.6258   Anisotropy =    39.4118
   XX=   153.0598   YX=   -15.1324   ZX=    -8.5542
   XY=   -10.7074   YY=   146.7341   ZY=     4.6462
   XZ=   -16.3828   YZ=    15.8271   ZZ=   131.0835
   Eigenvalues:   124.3732   136.6038   169.9004
      5  C    Isotropic =    13.0408   Anisotropy =    88.3877
   XX=   -59.7923   YX=   -29.6407   ZX=   -20.7841
   XY=   -38.8408   YY=    43.5516   ZY=   -22.5376
   XZ=   -31.9662   YZ=   -20.9018   ZZ=    55.3631
   Eigenvalues:   -77.6515    44.8079    71.9659
      6  H    Isotropic =    27.9594   Anisotropy =     4.1588
   XX=    30.4685   YX=    -0.1624   ZX=     0.8267
   XY=    -0.0824   YY=    28.6601   ZY=    -2.4894
   XZ=     0.7503   YZ=    -2.1802   ZZ=    24.7495
   Eigenvalues:    23.5952    29.5510    30.7319
      7  H    Isotropic =    30.2483   Anisotropy =     5.4689
   XX=    28.5882   YX=    -1.0708   ZX=     2.1172
   XY=    -1.5121   YY=    33.4815   ZY=     0.0128
   XZ=     1.3516   YZ=    -0.5213   ZZ=    28.6753
   Eigenvalues:    26.8088    30.0420    33.8942
      8  H    Isotropic =    29.5715   Anisotropy =     3.9547
   XX=    29.3585   YX=     0.5648   ZX=    -0.0828
   XY=     1.1254   YY=    31.9526   ZY=    -0.4309
   XZ=    -0.4982   YZ=     0.3039   ZZ=    27.4034
   Eigenvalues:    27.3603    29.1462    32.2079
      9  H    Isotropic =    29.6522   Anisotropy =     4.1903
   XX=    32.0017   YX=    -0.2312   ZX=     1.6127
   XY=    -1.3670   YY=    28.2103   ZY=     3.3220
   XZ=     0.7645   YZ=     3.3670   ZZ=    28.7447
   Eigenvalues:    24.8502    31.6607    32.4457
     10  O    Isotropic =   110.6693   Anisotropy =   192.5406
   XX=   166.5566   YX=    72.9820   ZX=    70.8112
   XY=    83.1454   YY=    49.2871   ZY=  -134.6221
   XZ=    84.7041   YZ=  -161.9927   ZZ=   116.1642
   Eigenvalues:  -112.3777   205.3559   239.0297
     11  O    Isotropic =  -103.9811   Anisotropy =   567.6972
   XX=  -224.7699   YX=   -58.0432   ZX=   -34.5563
   XY=   -54.0272   YY=   -88.0730   ZY=  -300.3228
   XZ=   -21.3697   YZ=  -328.5653   ZZ=     0.8996
   Eigenvalues:  -384.2722  -202.1547   274.4837
     12  C    Isotropic =   157.7874   Anisotropy =    19.9884
   XX=   165.3799   YX=     4.3685   ZX=    10.4229
   XY=     0.6483   YY=   151.3045   ZY=     7.6010
   XZ=     3.8912   YZ=     6.4265   ZZ=   156.6778
   Eigenvalues:   146.2276   156.0216   171.1130
     13  C    Isotropic =   175.1997   Anisotropy =    22.7071
   XX=   187.1288   YX=     3.9321   ZX=    -3.7623
   XY=     1.9186   YY=   165.4509   ZY=    -7.4552
   XZ=    -7.7899   YZ=    -6.8157   ZZ=   173.0192
   Eigenvalues:   161.1488   174.1124   190.3377
     14  C    Isotropic =   180.1620   Anisotropy =    12.7783
   XX=   177.7969   YX=     2.1813   ZX=     1.6975
   XY=     2.0210   YY=   180.7812   ZY=    -8.2088
   XZ=     2.3292   YZ=    -6.4200   ZZ=   181.9081
   Eigenvalues:   172.4308   179.3744   188.6809
     15  O    Isotropic =   245.4335   Anisotropy =    13.0474
   XX=   238.9148   YX=    -3.7436   ZX=    -0.7874
   XY=    -8.6060   YY=   244.9467   ZY=     5.2973
   XZ=     1.6781   YZ=     1.7634   ZZ=   252.4389
   Eigenvalues:   234.7639   247.4048   254.1317
     16  Si   Isotropic =   332.5405   Anisotropy =    43.7246
   XX=   358.5891   YX=    11.0312   ZX=    15.7498
   XY=     9.7698   YY=   316.5203   ZY=    -2.3999
   XZ=    -3.4548   YZ=    -5.5043   ZZ=   322.5121
   Eigenvalues:   311.4716   324.4597   361.6903
     17  C    Isotropic =   185.2124   Anisotropy =    10.6868
   XX=   186.6553   YX=    -2.8464   ZX=     1.7313
   XY=    -0.3933   YY=   190.7109   ZY=    -3.2170
   XZ=     3.4880   YZ=    -3.0360   ZZ=   178.2712
   Eigenvalues:   177.0255   186.2749   192.3369
     18  C    Isotropic =   185.4526   Anisotropy =     8.3358
   XX=   188.3070   YX=     0.7987   ZX=     1.7789
   XY=    -1.3346   YY=   185.0788   ZY=     6.5760
   XZ=    -0.3172   YZ=     7.1765   ZZ=   182.9721
   Eigenvalues:   177.0219   188.3262   191.0098
     19  C    Isotropic =   186.6438   Anisotropy =    12.3812
   XX=   189.1085   YX=     2.0048   ZX=    -2.8059
   XY=     1.9123   YY=   179.0518   ZY=    -4.4384
   XZ=    -2.2982   YZ=    -4.8614   ZZ=   191.7711
   Eigenvalues:   177.4302   187.6033   194.8979
     20  H    Isotropic =    32.1546   Anisotropy =    10.5297
   XX=    37.7397   YX=     2.7196   ZX=     2.5642
   XY=     2.2889   YY=    29.3689   ZY=     1.5151
   XZ=     2.1694   YZ=     1.5611   ZZ=    29.3552
   Eigenvalues:    27.8226    29.4668    39.1744
     21  H    Isotropic =    31.8619   Anisotropy =     6.4774
   XX=    31.0689   YX=     1.4190   ZX=    -1.1444
   XY=     1.0176   YY=    28.7757   ZY=     0.4787
   XZ=    -1.8455   YZ=    -0.0038   ZZ=    35.7409
   Eigenvalues:    28.1568    31.2486    36.1802
     22  H    Isotropic =    31.8718   Anisotropy =     7.2904
   XX=    30.9738   YX=    -1.1049   ZX=     1.0446
   XY=    -1.5941   YY=    36.4107   ZY=    -0.3674
   XZ=     0.3834   YZ=     0.2874   ZZ=    28.2309
   Eigenvalues:    28.0460    30.8374    36.7321
     23  H    Isotropic =    31.8816   Anisotropy =     8.2702
   XX=    29.6305   YX=     0.7141   ZX=    -0.9450
   XY=     0.7309   YY=    30.6572   ZY=     3.3437
   XZ=    -0.5972   YZ=     4.0342   ZZ=    35.3570
   Eigenvalues:    28.0074    30.2423    37.3950
     24  H    Isotropic =    32.3338   Anisotropy =    10.3413
   XX=    38.8009   YX=     1.5271   ZX=    -1.5118
   XY=     1.4786   YY=    28.5361   ZY=    -0.6046
   XZ=    -1.1971   YZ=    -0.5371   ZZ=    29.6644
   Eigenvalues:    28.2109    29.5625    39.2280
     25  H    Isotropic =    31.9457   Anisotropy =     7.9772
   XX=    30.2665   YX=    -1.2415   ZX=    -0.6267
   XY=    -1.4683   YY=    34.4801   ZY=    -3.7465
   XZ=    -0.0868   YZ=    -4.2706   ZZ=    31.0905
   Eigenvalues:    27.9425    30.6307    37.2638
     26  H    Isotropic =    32.2129   Anisotropy =    10.2837
   XX=    38.5635   YX=    -1.2593   ZX=     1.8852
   XY=    -0.9714   YY=    29.5985   ZY=    -0.5677
   XZ=     1.9680   YZ=    -0.4604   ZZ=    28.4766
   Eigenvalues:    28.0560    29.5139    39.0687
     27  H    Isotropic =    31.8628   Anisotropy =     8.0350
   XX=    30.0037   YX=    -0.9535   ZX=    -0.1764
   XY=    -0.4787   YY=    34.9376   ZY=     4.2004
   XZ=     0.0713   YZ=     3.4125   ZZ=    30.6471
   Eigenvalues:    28.3605    30.0085    37.2194
     28  H    Isotropic =    31.8874   Anisotropy =     6.4616
   XX=    31.7558   YX=    -0.1150   ZX=    -1.5991
   XY=     0.2661   YY=    30.6540   ZY=    -3.9967
   XZ=    -1.6208   YZ=    -3.1783   ZZ=    33.2525
   Eigenvalues:    27.9304    31.5367    36.1952
     29  H    Isotropic =    30.7159   Anisotropy =     8.5713
   XX=    35.3924   YX=     0.0224   ZX=    -1.8567
   XY=     0.6749   YY=    24.6158   ZY=    -2.5676
   XZ=    -1.8805   YZ=    -2.7583   ZZ=    32.1395
   Eigenvalues:    23.7638    31.9538    36.4301
     30  H    Isotropic =    31.4601   Anisotropy =     7.4563
   XX=    28.9013   YX=    -1.6964   ZX=     0.4361
   XY=    -1.7135   YY=    35.3169   ZY=    -2.1710
   XZ=     0.3045   YZ=    -1.9279   ZZ=    30.1623
   Eigenvalues:    28.4596    29.4898    36.4310
     31  H    Isotropic =    31.2231   Anisotropy =    10.0135
   XX=    30.9974   YX=     1.9887   ZX=     3.0591
   XY=     1.5830   YY=    26.4573   ZY=    -0.0162
   XZ=     3.6199   YZ=     0.0185   ZZ=    36.2146
   Eigenvalues:    25.7041    30.0665    37.8987
     32  H    Isotropic =    30.3468   Anisotropy =     4.6202
   XX=    33.1224   YX=     0.4727   ZX=     0.4390
   XY=     0.5383   YY=    27.7022   ZY=    -4.1827
   XZ=     0.3220   YZ=    -4.3922   ZZ=    30.2159
   Eigenvalues:    24.4450    33.1685    33.4270
     33  H    Isotropic =    30.7734   Anisotropy =     6.6824
   XX=    32.1059   YX=     1.0682   ZX=    -0.2204
   XY=     1.4787   YY=    29.9137   ZY=     5.0424
   XZ=     0.0756   YZ=     4.7371   ZZ=    30.3005
   Eigenvalues:    25.0788    32.0130    35.2283
     34  H    Isotropic =    31.0021   Anisotropy =    11.5546
   XX=    37.2414   YX=     1.4614   ZX=     3.8642
   XY=     1.2463   YY=    26.2188   ZY=     0.0986
   XZ=     3.0631   YZ=     0.0730   ZZ=    29.5461
   Eigenvalues:    26.0110    28.2901    38.7051
     35  H    Isotropic =    30.6149   Anisotropy =     8.0602
   XX=    33.0756   YX=    -1.4656   ZX=    -2.9479
   XY=    -1.2501   YY=    30.0291   ZY=     3.6727
   XZ=    -2.3088   YZ=     4.0698   ZZ=    28.7400
   Eigenvalues:    25.2750    30.5814    35.9884
     36  H    Isotropic =    31.2174   Anisotropy =     8.7645
   XX=    31.5720   YX=     2.4864   ZX=    -2.1944
   XY=     2.1839   YY=    32.4830   ZY=    -3.9127
   XZ=    -1.2094   YZ=    -4.6102   ZZ=    29.5973
   Eigenvalues:    26.5409    30.0509    37.0605
     37  C    Isotropic =   140.1800   Anisotropy =    34.2627
   XX=   122.0961   YX=    -2.1160   ZX=     1.9139
   XY=     1.2548   YY=   161.6146   ZY=    -6.4587
   XZ=     2.2183   YZ=    -5.5963   ZZ=   136.8294
   Eigenvalues:   121.8076   135.7106   163.0218
     38  C    Isotropic =    46.7391   Anisotropy =   179.0419
   XX=    59.1582   YX=    21.8179   ZX=    95.5672
   XY=    23.4967   YY=    13.8817   ZY=   -67.0765
   XZ=    94.4159   YZ=   -65.7902   ZZ=    67.1773
   Eigenvalues:   -76.8993    51.0162   166.1003
     39  C    Isotropic =    65.2281   Anisotropy =   141.7192
   XX=    81.0242   YX=    29.4773   ZX=    74.6336
   XY=    30.9288   YY=    36.9136   ZY=   -62.8389
   XZ=    73.3179   YZ=   -68.2536   ZZ=    77.7466
   Eigenvalues:   -49.7621    85.7389   159.7076
     40  H    Isotropic =    29.5696   Anisotropy =     4.3145
   XX=    30.5978   YX=     1.4506   ZX=     1.4528
   XY=     1.0295   YY=    28.4959   ZY=    -1.2621
   XZ=     2.9563   YZ=    -0.1126   ZZ=    29.6152
   Eigenvalues:    26.8005    29.4624    32.4460
     41  H    Isotropic =    29.6151   Anisotropy =     5.0462
   XX=    29.3357   YX=     0.8130   ZX=    -2.0525
   XY=    -0.4706   YY=    29.0113   ZY=    -1.6319
   XZ=    -1.6939   YZ=    -3.0953   ZZ=    30.4984
   Eigenvalues:    26.8158    29.0503    32.9793
     42  H    Isotropic =    25.7949   Anisotropy =     6.6517
   XX=    26.6040   YX=     1.1102   ZX=     0.6879
   XY=     2.3427   YY=    29.3216   ZY=    -1.5299
   XZ=     0.6987   YZ=    -0.8504   ZZ=    21.4591
   Eigenvalues:    21.1129    26.0424    30.2294
     43  H    Isotropic =    26.7059   Anisotropy =     6.8585
   XX=    25.8667   YX=     3.0686   ZX=     0.6991
   XY=     1.4138   YY=    29.9501   ZY=    -0.9426
   XZ=     0.2447   YZ=    -2.7794   ZZ=    24.3009
   Eigenvalues:    23.1804    25.6590    31.2782
     44  H    Isotropic =    26.7486   Anisotropy =     7.1317
   XX=    26.6009   YX=     1.6454   ZX=    -0.2480
   XY=     3.5678   YY=    28.4196   ZY=    -4.1384
   XZ=     0.4831   YZ=    -2.5138   ZZ=    25.2252
   Eigenvalues:    22.5045    26.2382    31.5030
 End of Minotr F.D. properties file   721 does not exist.
 End of Minotr F.D. properties file   722 does not exist.
 End of Minotr F.D. properties file   788 does not exist.

 **********************************************************************

            Population analysis using the SCF density.

 **********************************************************************

 Orbital symmetries:
       Occupied  (A) (A) (A) (A) (A) (A) (A) (A) (A) (A) (A) (A)
                 (A) (A) (A) (A) (A) (A) (A) (A) (A) (A) (A) (A)
                 (A) (A) (A) (A) (A) (A) (A) (A) (A) (A) (A) (A)
                 (A) (A) (A) (A) (A) (A) (A) (A) (A) (A) (A) (A)
                 (A) (A) (A) (A) (A) (A) (A) (A) (A) (A) (A) (A)
                 (A) (A) (A) (A) (A) (A) (A) (A) (A) (A) (A) (A)
                 (A) (A)
       Virtual   (A) (A) (A) (A) (A) (A) (A) (A) (A) (A) (A) (A)
                 (A) (A) (A) (A) (A) (A) (A) (A) (A) (A) (A) (A)
                 (A) (A) (A) (A) (A) (A) (A) (A) (A) (A) (A) (A)
                 (A) (A) (A) (A) (A) (A) (A) (A) (A) (A) (A) (A)
                 (A) (A) (A) (A) (A) (A) (A) (A) (A) (A) (A) (A)
                 (A) (A) (A) (A) (A) (A) (A) (A) (A) (A) (A) (A)
                 (A) (A) (A) (A) (A) (A) (A) (A) (A) (A) (A) (A)
                 (A) (A) (A) (A) (A) (A) (A) (A) (A) (A) (A) (A)
                 (A) (A) (A) (A) (A) (A) (A) (A) (A) (A) (A) (A)
                 (A) (A) (A) (A) (A) (A) (A) (A) (A) (A) (A) (A)
                 (A) (A) (A) (A) (A) (A) (A) (A) (A) (A) (A) (A)
                 (A) (A) (A) (A) (A) (A) (A) (A) (A) (A) (A) (A)
                 (A) (A) (A) (A) (A) (A) (A) (A) (A) (A) (A) (A)
                 (A) (A) (A) (A) (A) (A) (A) (A) (A) (A) (A) (A)
                 (A) (A) (A) (A) (A) (A) (A) (A) (A) (A) (A) (A)
                 (A) (A) (A) (A) (A) (A) (A) (A) (A) (A) (A) (A)
                 (A) (A) (A) (A) (A) (A) (A) (A) (A) (A) (A) (A)
                 (A) (A) (A) (A) (A) (A) (A) (A) (A) (A) (A) (A)
                 (A) (A) (A) (A) (A) (A) (A) (A) (A) (A) (A) (A)
                 (A) (A) (A) (A) (A) (A) (A) (A) (A) (A) (A) (A)
                 (A) (A) (A) (A) (A) (A) (A) (A) (A) (A) (A) (A)
                 (A) (A) (A) (A) (A) (A) (A) (A) (A) (A) (A) (A)
                 (A) (A) (A) (A) (A) (A) (A) (A) (A) (A) (A) (A)
                 (A) (A) (A) (A) (A) (A) (A) (A) (A) (A) (A) (A)
                 (A) (A) (A) (A) (A) (A) (A) (A) (A) (A) (A) (A)
                 (A) (A) (A) (A) (A) (A) (A) (A) (A) (A) (A) (A)
                 (A) (A) (A) (A) (A) (A) (A) (A) (A) (A) (A) (A)
                 (A) (A) (A) (A) (A) (A) (A) (A) (A) (A) (A) (A)
 The electronic state is 1-A.
 Alpha  occ. eigenvalues --  -66.27487 -19.25849 -19.20719 -19.19544 -10.36965
 Alpha  occ. eigenvalues --  -10.31755 -10.30281 -10.25066 -10.25004 -10.24652
 Alpha  occ. eigenvalues --  -10.24488 -10.23718 -10.23185 -10.22196 -10.22055
 Alpha  occ. eigenvalues --  -10.21062 -10.20861 -10.20692  -5.33218  -3.67106
 Alpha  occ. eigenvalues --   -3.66812  -3.66795  -1.13100  -1.04755  -1.04047
 Alpha  occ. eigenvalues --   -0.85942  -0.83008  -0.80984  -0.77372  -0.74003
 Alpha  occ. eigenvalues --   -0.73282  -0.71357  -0.70378  -0.70176  -0.66638
 Alpha  occ. eigenvalues --   -0.63729  -0.62383  -0.58866  -0.54470  -0.52891
 Alpha  occ. eigenvalues --   -0.52702  -0.51352  -0.50456  -0.47958  -0.47226
 Alpha  occ. eigenvalues --   -0.46487  -0.45212  -0.44794  -0.44376  -0.43994
 Alpha  occ. eigenvalues --   -0.42884  -0.42714  -0.42006  -0.41489  -0.40953
 Alpha  occ. eigenvalues --   -0.40745  -0.40292  -0.39825  -0.39657  -0.38617
 Alpha  occ. eigenvalues --   -0.38327  -0.37935  -0.37035  -0.36678  -0.36408
 Alpha  occ. eigenvalues --   -0.35502  -0.34318  -0.33378  -0.32159  -0.30963
 Alpha  occ. eigenvalues --   -0.30111  -0.29708  -0.28212  -0.27365
 Alpha virt. eigenvalues --    0.00318   0.00742   0.03819   0.05596   0.06375
 Alpha virt. eigenvalues --    0.06474   0.07210   0.08025   0.08378   0.09245
 Alpha virt. eigenvalues --    0.09341   0.10175   0.10253   0.10967   0.11111
 Alpha virt. eigenvalues --    0.12092   0.12430   0.13057   0.13735   0.14001
 Alpha virt. eigenvalues --    0.14430   0.14633   0.14692   0.14918   0.15376
 Alpha virt. eigenvalues --    0.15817   0.16447   0.17005   0.17220   0.17688
 Alpha virt. eigenvalues --    0.18352   0.19392   0.19716   0.20375   0.20543
 Alpha virt. eigenvalues --    0.22328   0.22588   0.22873   0.23579   0.24130
 Alpha virt. eigenvalues --    0.25027   0.25252   0.26540   0.27552   0.29042
 Alpha virt. eigenvalues --    0.29714   0.30318   0.31073   0.31795   0.31989
 Alpha virt. eigenvalues --    0.33064   0.33577   0.35051   0.35162   0.36109
 Alpha virt. eigenvalues --    0.37187   0.38556   0.39146   0.39493   0.39955
 Alpha virt. eigenvalues --    0.41341   0.41950   0.43051   0.43313   0.43720
 Alpha virt. eigenvalues --    0.44689   0.46597   0.46757   0.47385   0.48768
 Alpha virt. eigenvalues --    0.49182   0.49454   0.51011   0.52043   0.52653
 Alpha virt. eigenvalues --    0.52955   0.54027   0.54227   0.55294   0.56080
 Alpha virt. eigenvalues --    0.56803   0.57181   0.58197   0.58684   0.59080
 Alpha virt. eigenvalues --    0.59230   0.59653   0.60495   0.60660   0.61088
 Alpha virt. eigenvalues --    0.61591   0.61743   0.62213   0.62489   0.63106
 Alpha virt. eigenvalues --    0.63678   0.63814   0.64427   0.64558   0.65410
 Alpha virt. eigenvalues --    0.65876   0.66139   0.67289   0.67696   0.68029
 Alpha virt. eigenvalues --    0.68248   0.69349   0.69818   0.70698   0.71519
 Alpha virt. eigenvalues --    0.71989   0.72826   0.72988   0.74063   0.74213
 Alpha virt. eigenvalues --    0.74549   0.77420   0.78144   0.79542   0.80860
 Alpha virt. eigenvalues --    0.82155   0.82892   0.86367   0.87077   0.88730
 Alpha virt. eigenvalues --    0.90360   0.90622   0.92258   0.92729   0.94123
 Alpha virt. eigenvalues --    0.94726   0.96820   0.97484   0.98880   1.01258
 Alpha virt. eigenvalues --    1.01838   1.02763   1.05164   1.06417   1.10381
 Alpha virt. eigenvalues --    1.12563   1.13526   1.15706   1.19169   1.20295
 Alpha virt. eigenvalues --    1.22687   1.23521   1.24104   1.26369   1.28017
 Alpha virt. eigenvalues --    1.28376   1.30090   1.31881   1.32576   1.32757
 Alpha virt. eigenvalues --    1.33940   1.35702   1.38344   1.40390   1.40831
 Alpha virt. eigenvalues --    1.42056   1.44642   1.45177   1.48111   1.48875
 Alpha virt. eigenvalues --    1.50334   1.51322   1.51765   1.52832   1.53573
 Alpha virt. eigenvalues --    1.54031   1.55136   1.56153   1.57542   1.58167
 Alpha virt. eigenvalues --    1.58926   1.59358   1.59855   1.60167   1.60979
 Alpha virt. eigenvalues --    1.61319   1.61421   1.62938   1.63023   1.64420
 Alpha virt. eigenvalues --    1.64796   1.66314   1.67633   1.68347   1.68901
 Alpha virt. eigenvalues --    1.69187   1.70683   1.72728   1.73682   1.74323
 Alpha virt. eigenvalues --    1.75904   1.76658   1.78401   1.79642   1.79940
 Alpha virt. eigenvalues --    1.81988   1.83050   1.83524   1.83934   1.86411
 Alpha virt. eigenvalues --    1.88179   1.88719   1.93810   1.96008   1.98492
 Alpha virt. eigenvalues --    1.99888   2.03746   2.06716   2.09762   2.12364
 Alpha virt. eigenvalues --    2.14158   2.17576   2.22066   2.22672   2.27301
 Alpha virt. eigenvalues --    2.28496   2.30237   2.34305   2.36753   2.41050
 Alpha virt. eigenvalues --    2.41497   2.41849   2.42327   2.42672   2.42819
 Alpha virt. eigenvalues --    2.44248   2.45023   2.45991   2.46680   2.47035
 Alpha virt. eigenvalues --    2.47560   2.48082   2.49650   2.51066   2.51912
 Alpha virt. eigenvalues --    2.53806   2.54624   2.55460   2.58768   2.59333
 Alpha virt. eigenvalues --    2.62060   2.64011   2.66249   2.71695   2.78451
 Alpha virt. eigenvalues --    2.82683   2.86700   2.87759   2.90643   2.91995
 Alpha virt. eigenvalues --    2.92229   2.92785   2.95678   2.96963   2.98395
 Alpha virt. eigenvalues --    2.99264   3.00756   3.02631   3.03281   3.06908
 Alpha virt. eigenvalues --    3.09710   3.10570   3.14054   3.14539   3.15574
 Alpha virt. eigenvalues --    3.16438   3.17410   3.17802   3.18225   3.19358
 Alpha virt. eigenvalues --    3.21963   3.22522   3.23094   3.23569   3.24122
 Alpha virt. eigenvalues --    3.25059   3.26767   3.28861   3.30460   3.31041
 Alpha virt. eigenvalues --    3.35304   3.35842   3.38052   3.39642   3.40700
 Alpha virt. eigenvalues --    3.45252   3.51135   3.57904   3.59212   3.63188
 Alpha virt. eigenvalues --    3.76816   3.88274   3.90470   3.99148   4.01911
 Alpha virt. eigenvalues --    4.08656   4.14229   4.20986   4.23312   4.25827
 Alpha virt. eigenvalues --    4.94237   5.00333   5.01731   5.10748   5.14940
 Alpha virt. eigenvalues --    5.24256   5.52678   5.56316   5.76594   5.84635
 Alpha virt. eigenvalues --   11.52766  11.53301  11.57103  23.41177  23.48643
 Alpha virt. eigenvalues --   23.53967  23.54180  23.57469  23.62574  23.70889
 Alpha virt. eigenvalues --   23.73662  23.78461  23.79590  23.82004  23.87152
 Alpha virt. eigenvalues --   23.88067  24.28839  49.98492  50.05194  50.13052
 Alpha virt. eigenvalues --  141.27847
          Condensed to atoms (all electrons):
               1          2          3          4          5          6
     1  C    5.292328   0.257319  -0.064812  -0.000983  -0.053288   0.385845
     2  C    0.257319   5.573246   0.292624  -0.075259  -0.014543  -0.042821
     3  C   -0.064812   0.292624   5.168304   0.218516  -0.020074  -0.017840
     4  C   -0.000983  -0.075259   0.218516   5.862022   0.241856   0.002910
     5  C   -0.053288  -0.014543  -0.020074   0.241856   4.387650  -0.002731
     6  H    0.385845  -0.042821  -0.017840   0.002910  -0.002731   0.477021
     7  H   -0.036006   0.390092  -0.041805   0.008444   0.000284  -0.000205
     8  H    0.002164  -0.008725  -0.032503   0.372695  -0.021747  -0.000320
     9  H   -0.001038   0.007899  -0.028323   0.359952  -0.025768   0.000241
    10  O    0.194934  -0.036175   0.004709  -0.103428   0.350998  -0.033739
    11  O    0.002357  -0.000365   0.004936  -0.095078   0.666355  -0.000075
    12  C    0.321005  -0.050887   0.008488  -0.002026   0.003075  -0.047153
    13  C   -0.072459   0.006676  -0.000160   0.000066  -0.000122  -0.007267
    14  C   -0.074284   0.291506  -0.071654  -0.010559   0.001294   0.007287
    15  O    0.003842  -0.056677   0.217600  -0.032393   0.001733  -0.000047
    16  Si   0.000004   0.003041  -0.045436  -0.009867   0.001418  -0.000030
    17  C    0.000003  -0.000311   0.000323  -0.000155   0.000003   0.000001
    18  C    0.000012  -0.000210   0.001219  -0.005073  -0.000197   0.000000
    19  C   -0.000001   0.000078   0.002541  -0.000325  -0.000005   0.000000
    20  H    0.000000   0.000005  -0.000116   0.000305   0.000001   0.000000
    21  H    0.000007  -0.000072   0.001022  -0.000784  -0.000137  -0.000002
    22  H    0.000004  -0.000063   0.000369   0.000350  -0.000125   0.000000
    23  H   -0.000001   0.000073  -0.000130  -0.000021   0.000000   0.000000
    24  H    0.000000   0.000000  -0.000062  -0.000002   0.000000   0.000000
    25  H    0.000000   0.000029   0.000005   0.000018  -0.000002   0.000000
    26  H    0.000000   0.000006  -0.000020  -0.000009   0.000000   0.000000
    27  H   -0.000002   0.000007   0.000336  -0.000023   0.000001   0.000000
    28  H    0.000002  -0.000058   0.000308  -0.000036   0.000004  -0.000001
    29  H    0.007378  -0.038657  -0.006034  -0.000382  -0.000111  -0.000146
    30  H   -0.006550  -0.040639  -0.009481   0.005701  -0.000701   0.000567
    31  H   -0.007062  -0.033690   0.006876  -0.000433  -0.000060  -0.000325
    32  H   -0.039964  -0.011146  -0.000596   0.000159  -0.000156   0.007530
    33  H   -0.053827   0.001815  -0.000234   0.000172  -0.000031   0.000204
    34  H    0.008163  -0.000221   0.000012  -0.000002   0.000006  -0.000196
    35  H   -0.012299   0.000744  -0.000063   0.000312   0.000617   0.000322
    36  H   -0.003890  -0.000415  -0.000020  -0.000007  -0.000070   0.005461
    37  C    0.004317  -0.096490   0.332850  -0.103189   0.003324   0.005724
    38  C   -0.003974  -0.017019  -0.060428   0.008878  -0.000329   0.000255
    39  C   -0.000966  -0.000126  -0.002444  -0.000084  -0.000025   0.004124
    40  H   -0.000381   0.007594  -0.046794  -0.003442  -0.000189   0.000879
    41  H   -0.000131  -0.001469  -0.024405  -0.006171   0.002178  -0.004329
    42  H    0.000320  -0.001794  -0.000762   0.000085  -0.000011  -0.000043
    43  H    0.000040   0.000031  -0.000348   0.000015   0.000000   0.000052
    44  H    0.000118  -0.000194   0.000276  -0.000044  -0.000009   0.000765
               7          8          9         10         11         12
     1  C   -0.036006   0.002164  -0.001038   0.194934   0.002357   0.321005
     2  C    0.390092  -0.008725   0.007899  -0.036175  -0.000365  -0.050887
     3  C   -0.041805  -0.032503  -0.028323   0.004709   0.004936   0.008488
     4  C    0.008444   0.372695   0.359952  -0.103428  -0.095078  -0.002026
     5  C    0.000284  -0.021747  -0.025768   0.350998   0.666355   0.003075
     6  H   -0.000205  -0.000320   0.000241  -0.033739  -0.000075  -0.047153
     7  H    0.454049  -0.000291  -0.000053   0.003475   0.000020  -0.004233
     8  H   -0.000291   0.401031  -0.015484   0.000295   0.001197   0.000060
     9  H   -0.000053  -0.015484   0.419004   0.004439   0.010434   0.000049
    10  O    0.003475   0.000295   0.004439   8.050110  -0.076936  -0.052341
    11  O    0.000020   0.001197   0.010434  -0.076936   7.870916  -0.000160
    12  C   -0.004233   0.000060   0.000049  -0.052341  -0.000160   5.308257
    13  C   -0.000345   0.000010  -0.000003  -0.004272  -0.000014   0.318585
    14  C   -0.033247   0.000909  -0.000019  -0.000527  -0.000033  -0.013006
    15  O    0.001691  -0.000588  -0.001054  -0.000018  -0.000019  -0.000068
    16  Si   0.000384   0.000384  -0.001458  -0.000126  -0.000291   0.000003
    17  C   -0.000040   0.000064  -0.000172   0.000000   0.000000   0.000000
    18  C    0.000021   0.000403  -0.002593  -0.000002  -0.000011   0.000000
    19  C    0.000003  -0.000155   0.000030   0.000000   0.000000   0.000000
    20  H    0.000000  -0.000015   0.000250   0.000000   0.000000   0.000000
    21  H    0.000001  -0.000141   0.001460  -0.000001  -0.000038   0.000000
    22  H    0.000004   0.001205  -0.001034   0.000000   0.000006   0.000000
    23  H    0.000001  -0.000020  -0.000003   0.000000   0.000000   0.000000
    24  H   -0.000001   0.000005  -0.000002   0.000000   0.000000   0.000000
    25  H    0.000005   0.000054   0.000005   0.000000   0.000000   0.000000
    26  H   -0.000001   0.000000   0.000001   0.000000   0.000000   0.000000
    27  H   -0.000035  -0.000002  -0.000002   0.000000   0.000000   0.000000
    28  H   -0.000012   0.000014  -0.000057   0.000000   0.000000   0.000000
    29  H   -0.002348   0.000690  -0.000172  -0.000146   0.000003   0.000056
    30  H    0.006513  -0.001005   0.000366   0.007111  -0.000365  -0.003565
    31  H   -0.006284   0.000176   0.000017   0.000032   0.000001   0.003211
    32  H    0.000324  -0.000082   0.000007   0.002574  -0.000086   0.388099
    33  H    0.002555  -0.000020  -0.000003   0.003922   0.000008   0.393352
    34  H   -0.000016   0.000000   0.000000  -0.000209   0.000000  -0.037591
    35  H   -0.000052  -0.000009  -0.000009   0.012426   0.000192  -0.038112
    36  H    0.000037   0.000000   0.000000  -0.000364  -0.000001  -0.041012
    37  C   -0.012173   0.006025  -0.006901  -0.003821  -0.000032  -0.000504
    38  C    0.011020  -0.000183   0.000048   0.000417   0.000000  -0.000024
    39  C    0.002522  -0.000001   0.000007  -0.000025   0.000000   0.000063
    40  H    0.000384  -0.000324   0.003472  -0.000132  -0.000008   0.000000
    41  H   -0.000248   0.000251  -0.000149   0.001862  -0.000177   0.000702
    42  H    0.000193   0.000027  -0.000012   0.000004   0.000000   0.000012
    43  H    0.000135  -0.000001   0.000001   0.000000   0.000000  -0.000003
    44  H   -0.000035   0.000002   0.000004  -0.000030   0.000000   0.000035
              13         14         15         16         17         18
     1  C   -0.072459  -0.074284   0.003842   0.000004   0.000003   0.000012
     2  C    0.006676   0.291506  -0.056677   0.003041  -0.000311  -0.000210
     3  C   -0.000160  -0.071654   0.217600  -0.045436   0.000323   0.001219
     4  C    0.000066  -0.010559  -0.032393  -0.009867  -0.000155  -0.005073
     5  C   -0.000122   0.001294   0.001733   0.001418   0.000003  -0.000197
     6  H   -0.007267   0.007287  -0.000047  -0.000030   0.000001   0.000000
     7  H   -0.000345  -0.033247   0.001691   0.000384  -0.000040   0.000021
     8  H    0.000010   0.000909  -0.000588   0.000384   0.000064   0.000403
     9  H   -0.000003  -0.000019  -0.001054  -0.001458  -0.000172  -0.002593
    10  O   -0.004272  -0.000527  -0.000018  -0.000126   0.000000  -0.000002
    11  O   -0.000014  -0.000033  -0.000019  -0.000291   0.000000  -0.000011
    12  C    0.318585  -0.013006  -0.000068   0.000003   0.000000   0.000000
    13  C    5.339061  -0.000098   0.000001   0.000000   0.000000   0.000000
    14  C   -0.000098   5.416513  -0.008025  -0.000477   0.000012  -0.000055
    15  O    0.000001  -0.008025   8.276160   0.356644  -0.025611  -0.024468
    16  Si   0.000000  -0.000477   0.356644  11.510400   0.315607   0.313039
    17  C    0.000000   0.000012  -0.025611   0.315607   5.777065  -0.054766
    18  C    0.000000  -0.000055  -0.024468   0.313039  -0.054766   5.786597
    19  C    0.000000   0.000054  -0.030912   0.334374  -0.049032  -0.043041
    20  H    0.000000   0.000001   0.000752  -0.009674  -0.000048   0.363382
    21  H    0.000000  -0.000003  -0.001381  -0.027244  -0.000813   0.369541
    22  H    0.000000  -0.000017  -0.002164  -0.025617   0.002156   0.369470
    23  H    0.000000   0.000074  -0.001742  -0.021757  -0.000968   0.002175
    24  H    0.000000   0.000000   0.001193  -0.014048   0.000753   0.000031
    25  H    0.000000   0.000133  -0.001755  -0.024113   0.002134  -0.000750
    26  H    0.000000   0.000000   0.000918  -0.010321   0.361792   0.000086
    27  H    0.000000   0.000003  -0.002736  -0.025941   0.370947   0.002042
    28  H    0.000000   0.000002  -0.001804  -0.027756   0.370090  -0.001114
    29  H    0.000014   0.385762   0.009963   0.000625  -0.000007   0.000050
    30  H   -0.000208   0.387376   0.000023  -0.000213   0.000001  -0.000004
    31  H    0.000203   0.390634   0.000131   0.000071   0.000001  -0.000002
    32  H   -0.039962   0.004503   0.000000   0.000000   0.000000   0.000000
    33  H   -0.037001  -0.000989  -0.000010  -0.000003   0.000000   0.000000
    34  H    0.392861   0.000005   0.000000   0.000000   0.000000   0.000000
    35  H    0.383871  -0.000071   0.000000   0.000000   0.000000   0.000000
    36  H    0.385383   0.000009   0.000000   0.000000   0.000000   0.000000
    37  C   -0.000040   0.008382  -0.056271  -0.004358  -0.000015  -0.001436
    38  C    0.000005  -0.000309   0.003974  -0.002034  -0.003020   0.000129
    39  C   -0.000020  -0.000013   0.000636   0.000583  -0.000185   0.000000
    40  H   -0.000003  -0.000142  -0.004772   0.006569   0.000865   0.000830
    41  H    0.000003  -0.000400   0.004145   0.001364   0.000007  -0.000048
    42  H    0.000001  -0.000080   0.004881   0.000990  -0.000772   0.000082
    43  H   -0.000001  -0.000002   0.000015   0.000020   0.000010   0.000000
    44  H    0.000011   0.000003  -0.000006  -0.000014  -0.000006   0.000000
              19         20         21         22         23         24
     1  C   -0.000001   0.000000   0.000007   0.000004  -0.000001   0.000000
     2  C    0.000078   0.000005  -0.000072  -0.000063   0.000073   0.000000
     3  C    0.002541  -0.000116   0.001022   0.000369  -0.000130  -0.000062
     4  C   -0.000325   0.000305  -0.000784   0.000350  -0.000021  -0.000002
     5  C   -0.000005   0.000001  -0.000137  -0.000125   0.000000   0.000000
     6  H    0.000000   0.000000  -0.000002   0.000000   0.000000   0.000000
     7  H    0.000003   0.000000   0.000001   0.000004   0.000001  -0.000001
     8  H   -0.000155  -0.000015  -0.000141   0.001205  -0.000020   0.000005
     9  H    0.000030   0.000250   0.001460  -0.001034  -0.000003  -0.000002
    10  O    0.000000   0.000000  -0.000001   0.000000   0.000000   0.000000
    11  O    0.000000   0.000000  -0.000038   0.000006   0.000000   0.000000
    12  C    0.000000   0.000000   0.000000   0.000000   0.000000   0.000000
    13  C    0.000000   0.000000   0.000000   0.000000   0.000000   0.000000
    14  C    0.000054   0.000001  -0.000003  -0.000017   0.000074   0.000000
    15  O   -0.030912   0.000752  -0.001381  -0.002164  -0.001742   0.001193
    16  Si   0.334374  -0.009674  -0.027244  -0.025617  -0.021757  -0.014048
    17  C   -0.049032  -0.000048  -0.000813   0.002156  -0.000968   0.000753
    18  C   -0.043041   0.363382   0.369541   0.369470   0.002175   0.000031
    19  C    5.720448  -0.000379   0.002330  -0.000367   0.369053   0.361679
    20  H   -0.000379   0.442148  -0.020877  -0.020658  -0.000063   0.000446
    21  H    0.002330  -0.020877   0.447968  -0.020178  -0.000078  -0.000068
    22  H   -0.000367  -0.020658  -0.020178   0.445783  -0.000052  -0.000066
    23  H    0.369053  -0.000063  -0.000078  -0.000052   0.452578  -0.021720
    24  H    0.361679   0.000446  -0.000068  -0.000066  -0.021720   0.460811
    25  H    0.370540  -0.000054  -0.000071   0.001139  -0.019627  -0.021900
    26  H    0.000121   0.000374   0.000036  -0.000042  -0.000060   0.000492
    27  H   -0.000595  -0.000055  -0.000031  -0.000087   0.001115   0.000032
    28  H    0.002236   0.000028   0.000741  -0.000044  -0.000107  -0.000042
    29  H   -0.000070  -0.000001   0.000005   0.000015   0.000105   0.000025
    30  H    0.000000   0.000000  -0.000002  -0.000003  -0.000006  -0.000001
    31  H   -0.000002   0.000000   0.000000  -0.000001   0.000002   0.000000
    32  H    0.000000   0.000000   0.000000   0.000000   0.000000   0.000000
    33  H    0.000000   0.000000   0.000000   0.000000   0.000000   0.000000
    34  H    0.000000   0.000000   0.000000   0.000000   0.000000   0.000000
    35  H    0.000000   0.000000   0.000000   0.000000   0.000000   0.000000
    36  H    0.000000   0.000000   0.000000   0.000000   0.000000   0.000000
    37  C   -0.000112   0.000042  -0.000017   0.000107  -0.000023   0.000011
    38  C   -0.000055  -0.000004   0.000048   0.000008  -0.000003  -0.000002
    39  C   -0.000001   0.000000  -0.000001   0.000000   0.000000   0.000000
    40  H    0.000006   0.000017   0.002164  -0.000156   0.000008   0.000010
    41  H    0.000012  -0.000001  -0.000037   0.000006   0.000000  -0.000001
    42  H   -0.000082   0.000000   0.000019   0.000001  -0.000013   0.000000
    43  H    0.000000   0.000000   0.000000   0.000000   0.000000   0.000000
    44  H    0.000000   0.000000   0.000000   0.000000   0.000000   0.000000
              25         26         27         28         29         30
     1  C    0.000000   0.000000  -0.000002   0.000002   0.007378  -0.006550
     2  C    0.000029   0.000006   0.000007  -0.000058  -0.038657  -0.040639
     3  C    0.000005  -0.000020   0.000336   0.000308  -0.006034  -0.009481
     4  C    0.000018  -0.000009  -0.000023  -0.000036  -0.000382   0.005701
     5  C   -0.000002   0.000000   0.000001   0.000004  -0.000111  -0.000701
     6  H    0.000000   0.000000   0.000000  -0.000001  -0.000146   0.000567
     7  H    0.000005  -0.000001  -0.000035  -0.000012  -0.002348   0.006513
     8  H    0.000054   0.000000  -0.000002   0.000014   0.000690  -0.001005
     9  H    0.000005   0.000001  -0.000002  -0.000057  -0.000172   0.000366
    10  O    0.000000   0.000000   0.000000   0.000000  -0.000146   0.007111
    11  O    0.000000   0.000000   0.000000   0.000000   0.000003  -0.000365
    12  C    0.000000   0.000000   0.000000   0.000000   0.000056  -0.003565
    13  C    0.000000   0.000000   0.000000   0.000000   0.000014  -0.000208
    14  C    0.000133   0.000000   0.000003   0.000002   0.385762   0.387376
    15  O   -0.001755   0.000918  -0.002736  -0.001804   0.009963   0.000023
    16  Si  -0.024113  -0.010321  -0.025941  -0.027756   0.000625  -0.000213
    17  C    0.002134   0.361792   0.370947   0.370090  -0.000007   0.000001
    18  C   -0.000750   0.000086   0.002042  -0.001114   0.000050  -0.000004
    19  C    0.370540   0.000121  -0.000595   0.002236  -0.000070   0.000000
    20  H   -0.000054   0.000374  -0.000055   0.000028  -0.000001   0.000000
    21  H   -0.000071   0.000036  -0.000031   0.000741   0.000005  -0.000002
    22  H    0.001139  -0.000042  -0.000087  -0.000044   0.000015  -0.000003
    23  H   -0.019627  -0.000060   0.001115  -0.000107   0.000105  -0.000006
    24  H   -0.021900   0.000492   0.000032  -0.000042   0.000025  -0.000001
    25  H    0.454718  -0.000065  -0.000060  -0.000092   0.000274  -0.000006
    26  H   -0.000065   0.450878  -0.021947  -0.021770   0.000000   0.000000
    27  H   -0.000060  -0.021947   0.451111  -0.019616  -0.000009   0.000000
    28  H   -0.000092  -0.021770  -0.019616   0.448511   0.000000   0.000000
    29  H    0.000274   0.000000  -0.000009   0.000000   0.426915  -0.024257
    30  H   -0.000006   0.000000   0.000000   0.000000  -0.024257   0.474923
    31  H   -0.000004   0.000000   0.000001   0.000000  -0.023999  -0.027414
    32  H    0.000000   0.000000   0.000000   0.000000   0.000275   0.001782
    33  H    0.000000   0.000000   0.000000   0.000000  -0.000185   0.000357
    34  H    0.000000   0.000000   0.000000   0.000000  -0.000002  -0.000005
    35  H    0.000000   0.000000   0.000000   0.000000   0.000000   0.000013
    36  H    0.000000   0.000000   0.000000   0.000000   0.000002   0.000003
    37  C   -0.000018   0.000013   0.000191   0.000776   0.000433  -0.000112
    38  C    0.000002   0.000146  -0.000304   0.000475   0.000024  -0.000045
    39  C    0.000000   0.000004  -0.000080   0.000243   0.000001  -0.000003
    40  H    0.000001   0.000034  -0.000106   0.001712  -0.000025   0.000013
    41  H    0.000001   0.000000  -0.000019  -0.000023  -0.000050  -0.000032
    42  H    0.000000   0.000252   0.001199  -0.001355   0.000026  -0.000008
    43  H    0.000000  -0.000001  -0.000011   0.000011  -0.000001   0.000000
    44  H    0.000000   0.000001   0.000001  -0.000009   0.000000   0.000000
              31         32         33         34         35         36
     1  C   -0.007062  -0.039964  -0.053827   0.008163  -0.012299  -0.003890
     2  C   -0.033690  -0.011146   0.001815  -0.000221   0.000744  -0.000415
     3  C    0.006876  -0.000596  -0.000234   0.000012  -0.000063  -0.000020
     4  C   -0.000433   0.000159   0.000172  -0.000002   0.000312  -0.000007
     5  C   -0.000060  -0.000156  -0.000031   0.000006   0.000617  -0.000070
     6  H   -0.000325   0.007530   0.000204  -0.000196   0.000322   0.005461
     7  H   -0.006284   0.000324   0.002555  -0.000016  -0.000052   0.000037
     8  H    0.000176  -0.000082  -0.000020   0.000000  -0.000009   0.000000
     9  H    0.000017   0.000007  -0.000003   0.000000  -0.000009   0.000000
    10  O    0.000032   0.002574   0.003922  -0.000209   0.012426  -0.000364
    11  O    0.000001  -0.000086   0.000008   0.000000   0.000192  -0.000001
    12  C    0.003211   0.388099   0.393352  -0.037591  -0.038112  -0.041012
    13  C    0.000203  -0.039962  -0.037001   0.392861   0.383871   0.385383
    14  C    0.390634   0.004503  -0.000989   0.000005  -0.000071   0.000009
    15  O    0.000131   0.000000  -0.000010   0.000000   0.000000   0.000000
    16  Si   0.000071   0.000000  -0.000003   0.000000   0.000000   0.000000
    17  C    0.000001   0.000000   0.000000   0.000000   0.000000   0.000000
    18  C   -0.000002   0.000000   0.000000   0.000000   0.000000   0.000000
    19  C   -0.000002   0.000000   0.000000   0.000000   0.000000   0.000000
    20  H    0.000000   0.000000   0.000000   0.000000   0.000000   0.000000
    21  H    0.000000   0.000000   0.000000   0.000000   0.000000   0.000000
    22  H   -0.000001   0.000000   0.000000   0.000000   0.000000   0.000000
    23  H    0.000002   0.000000   0.000000   0.000000   0.000000   0.000000
    24  H    0.000000   0.000000   0.000000   0.000000   0.000000   0.000000
    25  H   -0.000004   0.000000   0.000000   0.000000   0.000000   0.000000
    26  H    0.000000   0.000000   0.000000   0.000000   0.000000   0.000000
    27  H    0.000001   0.000000   0.000000   0.000000   0.000000   0.000000
    28  H    0.000000   0.000000   0.000000   0.000000   0.000000   0.000000
    29  H   -0.023999   0.000275  -0.000185  -0.000002   0.000000   0.000002
    30  H   -0.027414   0.001782   0.000357  -0.000005   0.000013   0.000003
    31  H    0.457922  -0.002094   0.000452   0.000009  -0.000011  -0.000020
    32  H   -0.002094   0.472765  -0.025235  -0.004540  -0.003801   0.006796
    33  H    0.000452  -0.025235   0.480331  -0.004583   0.006887  -0.004932
    34  H    0.000009  -0.004540  -0.004583   0.469211  -0.025607  -0.027247
    35  H   -0.000011  -0.003801   0.006887  -0.025607   0.463374  -0.027803
    36  H   -0.000020   0.006796  -0.004932  -0.027247  -0.027803   0.485633
    37  C   -0.000123   0.000002   0.000024   0.000000   0.000004  -0.000025
    38  C   -0.000047  -0.000019   0.000112   0.000000  -0.000003   0.000010
    39  C    0.000001  -0.000002   0.000139   0.000000   0.000000   0.000034
    40  H    0.000013   0.000003   0.000003   0.000000   0.000000   0.000001
    41  H   -0.000006  -0.000038  -0.000029   0.000002   0.000000  -0.000014
    42  H    0.000000  -0.000001  -0.000007   0.000000   0.000000   0.000000
    43  H    0.000000   0.000000   0.000005   0.000000   0.000000  -0.000002
    44  H    0.000001   0.000001   0.000007  -0.000001  -0.000002   0.000060
              37         38         39         40         41         42
     1  C    0.004317  -0.003974  -0.000966  -0.000381  -0.000131   0.000320
     2  C   -0.096490  -0.017019  -0.000126   0.007594  -0.001469  -0.001794
     3  C    0.332850  -0.060428  -0.002444  -0.046794  -0.024405  -0.000762
     4  C   -0.103189   0.008878  -0.000084  -0.003442  -0.006171   0.000085
     5  C    0.003324  -0.000329  -0.000025  -0.000189   0.002178  -0.000011
     6  H    0.005724   0.000255   0.004124   0.000879  -0.004329  -0.000043
     7  H   -0.012173   0.011020   0.002522   0.000384  -0.000248   0.000193
     8  H    0.006025  -0.000183  -0.000001  -0.000324   0.000251   0.000027
     9  H   -0.006901   0.000048   0.000007   0.003472  -0.000149  -0.000012
    10  O   -0.003821   0.000417  -0.000025  -0.000132   0.001862   0.000004
    11  O   -0.000032   0.000000   0.000000  -0.000008  -0.000177   0.000000
    12  C   -0.000504  -0.000024   0.000063   0.000000   0.000702   0.000012
    13  C   -0.000040   0.000005  -0.000020  -0.000003   0.000003   0.000001
    14  C    0.008382  -0.000309  -0.000013  -0.000142  -0.000400  -0.000080
    15  O   -0.056271   0.003974   0.000636  -0.004772   0.004145   0.004881
    16  Si  -0.004358  -0.002034   0.000583   0.006569   0.001364   0.000990
    17  C   -0.000015  -0.003020  -0.000185   0.000865   0.000007  -0.000772
    18  C   -0.001436   0.000129   0.000000   0.000830  -0.000048   0.000082
    19  C   -0.000112  -0.000055  -0.000001   0.000006   0.000012  -0.000082
    20  H    0.000042  -0.000004   0.000000   0.000017  -0.000001   0.000000
    21  H   -0.000017   0.000048  -0.000001   0.002164  -0.000037   0.000019
    22  H    0.000107   0.000008   0.000000  -0.000156   0.000006   0.000001
    23  H   -0.000023  -0.000003   0.000000   0.000008   0.000000  -0.000013
    24  H    0.000011  -0.000002   0.000000   0.000010  -0.000001   0.000000
    25  H   -0.000018   0.000002   0.000000   0.000001   0.000001   0.000000
    26  H    0.000013   0.000146   0.000004   0.000034   0.000000   0.000252
    27  H    0.000191  -0.000304  -0.000080  -0.000106  -0.000019   0.001199
    28  H    0.000776   0.000475   0.000243   0.001712  -0.000023  -0.001355
    29  H    0.000433   0.000024   0.000001  -0.000025  -0.000050   0.000026
    30  H   -0.000112  -0.000045  -0.000003   0.000013  -0.000032  -0.000008
    31  H   -0.000123  -0.000047   0.000001   0.000013  -0.000006   0.000000
    32  H    0.000002  -0.000019  -0.000002   0.000003  -0.000038  -0.000001
    33  H    0.000024   0.000112   0.000139   0.000003  -0.000029  -0.000007
    34  H    0.000000   0.000000   0.000000   0.000000   0.000002   0.000000
    35  H    0.000004  -0.000003   0.000000   0.000000   0.000000   0.000000
    36  H   -0.000025   0.000010   0.000034   0.000001  -0.000014   0.000000
    37  C    5.479361   0.310658  -0.055830   0.393429   0.382770  -0.050389
    38  C    0.310658   5.075852   0.618428  -0.038247  -0.046007   0.397337
    39  C   -0.055830   0.618428   5.142914  -0.002572   0.002212  -0.037990
    40  H    0.393429  -0.038247  -0.002572   0.449537  -0.026149  -0.001146
    41  H    0.382770  -0.046007   0.002212  -0.026149   0.454228   0.004727
    42  H   -0.050389   0.397337  -0.037990  -0.001146   0.004727   0.455147
    43  H    0.006313  -0.038563   0.392981  -0.000292   0.000103  -0.007804
    44  H   -0.009092  -0.041528   0.388370   0.000176   0.004501   0.005917
              43         44
     1  C    0.000040   0.000118
     2  C    0.000031  -0.000194
     3  C   -0.000348   0.000276
     4  C    0.000015  -0.000044
     5  C    0.000000  -0.000009
     6  H    0.000052   0.000765
     7  H    0.000135  -0.000035
     8  H   -0.000001   0.000002
     9  H    0.000001   0.000004
    10  O    0.000000  -0.000030
    11  O    0.000000   0.000000
    12  C   -0.000003   0.000035
    13  C   -0.000001   0.000011
    14  C   -0.000002   0.000003
    15  O    0.000015  -0.000006
    16  Si   0.000020  -0.000014
    17  C    0.000010  -0.000006
    18  C    0.000000   0.000000
    19  C    0.000000   0.000000
    20  H    0.000000   0.000000
    21  H    0.000000   0.000000
    22  H    0.000000   0.000000
    23  H    0.000000   0.000000
    24  H    0.000000   0.000000
    25  H    0.000000   0.000000
    26  H   -0.000001   0.000001
    27  H   -0.000011   0.000001
    28  H    0.000011  -0.000009
    29  H   -0.000001   0.000000
    30  H    0.000000   0.000000
    31  H    0.000000   0.000001
    32  H    0.000000   0.000001
    33  H    0.000005   0.000007
    34  H    0.000000  -0.000001
    35  H    0.000000  -0.000002
    36  H   -0.000002   0.000060
    37  C    0.006313  -0.009092
    38  C   -0.038563  -0.041528
    39  C    0.392981   0.388370
    40  H   -0.000292   0.000176
    41  H    0.000103   0.004501
    42  H   -0.007804   0.005917
    43  H    0.451660  -0.033427
    44  H   -0.033427   0.460711
 Mulliken charges:
               1
     1  C   -0.048241
     2  C   -0.304758
     3  C    0.213230
     4  C   -0.632685
     5  C    0.479631
     6  H    0.258083
     7  H    0.255274
     8  H    0.293958
     9  H    0.276619
    10  O   -0.325016
    11  O   -0.382735
    12  C   -0.454366
    13  C   -0.664776
    14  C   -0.680454
    15  O   -0.631780
    16  Si   1.405258
    17  C   -1.065913
    18  C   -1.075341
    19  C   -1.038372
    20  H    0.244192
    21  H    0.246630
    22  H    0.250048
    23  H    0.241209
    24  H    0.232426
    25  H    0.239458
    26  H    0.239082
    27  H    0.244674
    28  H    0.248741
    29  H    0.263958
    30  H    0.229873
    31  H    0.241825
    32  H    0.242902
    33  H    0.236743
    34  H    0.229953
    35  H    0.239081
    36  H    0.222391
    37  C   -0.533787
    38  C   -0.175683
    39  C   -0.452896
    40  H    0.257159
    41  H    0.250856
    42  H    0.231049
    43  H    0.229063
    44  H    0.223437
 Sum of Mulliken charges =   0.00000
 Mulliken charges with hydrogens summed into heavy atoms:
               1
     1  C    0.209842
     2  C   -0.049484
     3  C    0.213230
     4  C   -0.062108
     5  C    0.479631
    10  O   -0.325016
    11  O   -0.382735
    12  C    0.025279
    13  C    0.026649
    14  C    0.055201
    15  O   -0.631780
    16  Si   1.405258
    17  C   -0.333415
    18  C   -0.334471
    19  C   -0.325279
    37  C   -0.025772
    38  C    0.055366
    39  C   -0.000396
 Electronic spatial extent (au):  <R**2>=           5685.3671
 Charge=              0.0000 electrons
 Dipole moment (field-independent basis, Debye):
    X=             -2.7355    Y=              3.6950    Z=              2.1785  Tot=              5.0875
 Quadrupole moment (field-independent basis, Debye-Ang):
   XX=           -117.7959   YY=           -126.4109   ZZ=           -123.1143
   XY=             12.1632   XZ=              8.7802   YZ=             -7.5569
 Traceless Quadrupole moment (field-independent basis, Debye-Ang):
   XX=              4.6445   YY=             -3.9705   ZZ=             -0.6739
   XY=             12.1632   XZ=              8.7802   YZ=             -7.5569
 Octapole moment (field-independent basis, Debye-Ang**2):
  XXX=            -24.3365  YYY=             23.1487  ZZZ=              5.8071  XYY=            -13.9565
  XXY=             18.5990  XXZ=             18.0421  XZZ=              1.6213  YZZ=             13.7966
  YYZ=             28.7867  XYZ=            -23.0349
 Hexadecapole moment (field-independent basis, Debye-Ang**3):
 XXXX=          -4819.5370 YYYY=          -1703.1439 ZZZZ=          -1109.3031 XXXY=             55.1976
 XXXZ=             65.5529 YYYX=             60.3227 YYYZ=            -42.1385 ZZZX=             19.1388
 ZZZY=             -1.8099 XXYY=          -1169.4265 XXZZ=          -1027.4744 YYZZ=           -522.8630
 XXYZ=            -24.0262 YYXZ=             17.4246 ZZXY=             27.1999
 N-N= 1.620724138426D+03 E-N=-5.736620535164D+03  KE= 1.060534166855D+03
 1\1\GINC-CPU-E-611\SP\RmPW1PW91\6-311G(d)\C14H26O3Si1\KE291\06-Feb-201
 9\0\\# mPW1PW91/6-311g(d) geom=checkpoint nmr=giao scrf=(solvent=chlor
 oform)\\P_ng_3ginp003\\0,1\C,0,-0.2612660622,0.2922832389,-0.160409748
 1\C,0,-1.6864749707,0.0961740254,0.3747422269\C,0,-1.8550779281,0.9212
 744925,1.6807423475\C,0,-1.6095229049,2.4009887857,1.3374283765\C,0,-0
 .4172184691,2.6919270719,0.438818329\H,0,0.450424229,-0.0968236474,0.5
 760578015\H,0,-1.7640378548,-0.961693623,0.6519572391\H,0,-2.485808677
 9,2.7895933702,0.8062733672\H,0,-1.4913298112,3.0153742077,2.232633331
 2\O,0,0.0787519966,1.7059580651,-0.3378068295\O,0,0.0580099401,3.80467
 56857,0.3440592539\C,0,0.0302285233,-0.3828351838,-1.4994989479\C,0,1.
 5096679791,-0.3319282064,-1.8935230174\C,0,-2.7735018,0.4008015231,-0.
 6690093068\O,0,-3.1970329114,0.7287869889,2.1205433908\Si,0,-4.1457851
 212,1.237967988,3.4153184834\C,0,-3.8858459825,0.1332756773,4.92349787
 76\C,0,-3.8266081719,3.0339536963,3.9016213931\C,0,-5.9072634679,1.042
 3646019,2.7845072396\H,0,-4.5381831684,3.3268029924,4.6827667344\H,0,-
 2.8207061853,3.1893879442,4.3053614215\H,0,-3.9627710148,3.7175241476,
 3.0576247483\H,0,-6.1001728604,0.0125955141,2.4660289462\H,0,-6.632378
 7267,1.2920259609,3.5671249221\H,0,-6.0973898368,1.6989160238,1.929052
 3215\H,0,-4.5798928727,0.4254617807,5.7204041624\H,0,-4.0790826005,-0.
 9185125243,4.6871891473\H,0,-2.8712063727,0.2064722878,5.3277600966\H,
 0,-3.7586599484,0.3726662875,-0.2017838655\H,0,-2.6402663626,1.3841376
 42,-1.1313803128\H,0,-2.7576553844,-0.3419672734,-1.4705135968\H,0,-0.
 5798641365,0.0864644839,-2.2782035075\H,0,-0.2996888997,-1.4262018138,
 -1.4214806274\H,0,1.6714529605,-0.8263170387,-2.8560345155\H,0,1.85660
 69678,0.7011325383,-1.979975057\H,0,2.1352998711,-0.836707962,-1.14884
 14207\C,0,-0.8657677084,0.4742643538,2.7940055124\C,0,-0.8943274136,-0
 .9956962326,3.1111285723\C,0,0.1834170978,-1.7791862506,3.181491962\H,
 0,-1.1291583318,1.0513873888,3.6909592933\H,0,0.1558334312,0.777791814
 2,2.539625609\H,0,-1.8766174723,-1.4238242836,3.3024221483\H,0,0.10587
 75685,-2.833389607,3.4308307947\H,0,1.1849818649,-1.3937149323,3.00288
 17032\\Version=ES64L-G09RevD.01\State=1-A\HF=-1064.3845946\RMSD=8.507e
 -09\Dipole=-0.9572079,-1.5638987,0.8026363\Quadrupole=0.440331,-4.6308
 06,4.190475,-9.9570131,1.2025706,6.7979482\PG=C01 [X(C14H26O3Si1)]\\@


 TOM, TOM, THE BURGLAR'S SON
 STOLE A MACHINE AND AWAY HE RUN
 THE JOB WAS NEAT, BUT TOM GOT BEAT
 BY THE TIME HE GOT HOME IT WAS OBSOLETE.
 Job cpu time:       0 days  0 hours 20 minutes 32.1 seconds.
 File lengths (MBytes):  RWF=    237 Int=      0 D2E=      0 Chk=     19 Scr=      1
 Normal termination of Gaussian 09 at Wed Feb  6 11:31:46 2019.
