 Entering Gaussian System, Link 0=/usr/local/shared/gaussian/em64t/09-D01/g09/g09
 Initial command:
 /usr/local/shared/gaussian/em64t/09-D01/g09/l1.exe "/scratch/ke291/P_ng_correct1ginp018/Gau-14542.inp" -scrdir="/scratch/ke291/P_ng_correct1ginp018/"
 Entering Link 1 = /usr/local/shared/gaussian/em64t/09-D01/g09/l1.exe PID=     14546.
  
 Copyright (c) 1988,1990,1992,1993,1995,1998,2003,2009,2013,
            Gaussian, Inc.  All Rights Reserved.
  
 This is part of the Gaussian(R) 09 program.  It is based on
 the Gaussian(R) 03 system (copyright 2003, Gaussian, Inc.),
 the Gaussian(R) 98 system (copyright 1998, Gaussian, Inc.),
 the Gaussian(R) 94 system (copyright 1995, Gaussian, Inc.),
 the Gaussian 92(TM) system (copyright 1992, Gaussian, Inc.),
 the Gaussian 90(TM) system (copyright 1990, Gaussian, Inc.),
 the Gaussian 88(TM) system (copyright 1988, Gaussian, Inc.),
 the Gaussian 86(TM) system (copyright 1986, Carnegie Mellon
 University), and the Gaussian 82(TM) system (copyright 1983,
 Carnegie Mellon University). Gaussian is a federally registered
 trademark of Gaussian, Inc.
  
 This software contains proprietary and confidential information,
 including trade secrets, belonging to Gaussian, Inc.
  
 This software is provided under written license and may be
 used, copied, transmitted, or stored only in accord with that
 written license.
  
 The following legend is applicable only to US Government
 contracts under FAR:
  
                    RESTRICTED RIGHTS LEGEND
  
 Use, reproduction and disclosure by the US Government is
 subject to restrictions as set forth in subparagraphs (a)
 and (c) of the Commercial Computer Software - Restricted
 Rights clause in FAR 52.227-19.
  
 Gaussian, Inc.
 340 Quinnipiac St., Bldg. 40, Wallingford CT 06492
  
  
 ---------------------------------------------------------------
 Warning -- This program may not be used in any manner that
 competes with the business of Gaussian, Inc. or will provide
 assistance to any competitor of Gaussian, Inc.  The licensee
 of this program is prohibited from giving any competitor of
 Gaussian, Inc. access to this program.  By using this program,
 the user acknowledges that Gaussian, Inc. is engaged in the
 business of creating and licensing software in the field of
 computational chemistry and represents and warrants to the
 licensee that it is not a competitor of Gaussian, Inc. and that
 it will not use this program in any manner prohibited above.
 ---------------------------------------------------------------
  

 Cite this work as:
 Gaussian 09, Revision D.01,
 M. J. Frisch, G. W. Trucks, H. B. Schlegel, G. E. Scuseria, 
 M. A. Robb, J. R. Cheeseman, G. Scalmani, V. Barone, B. Mennucci, 
 G. A. Petersson, H. Nakatsuji, M. Caricato, X. Li, H. P. Hratchian, 
 A. F. Izmaylov, J. Bloino, G. Zheng, J. L. Sonnenberg, M. Hada, 
 M. Ehara, K. Toyota, R. Fukuda, J. Hasegawa, M. Ishida, T. Nakajima, 
 Y. Honda, O. Kitao, H. Nakai, T. Vreven, J. A. Montgomery, Jr., 
 J. E. Peralta, F. Ogliaro, M. Bearpark, J. J. Heyd, E. Brothers, 
 K. N. Kudin, V. N. Staroverov, T. Keith, R. Kobayashi, J. Normand, 
 K. Raghavachari, A. Rendell, J. C. Burant, S. S. Iyengar, J. Tomasi, 
 M. Cossi, N. Rega, J. M. Millam, M. Klene, J. E. Knox, J. B. Cross, 
 V. Bakken, C. Adamo, J. Jaramillo, R. Gomperts, R. E. Stratmann, 
 O. Yazyev, A. J. Austin, R. Cammi, C. Pomelli, J. W. Ochterski, 
 R. L. Martin, K. Morokuma, V. G. Zakrzewski, G. A. Voth, 
 P. Salvador, J. J. Dannenberg, S. Dapprich, A. D. Daniels, 
 O. Farkas, J. B. Foresman, J. V. Ortiz, J. Cioslowski, 
 and D. J. Fox, Gaussian, Inc., Wallingford CT, 2013.
 
 ******************************************
 Gaussian 09:  EM64L-G09RevD.01 24-Apr-2013
                 6-Feb-2019 
 ******************************************
 %nprocshared=2
 Will use up to    2 processors via shared memory.
 %mem=6000MB
 %chk=P_ng_correct1ginp018.chk
 ----------------------------------------------------------------------
 # mPW1PW91/6-311g(d) geom=checkpoint nmr=giao scrf=(solvent=chloroform
 )
 ----------------------------------------------------------------------
 1/29=2,38=1/1;
 2/12=2,40=1/2;
 3/5=4,6=6,7=1,11=2,14=-4,16=1,25=1,30=1,70=2201,72=7,74=-7/1,2,8,3;
 4//1;
 5/5=2,38=5,53=7/2;
 8/6=1,10=90,11=11/1;
 10/13=100,45=16/2;
 6/7=2,8=2,9=2,10=2,28=1/1;
 99/9=1/99;
 --------------------
 P_ng_correct1ginp018
 --------------------
 Structure from the checkpoint file:  "P_ng_correct1ginp018.chk"
 Charge =  0 Multiplicity = 1
 Redundant internal coordinates found in file.
 C,0,0.8189482785,-0.4356006901,0.3917977651
 C,0,-0.7070646513,-0.4485356672,0.5837308381
 C,0,-1.1577679791,0.6257585604,1.6143104765
 C,0,-0.6774006013,1.9844126763,1.0855574738
 C,0,0.7940103937,2.0393455326,0.7246657739
 H,0,1.2917143181,-0.9123927532,1.2602491375
 H,0,-1.1670212769,-0.1536366844,-0.3691833033
 H,0,-1.2194296347,2.2303490266,0.1643570141
 H,0,-0.8666957192,2.7869514071,1.8003751081
 O,0,1.4059274789,0.9028701165,0.3343793988
 O,0,1.4281164958,3.0737026484,0.7183676032
 C,0,1.2875568144,-1.1472963359,-0.87982706
 C,0,2.8110038455,-1.2159001973,-1.0226636323
 C,0,-1.1980259459,-1.8634043453,0.9280659946
 O,0,-2.5758714157,0.5879689393,1.7470868208
 Si,0,-3.8984311737,1.2645663856,0.9561019625
 C,0,-5.3636583756,0.3324949309,1.67878654
 C,0,-4.0513546546,3.1047286708,1.3426219813
 C,0,-3.8336280543,1.0031330336,-0.9136646717
 H,0,-4.9951740572,3.4953383789,0.9443323677
 H,0,-4.0500423098,3.2799104336,2.4236844645
 H,0,-3.2407760576,3.6967984132,0.9064998523
 H,0,-2.9996782899,1.5268547441,-1.3925735356
 H,0,-3.7552189939,-0.0592317333,-1.1677805669
 H,0,-4.7564549024,1.3833245111,-1.3676521247
 H,0,-5.411566708,0.4510085849,2.7662314077
 H,0,-6.3064683793,0.7019615712,1.2602139897
 H,0,-5.2970483597,-0.7385040452,1.4608775842
 H,0,-1.1182992194,-2.5312392812,0.0669286174
 H,0,-0.6223286313,-2.3081045511,1.7463804404
 H,0,-2.2463861226,-1.8288532684,1.2308443481
 H,0,0.8482273643,-0.6323341158,-1.7434205285
 H,0,0.876204754,-2.1620864197,-0.8738353041
 H,0,3.0877385624,-1.7425664348,-1.9408883044
 H,0,3.2498869851,-0.2158871036,-1.0575451859
 H,0,3.262134638,-1.7531836101,-0.1808726734
 C,0,-0.5876002546,0.3553963173,3.0334237576
 C,0,-1.02784939,1.3533665442,4.0696439424
 C,0,-0.204132933,2.1155115687,4.7910378922
 H,0,0.5071387394,0.3294735128,2.9954776459
 H,0,-0.92578575,-0.6433049559,3.3345494169
 H,0,-2.1023036425,1.4286718519,4.2251128897
 H,0,-0.5780267792,2.8108193233,5.5370631718
 H,0,0.8754435947,2.0701775095,4.6656552139
 Recover connectivity data from disk.
                          Input orientation:                          
 ---------------------------------------------------------------------
 Center     Atomic      Atomic             Coordinates (Angstroms)
 Number     Number       Type             X           Y           Z
 ---------------------------------------------------------------------
      1          6           0        0.818948   -0.435601    0.391798
      2          6           0       -0.707065   -0.448536    0.583731
      3          6           0       -1.157768    0.625759    1.614310
      4          6           0       -0.677401    1.984413    1.085557
      5          6           0        0.794010    2.039346    0.724666
      6          1           0        1.291714   -0.912393    1.260249
      7          1           0       -1.167021   -0.153637   -0.369183
      8          1           0       -1.219430    2.230349    0.164357
      9          1           0       -0.866696    2.786951    1.800375
     10          8           0        1.405927    0.902870    0.334379
     11          8           0        1.428116    3.073703    0.718368
     12          6           0        1.287557   -1.147296   -0.879827
     13          6           0        2.811004   -1.215900   -1.022664
     14          6           0       -1.198026   -1.863404    0.928066
     15          8           0       -2.575871    0.587969    1.747087
     16         14           0       -3.898431    1.264566    0.956102
     17          6           0       -5.363658    0.332495    1.678787
     18          6           0       -4.051355    3.104729    1.342622
     19          6           0       -3.833628    1.003133   -0.913665
     20          1           0       -4.995174    3.495338    0.944332
     21          1           0       -4.050042    3.279910    2.423684
     22          1           0       -3.240776    3.696798    0.906500
     23          1           0       -2.999678    1.526855   -1.392574
     24          1           0       -3.755219   -0.059232   -1.167781
     25          1           0       -4.756455    1.383325   -1.367652
     26          1           0       -5.411567    0.451009    2.766231
     27          1           0       -6.306468    0.701962    1.260214
     28          1           0       -5.297048   -0.738504    1.460878
     29          1           0       -1.118299   -2.531239    0.066929
     30          1           0       -0.622329   -2.308105    1.746380
     31          1           0       -2.246386   -1.828853    1.230844
     32          1           0        0.848227   -0.632334   -1.743421
     33          1           0        0.876205   -2.162086   -0.873835
     34          1           0        3.087739   -1.742566   -1.940888
     35          1           0        3.249887   -0.215887   -1.057545
     36          1           0        3.262135   -1.753184   -0.180873
     37          6           0       -0.587600    0.355396    3.033424
     38          6           0       -1.027849    1.353367    4.069644
     39          6           0       -0.204133    2.115512    4.791038
     40          1           0        0.507139    0.329474    2.995478
     41          1           0       -0.925786   -0.643305    3.334549
     42          1           0       -2.102304    1.428672    4.225113
     43          1           0       -0.578027    2.810819    5.537063
     44          1           0        0.875444    2.070178    4.665655
 ---------------------------------------------------------------------
                    Distance matrix (angstroms):
                    1          2          3          4          5
     1  C    0.000000
     2  C    1.538090   0.000000
     3  C    2.555079   1.555421   0.000000
     4  C    2.928622   2.484340   1.535016   0.000000
     5  C    2.497355   2.909062   2.568878   1.516018   0.000000
     6  H    1.097746   2.160546   2.913972   3.507052   3.040940
     7  H    2.145384   1.098440   2.131148   2.631968   3.138682
     8  H    3.363629   2.759496   2.163534   1.096764   2.098659
     9  H    3.900042   3.460359   2.188629   1.091268   2.115186
    10  O    1.462650   2.520557   2.878810   2.464601   1.348459
    11  O    3.576722   4.121079   3.671776   2.398871   1.213270
    12  C    1.530730   2.570755   3.917149   4.187051   3.601760
    13  C    2.564733   3.942862   5.108472   5.182235   4.209281
    14  C    2.528713   1.536705   2.582341   3.886071   4.386461
    15  O    3.795959   2.433142   1.424807   2.447829   3.808929
    16  Si   5.046056   3.641181   2.890078   3.303025   4.761602
    17  C    6.361677   4.846960   4.216595   5.004175   6.460694
    18  C    6.095724   4.938206   3.819941   3.564373   4.999447
    19  C    5.041890   3.758315   3.700446   3.862845   5.017260
    20  H    7.040000   5.837128   4.838289   4.576681   5.973510
    21  H    6.452957   5.335001   4.008099   3.852741   5.281147
    22  H    5.815755   4.869052   3.777725   3.087915   4.365743
    23  H    4.649422   3.614419   3.639500   3.426874   4.374634
    24  H    4.847365   3.537032   3.867298   4.327468   5.355452
    25  H    6.122848   4.853985   4.734612   4.797732   5.967899
    26  H    6.726316   5.263538   4.410472   5.252459   6.723094
    27  H    7.267720   5.756266   5.161425   5.775949   7.245151
    28  H    6.216116   4.682031   4.361009   5.375527   6.734943
    29  H    2.872311   2.184915   3.516047   4.650065   4.997979
    30  H    2.723682   2.194751   2.985245   4.343435   4.685108
    31  H    3.470076   2.166459   2.712426   4.125993   4.946028
    32  H    2.144462   2.805058   4.108670   4.144638   3.637618
    33  H    2.141462   2.750908   4.254409   4.842145   4.495997
    34  H    3.506707   4.738011   6.022684   6.101313   5.164226
    35  H    2.838720   4.290149   5.222509   4.985759   3.780698
    36  H    2.834279   4.247501   5.330815   5.576146   4.614641
    37  C    3.095520   2.581002   1.553084   2.540854   3.174098
    38  C    4.487496   3.937175   2.564167   3.070147   3.870222
    39  C    5.187310   4.952647   3.635984   3.737881   4.187777
    40  H    2.731614   2.810002   2.183420   2.791013   2.857017
    41  H    3.427393   2.766365   2.150246   3.467645   4.118957
    42  H    5.167546   4.327847   2.890174   3.492278   4.584178
    43  H    6.242158   5.930898   4.527536   4.528656   5.063282
    44  H    4.954591   5.050778   3.940939   3.903304   3.941951
                    6          7          8          9         10
     6  H    0.000000
     7  H    3.045676   0.000000
     8  H    4.169370   2.443522   0.000000
     9  H    4.316899   3.666638   1.763741   0.000000
    10  O    2.040946   2.869019   2.946796   3.296016   0.000000
    11  O    4.025071   4.281732   2.833315   2.553259   2.204644
    12  C    2.152934   2.696863   4.334027   5.225188   2.385685
    13  C    2.758994   4.168948   5.434155   6.125181   2.881838
    14  C    2.685810   2.146421   4.164436   4.743049   3.845167
    15  O    4.176879   2.648289   2.653748   2.785614   4.236700
    16  Si   5.636423   3.350863   2.955782   3.495980   5.352904
    17  C    6.783724   4.694919   4.803122   5.124628   6.925320
    18  C    6.685240   4.676174   3.189459   3.233044   5.970483
    19  C    5.887637   2.957257   3.082568   4.398944   5.387078
    20  H    7.684586   5.449321   4.057685   4.275389   6.933039
    21  H    6.889365   5.282155   3.770744   3.281039   6.307386
    22  H    6.474044   4.555620   2.605205   2.695012   5.452083
    23  H    5.603878   2.688868   2.467432   4.041334   4.772954
    24  H    5.665223   2.710247   3.667015   5.025363   5.460729
    25  H    6.982588   4.030288   3.946524   5.209299   6.411139
    26  H    7.004343   5.311552   5.244980   5.200515   7.252331
    27  H    7.767787   5.459020   5.423544   5.850648   7.770366
    28  H    6.594110   4.555032   5.207881   5.672047   6.992352
    29  H    3.138924   2.417760   4.763659   5.599223   4.270405
    30  H    2.418242   3.068229   4.843231   5.101198   4.051904
    31  H    3.654986   2.555674   4.320782   4.851140   4.648156
    32  H    3.049122   2.485741   4.013698   5.214495   2.642940
    33  H    2.507728   2.909178   4.976245   5.889149   3.336817
    34  H    3.763266   4.806031   6.226380   7.081747   3.873457
    35  H    3.113154   4.470659   5.239457   5.842174   2.566955
    36  H    2.581921   4.712901   6.006008   6.448675   3.281099
    37  C    2.878065   3.488922   3.485140   2.740577   3.399812
    38  C    4.290308   4.689735   4.007127   2.688999   4.480895
    39  C    4.885922   5.718747   4.738163   3.135903   4.891278
    40  H    2.273501   3.789083   3.822252   3.058576   2.866714
    41  H    3.048350   3.743742   4.288850   3.758170   4.102263
    42  H    5.078421   4.948334   4.232244   3.041546   5.265165
    43  H    5.970710   6.634656   5.441904   3.747898   5.885938
    44  H    4.545965   5.870827   4.967478   3.429088   4.517075
                   11         12         13         14         15
    11  O    0.000000
    12  C    4.515619   0.000000
    13  C    4.831590   1.531666   0.000000
    14  C    5.596036   3.155853   4.505211   0.000000
    15  O    4.823801   4.983764   6.320118   2.928905   0.000000
    16  Si   5.630418   6.006845   7.421910   4.132454   1.683035
    17  C    7.386801   7.278389   8.747598   4.768443   2.800301
    18  C    5.515003   7.177950   8.447152   5.744187   2.945288
    19  C    5.885299   5.554460   7.006220   4.307599   2.972190
    20  H    6.441079   8.022115   9.327446   6.567703   3.866554
    21  H    5.741154   7.681361   8.897392   6.068324   3.142851
    22  H    4.714043   6.867461   8.029964   5.923609   3.288389
    23  H    5.143362   5.078817   6.436114   4.486109   3.304328
    24  H    6.343485   5.166855   6.668900   3.766543   3.210324
    25  H    6.742238   6.570547   8.008834   5.336102   3.884473
    26  H    7.606151   7.792726   9.205704   5.146774   3.016386
    27  H    8.108178   8.103626   9.592603   5.726047   3.763960
    28  H    7.766085   7.000217   8.493315   4.283839   3.040765
    29  H    6.190636   2.932539   4.284478   1.092665   3.831045
    30  H    5.850212   3.448493   4.544039   1.094908   3.493361
    31  H    6.148143   4.172314   5.570566   1.091754   2.493210
    32  H    4.486801   1.097265   2.170837   3.583229   5.039567
    33  H    5.500291   1.095009   2.158904   2.763782   5.133115
    34  H    5.746515   2.172752   1.094119   5.158806   7.149058
    35  H    4.158619   2.179414   1.092640   5.142071   6.515490
    36  H    5.241287   2.180503   1.095812   4.597274   6.578779
    37  C    4.100218   4.592149   5.520084   3.119011   2.379490
    38  C    4.496930   6.009300   6.875283   4.499565   2.894214
    39  C    4.490992   6.710422   7.347685   5.634017   4.150201
    40  H    3.682964   4.219939   4.882769   3.462729   3.336203
    41  H    5.118731   4.786843   5.768602   2.711811   2.599780
    42  H    5.240921   6.647344   7.659864   4.746157   2.659259
    43  H    5.226236   7.766824   8.410114   6.593605   4.826631
    44  H    4.110181   6.424512   6.848480   5.808779   4.756738
                   16         17         18         19         20
    16  Si   0.000000
    17  C    1.880936   0.000000
    18  C    1.886526   3.085519   0.000000
    19  C    1.889067   3.084080   3.091106   0.000000
    20  H    2.485825   3.267841   1.096360   3.318498   0.000000
    21  H    2.497678   3.311755   1.095165   4.045794   1.768662
    22  H    2.520064   4.052357   1.094434   3.304589   1.766332
    23  H    2.528404   4.055632   3.328213   1.095039   3.649392
    24  H    2.506757   3.292943   4.049748   1.095145   4.316651
    25  H    2.479948   3.279288   3.287246   1.096476   3.140519
    26  H    2.495601   1.094932   3.304402   4.041827   3.572204
    27  H    2.491516   1.095719   3.296304   3.306266   3.101972
    28  H    2.494638   1.094970   4.041803   3.288366   4.275906
    29  H    4.788309   5.368625   6.480304   4.563591   7.219393
    30  H    4.911351   5.427480   6.420281   5.324714   7.310609
    31  H    3.517667   3.819616   5.254582   3.890810   5.998745
    32  H    5.780694   7.157508   6.891676   5.028222   7.642450
    33  H    6.155304   7.188512   7.545387   5.674745   8.353758
    34  H    8.138917   9.425181   9.232787   7.516606  10.054532
    35  H    7.572646   9.054358   8.372301   7.189082   9.260763
    36  H    7.853230   9.067122   8.911087   7.647491   9.848666
    37  C    4.012911   4.964504   4.734473   5.151288   5.800883
    38  C    4.235832   5.055454   4.432325   5.729609   5.485917
    39  C    5.392465   6.283785   5.260346   6.852317   6.297233
    40  H    4.943935   6.016639   5.586934   5.880261   6.671233
    41  H    4.258357   4.836161   5.271121   5.404963   6.277056
    42  H    3.733556   4.280399   3.862217   5.439265   4.837699
    43  H    5.865253   6.628021   5.453781   7.448393   6.408817
    44  H    6.099154   7.132133   6.032096   7.378533   7.095314
                   21         22         23         24         25
    21  H    0.000000
    22  H    1.769338   0.000000
    23  H    4.329006   3.170571   0.000000
    24  H    4.912781   4.321464   1.771170   0.000000
    25  H    4.297708   3.580672   1.762806   1.767312   0.000000
    26  H    3.158128   4.325053   4.926491   4.298870   4.288051
    27  H    3.618141   4.300306   4.318865   3.603255   3.126096
    28  H    4.316211   4.920112   4.307197   3.122258   3.577007
    29  H    6.922346   6.633117   4.705089   3.819512   5.533354
    30  H    6.590438   6.604584   5.496520   4.833711   6.357267
    31  H    5.547568   5.623774   4.325569   3.340889   4.834327
    32  H    7.527514   6.517930   4.426236   4.674562   5.967960
    33  H    8.047166   7.378730   5.375858   5.094947   6.673878
    34  H    9.758211   8.817279   6.931552   7.089244   8.463520
    35  H    8.810705   7.829131   6.496650   7.007724   8.170383
    36  H    9.251145   8.554094   7.171971   7.286063   8.691600
    37  C    4.573081   4.767401   5.174929   5.277863   6.148614
    38  C    3.943907   4.515994   5.809822   6.071622   6.592995
    39  C    4.663819   5.177963   6.811655   7.269611   7.693451
    40  H    5.458931   5.454317   5.743386   5.970888   6.917581
    41  H    5.097281   5.485536   5.599671   5.349562   6.394682
    42  H    3.235107   4.177764   5.689756   5.833463   6.190767
    43  H    4.687010   5.414546   7.452035   7.955292   8.195858
    44  H    5.545295   5.806928   7.212067   7.746379   8.281959
                   26         27         28         29         30
    26  H    0.000000
    27  H    1.769722   0.000000
    28  H    1.769747   1.770349   0.000000
    29  H    5.883212   6.228532   4.755937   0.000000
    30  H    5.620463   6.450295   4.939450   1.765314   0.000000
    31  H    4.192082   4.784366   3.247817   1.766529   1.770034
    32  H    7.790739   7.873489   6.931321   3.278785   4.141190
    33  H    7.721038   8.021704   6.751779   2.235924   3.021995
    34  H    9.960268  10.221247   9.104109   4.726953   5.261215
    35  H    9.491407   9.876152   8.925564   5.070143   5.218566
    36  H    9.422154   9.983117   8.774083   4.455892   4.371647
    37  C    4.832306   5.997486   5.084134   4.173056   2.958365
    38  C    4.661557   6.015068   5.422882   5.578537   4.355269
    39  C    5.829904   7.190503   6.721098   6.689185   5.386391
    40  H    5.924390   7.040961   6.097882   4.404784   3.129338
    41  H    4.652176   5.921516   4.756853   3.778717   2.320759
    42  H    3.746383   5.195549   4.748057   5.825775   4.722069
    43  H    6.050564   7.453440   7.175106   7.664976   6.369821
    44  H    6.764319   8.065290   7.500597   6.804141   5.471274
                   31         32         33         34         35
    31  H    0.000000
    32  H    4.455844   0.000000
    33  H    3.780383   1.759859   0.000000
    34  H    6.206466   2.507393   2.491080   0.000000
    35  H    6.168258   2.532158   3.075030   1.771253   0.000000
    36  H    5.687044   3.086229   2.517948   1.768667   1.769742
    37  C    3.282043   5.084826   4.873101   6.530953   5.638147
    38  C    4.435103   6.422958   6.357816   7.915135   6.859275
    39  C    5.692433   7.166398   7.180234   8.428524   7.181337
    40  H    3.918444   4.847532   4.616889   5.943110   4.924132
    41  H    2.752287   5.378942   4.823315   6.719151   6.075313
    42  H    4.426949   6.969704   6.911174   8.660997   7.697857
    43  H    6.546259   8.178933   8.242827   9.491623   8.203824
    44  H    6.061863   6.955614   6.971228   7.942146   6.604475
                   36         37         38         39         40
    36  H    0.000000
    37  C    5.440429   0.000000
    38  C    6.791282   1.504499   0.000000
    39  C    7.190390   2.516796   1.334085   0.000000
    40  H    4.692192   1.095703   2.135036   2.630566   0.000000
    41  H    5.579310   1.096563   2.130136   3.202063   1.764806
    42  H    7.636368   2.205985   1.088252   2.096443   3.086977
    43  H    8.262672   3.506765   2.116560   1.086187   3.714070
    44  H    6.618400   2.783011   2.119333   1.087778   2.440326
                   41         42         43         44
    41  H    0.000000
    42  H    2.543695   0.000000
    43  H    4.111323   2.440280   0.000000
    44  H    3.518417   3.077757   1.849454   0.000000
 Stoichiometry    C14H26O3Si
 Framework group  C1[X(C14H26O3Si)]
 Deg. of freedom   126
 Full point group                 C1      NOp   1
 Largest Abelian subgroup         C1      NOp   1
 Largest concise Abelian subgroup C1      NOp   1
                         Standard orientation:                         
 ---------------------------------------------------------------------
 Center     Atomic      Atomic             Coordinates (Angstroms)
 Number     Number       Type             X           Y           Z
 ---------------------------------------------------------------------
      1          6           0       -2.313951   -0.552500   -0.369122
      2          6           0       -0.840754   -0.935057   -0.590617
      3          6           0        0.098001    0.290150   -0.398412
      4          6           0       -0.130677    0.811571    1.027106
      5          6           0       -1.581675    1.071067    1.381474
      6          1           0       -2.674737    0.000072   -1.246358
      7          1           0       -0.558186   -1.648609    0.195239
      8          1           0        0.223852    0.066715    1.749870
      9          1           0        0.419408    1.735462    1.213379
     10          8           0       -2.536973    0.350707    0.759517
     11          8           0       -1.914374    1.859442    2.241591
     12          6           0       -3.233771   -1.751797   -0.126734
     13          6           0       -4.713797   -1.378433    0.000239
     14          6           0       -0.659816   -1.630995   -1.948702
     15          8           0        1.449741   -0.114221   -0.596795
     16         14           0        2.676742   -0.786648    0.338576
     17          6           0        3.983486   -1.259402   -0.929037
     18          6           0        3.379930    0.479863    1.547070
     19          6           0        2.109806   -2.325235    1.276609
     20          1           0        4.271120    0.074319    2.040346
     21          1           0        3.677468    1.396072    1.026091
     22          1           0        2.667964    0.756534    2.330870
     23          1           0        1.348444   -2.111085    2.033958
     24          1           0        1.705825   -3.083224    0.597202
     25          1           0        2.965557   -2.771575    1.796927
     26          1           0        4.314253   -0.386756   -1.501714
     27          1           0        4.863573   -1.691741   -0.440029
     28          1           0        3.596883   -1.998832   -1.638080
     29          1           0       -1.107199   -2.627869   -1.946068
     30          1           0       -1.120758   -1.063353   -2.763649
     31          1           0        0.403508   -1.740245   -2.170815
     32          1           0       -2.893481   -2.268000    0.779758
     33          1           0       -3.105098   -2.453502   -0.957456
     34          1           0       -5.323420   -2.272575    0.161380
     35          1           0       -4.878851   -0.697438    0.838610
     36          1           0       -5.075970   -0.887150   -0.909858
     37          6           0       -0.172099    1.407768   -1.442464
     38          6           0        0.738727    2.598247   -1.313349
     39          6           0        0.329877    3.850168   -1.100468
     40          1           0       -1.214472    1.738057   -1.372220
     41          1           0       -0.038577    0.963332   -2.435992
     42          1           0        1.802283    2.391350   -1.415018
     43          1           0        1.033125    4.674902   -1.029338
     44          1           0       -0.723773    4.098294   -0.993158
 ---------------------------------------------------------------------
 Rotational constants (GHZ):      0.4796346      0.2695749      0.2302978
 Standard basis: 6-311G(d) (5D, 7F)
 There are   428 symmetry adapted cartesian basis functions of A   symmetry.
 There are   410 symmetry adapted basis functions of A   symmetry.
   410 basis functions,   720 primitive gaussians,   428 cartesian basis functions
    74 alpha electrons       74 beta electrons
       nuclear repulsion energy      1622.7845542417 Hartrees.
 NAtoms=   44 NActive=   44 NUniq=   44 SFac= 1.00D+00 NAtFMM=   60 NAOKFM=F Big=F
 Integral buffers will be    131072 words long.
 Raffenetti 2 integral format.
 Two-electron integral symmetry is turned on.
 ------------------------------------------------------------------------------
 Polarizable Continuum Model (PCM)
 =================================
 Model                : PCM (using non-symmetric T matrix).
 Atomic radii         : UFF (Universal Force Field).
 Polarization charges : Total charges.
 Charge compensation  : None.
 Solution method      : On-the-fly selection.
 Cavity type          : Scaled VdW (van der Waals Surface) (Alpha=1.100).
 Cavity algorithm     : GePol (No added spheres)
                        Default sphere list used, NSphG=   44.
                        Lebedev-Laikov grids with approx.  5.0 points / Ang**2.
                        Smoothing algorithm: Karplus/York (Gamma=1.0000).
                        Polarization charges: spherical gaussians, with
                                              point-specific exponents (IZeta= 3).
                        Self-potential: point-specific (ISelfS= 7).
                        Self-field    : sphere-specific E.n sum rule (ISelfD= 2).
 Solvent              : Chloroform, Eps=   4.711300 Eps(inf)=   2.090627
 ------------------------------------------------------------------------------
 One-electron integrals computed using PRISM.
 NBasis=   410 RedAO= T EigKep=  1.08D-03  NBF=   410
 NBsUse=   410 1.00D-06 EigRej= -1.00D+00 NBFU=   410
 ExpMin= 6.54D-02 ExpMax= 6.94D+04 ExpMxC= 2.33D+03 IAcc=2 IRadAn=         4 AccDes= 0.00D+00
 Harris functional with IExCor=  908 and IRadAn=       4 diagonalized for initial guess.
 HarFok:  IExCor=  908 AccDes= 0.00D+00 IRadAn=         4 IDoV= 1 UseB2=F ITyADJ=14
 ICtDFT=  3500011 ScaDFX=  1.000000  1.000000  1.000000  1.000000
 FoFCou: FMM=F IPFlag=           0 FMFlag=      100000 FMFlg1=           0
         NFxFlg=           0 DoJE=T BraDBF=F KetDBF=T FulRan=T
         wScrn=  0.000000 ICntrl=     500 IOpCl=  0 I1Cent=   200000004 NGrid=           0
         NMat0=    1 NMatS0=      1 NMatT0=    0 NMatD0=    1 NMtDS0=    0 NMtDT0=    0
 Petite list used in FoFCou.
 Requested convergence on RMS density matrix=1.00D-08 within 128 cycles.
 Requested convergence on MAX density matrix=1.00D-06.
 Requested convergence on             energy=1.00D-06.
 No special actions if energy rises.
 Inv3:  Mode=1 IEnd=    26249292.
 Iteration    1 A*A^-1 deviation from unit magnitude is 7.55D-15 for   1924.
 Iteration    1 A*A^-1 deviation from orthogonality  is 1.02D-14 for   2486   2399.
 Iteration    1 A^-1*A deviation from unit magnitude is 7.88D-15 for   2535.
 Iteration    1 A^-1*A deviation from orthogonality  is 3.79D-10 for   2896   2269.
 Iteration    2 A*A^-1 deviation from unit magnitude is 9.33D-15 for    765.
 Iteration    2 A*A^-1 deviation from orthogonality  is 1.02D-14 for   2806    144.
 Iteration    2 A^-1*A deviation from unit magnitude is 1.44D-15 for    616.
 Iteration    2 A^-1*A deviation from orthogonality  is 7.77D-16 for   1988    645.
 Error on total polarization charges =  0.01147
 SCF Done:  E(RmPW1PW91) =  -1064.38514186     A.U. after   12 cycles
            NFock= 12  Conv=0.97D-08     -V/T= 2.0036
 DoSCS=F DFT=T ScalE2(SS,OS)=  1.000000  1.000000
 Range of M.O.s used for correlation:     1   410
 NBasis=   410 NAE=    74 NBE=    74 NFC=     0 NFV=     0
 NROrb=    410 NOA=    74 NOB=    74 NVA=   336 NVB=   336
 NEqPCM:  Using equilibrium solvation (IEInf=0, Eps=   4.7113, EpsInf=   2.0906)
          Differentiating once with respect to magnetic field using GIAOs.
          Electric field/nuclear overlap derivatives assumed to be zero.
 FoFJK:  IHMeth= 1 ICntrl=    6127 DoSepK=F KAlg= 0 I1Cent=   0 FoldK=F
 IRaf=         1 NMat=   1 IRICut=       1 DoRegI=T DoRafI=F ISym2E= 0.
          There are     3 degrees of freedom in the 1st order CPHF.  IDoFFX=0 NUNeed=     3.
      3 vectors produced by pass  0 Test12= 8.29D-13 3.33D-08 XBig12= 3.65D+01 1.07D+00.
 AX will form     3 AO Fock derivatives at one time.
      3 vectors produced by pass  1 Test12= 8.29D-13 3.33D-08 XBig12= 7.13D-02 9.16D-02.
      3 vectors produced by pass  2 Test12= 8.29D-13 3.33D-08 XBig12= 5.88D-04 8.35D-03.
      3 vectors produced by pass  3 Test12= 8.29D-13 3.33D-08 XBig12= 2.19D-06 2.37D-04.
      3 vectors produced by pass  4 Test12= 8.29D-13 3.33D-08 XBig12= 6.44D-09 2.28D-05.
      3 vectors produced by pass  5 Test12= 8.29D-13 3.33D-08 XBig12= 2.85D-11 1.32D-06.
      2 vectors produced by pass  6 Test12= 8.29D-13 3.33D-08 XBig12= 9.96D-14 6.65D-08.
 InvSVY:  IOpt=1 It=  1 EMax= 8.88D-16
 Solved reduced A of dimension    20 with     3 vectors.
 Calculating GIAO nuclear magnetic shielding tensors.
 SCF GIAO Magnetic shielding tensor (ppm):
      1  C    Isotropic =   100.1393   Anisotropy =    50.2270
   XX=    93.1735   YX=    -3.7557   ZX=   -15.4297
   XY=     5.0953   YY=    92.9105   ZY=    25.1687
   XZ=    -1.7902   YZ=    28.4290   ZZ=   114.3340
   Eigenvalues:    73.2494    93.5446   133.6240
      2  C    Isotropic =   140.4630   Anisotropy =    22.6075
   XX=   149.9592   YX=    10.2524   ZX=     1.8504
   XY=     7.9509   YY=   140.4166   ZY=    -9.8211
   XZ=     2.3196   YZ=    -1.9525   ZZ=   131.0130
   Eigenvalues:   126.5070   139.3472   155.5346
      3  C    Isotropic =   107.8188   Anisotropy =    55.4130
   XX=   140.5024   YX=   -15.0102   ZX=    -2.6403
   XY=   -12.8310   YY=    99.2371   ZY=    -1.9177
   XZ=     1.3630   YZ=    -0.1676   ZZ=    83.7169
   Eigenvalues:    83.5923    95.1033   144.7608
      4  C    Isotropic =   142.9991   Anisotropy =    31.2243
   XX=   151.4543   YX=    -8.5779   ZX=   -12.4189
   XY=    -6.9116   YY=   132.2416   ZY=    12.2051
   XZ=    -9.0909   YZ=     5.6018   ZZ=   145.3013
   Eigenvalues:   127.4731   137.7089   163.8152
      5  C    Isotropic =    13.8835   Anisotropy =    86.6986
   XX=   -54.9686   YX=   -35.5181   ZX=   -24.2916
   XY=   -44.5659   YY=    46.4292   ZY=   -21.3039
   XZ=   -33.1386   YZ=   -24.3256   ZZ=    50.1899
   Eigenvalues:   -78.2764    48.2443    71.6826
      6  H    Isotropic =    28.1593   Anisotropy =     2.1093
   XX=    29.3666   YX=     0.6810   ZX=     0.2617
   XY=     0.1585   YY=    26.6829   ZY=     0.1850
   XZ=     0.6044   YZ=    -0.7657   ZZ=    28.4286
   Eigenvalues:    26.5508    28.3617    29.5656
      7  H    Isotropic =    30.2629   Anisotropy =     4.8424
   XX=    31.5879   YX=     0.1079   ZX=     2.1678
   XY=     0.1208   YY=    29.8429   ZY=    -2.6202
   XZ=     2.3724   YZ=    -2.2095   ZZ=    29.3580
   Eigenvalues:    26.5141    30.7835    33.4912
      8  H    Isotropic =    29.8789   Anisotropy =     5.1612
   XX=    31.1866   YX=    -2.5568   ZX=     1.0656
   XY=    -2.7526   YY=    27.6051   ZY=    -0.1504
   XZ=     1.3468   YZ=    -1.0049   ZZ=    30.8450
   Eigenvalues:    26.1929    30.1241    33.3197
      9  H    Isotropic =    29.2488   Anisotropy =     3.3809
   XX=    28.5522   YX=     1.3005   ZX=     0.2767
   XY=     0.3980   YY=    30.2405   ZY=     1.8504
   XZ=    -0.8989   YZ=     1.5292   ZZ=    28.9536
   Eigenvalues:    27.3210    28.9226    31.5027
     10  O    Isotropic =   100.0528   Anisotropy =   189.8314
   XX=   146.9446   YX=    63.9229   ZX=    75.5729
   XY=    68.7580   YY=    88.2797   ZY=  -162.4757
   XZ=    77.0198   YZ=  -136.1917   ZZ=    64.9341
   Eigenvalues:  -112.5433   186.0945   226.6071
     11  O    Isotropic =  -104.3989   Anisotropy =   558.7618
   XX=  -215.5343   YX=   -69.5078   ZX=   -23.5572
   XY=   -47.3792   YY=   -47.5232   ZY=  -325.6226
   XZ=   -15.6634   YZ=  -305.0767   ZZ=   -50.1392
   Eigenvalues:  -382.5171  -198.7886   268.1090
     12  C    Isotropic =   156.0751   Anisotropy =    24.8835
   XX=   160.9492   YX=    11.1597   ZX=    -0.5295
   XY=     9.1059   YY=   162.0517   ZY=    -4.3576
   XZ=    -2.6170   YZ=    -7.1083   ZZ=   145.2246
   Eigenvalues:   143.2835   152.2778   172.6641
     13  C    Isotropic =   175.5923   Anisotropy =    21.9313
   XX=   189.8184   YX=    -1.1566   ZX=     0.2937
   XY=    -4.3784   YY=   169.8174   ZY=    -5.2711
   XZ=    -0.6381   YZ=    -6.7030   ZZ=   167.1411
   Eigenvalues:   162.2170   174.3469   190.2132
     14  C    Isotropic =   176.6546   Anisotropy =    19.3291
   XX=   170.1586   YX=    -0.3347   ZX=    -0.8935
   XY=    -3.1435   YY=   172.5332   ZY=     6.1928
   XZ=    -3.8516   YZ=     4.9285   ZZ=   187.2721
   Eigenvalues:   169.2139   171.2093   189.5407
     15  O    Isotropic =   248.6050   Anisotropy =    23.3727
   XX=   231.2543   YX=    -6.4881   ZX=    -9.4815
   XY=   -16.2205   YY=   250.8810   ZY=     2.3794
   XZ=     5.4224   YZ=    -7.5669   ZZ=   263.6798
   Eigenvalues:   225.8338   255.7945   264.1868
     16  Si   Isotropic =   333.4902   Anisotropy =    40.6030
   XX=   344.5174   YX=   -19.1324   ZX=    21.6674
   XY=   -15.1173   YY=   324.6375   ZY=    -8.2592
   XZ=     3.7326   YZ=    -1.4214   ZZ=   331.3157
   Eigenvalues:   314.4067   325.5050   360.5588
     17  C    Isotropic =   186.9259   Anisotropy =    12.2557
   XX=   189.9075   YX=    -4.9054   ZX=    -3.8555
   XY=    -4.8894   YY=   179.6607   ZY=     0.8102
   XZ=    -3.1169   YZ=     0.7826   ZZ=   191.2095
   Eigenvalues:   177.6718   188.0095   195.0964
     18  C    Isotropic =   185.3925   Anisotropy =    12.2419
   XX=   184.6615   YX=     1.1430   ZX=     6.4659
   XY=    -0.6086   YY=   187.8571   ZY=     4.7708
   XZ=     6.0807   YZ=     6.0078   ZZ=   183.6588
   Eigenvalues:   176.4824   186.1412   193.5538
     19  C    Isotropic =   186.0341   Anisotropy =     9.3282
   XX=   186.9411   YX=     1.2375   ZX=     1.6061
   XY=     3.6223   YY=   188.5851   ZY=    -4.9867
   XZ=     1.7339   YZ=    -6.2146   ZZ=   182.5761
   Eigenvalues:   178.3750   187.4744   192.2529
     20  H    Isotropic =    32.2590   Anisotropy =    10.4545
   XX=    35.8311   YX=    -1.2997   ZX=     4.9059
   XY=    -1.6687   YY=    29.4214   ZY=    -0.3639
   XZ=     4.8928   YZ=    -0.1955   ZZ=    31.5244
   Eigenvalues:    28.0477    29.5006    39.2287
     21  H    Isotropic =    31.8734   Anisotropy =     8.1178
   XX=    30.7690   YX=     3.2611   ZX=     0.0706
   XY=     2.8276   YY=    35.4598   ZY=    -2.3192
   XZ=     0.3905   YZ=    -1.4618   ZZ=    29.3912
   Eigenvalues:    28.1423    30.1926    37.2852
     22  H    Isotropic =    31.9429   Anisotropy =     6.6100
   XX=    32.9634   YX=    -0.6787   ZX=    -1.2624
   XY=    -1.5898   YY=    29.2688   ZY=     3.1141
   XZ=    -2.0125   YZ=     3.0391   ZZ=    33.5966
   Eigenvalues:    27.6580    31.8212    36.3496
     23  H    Isotropic =    31.9839   Anisotropy =     6.3482
   XX=    33.1500   YX=    -1.5618   ZX=    -3.0142
   XY=    -0.7348   YY=    29.7968   ZY=    -1.4263
   XZ=    -3.2608   YZ=    -1.0362   ZZ=    33.0049
   Eigenvalues:    28.1832    31.5525    36.2160
     24  H    Isotropic =    31.9594   Anisotropy =     7.2553
   XX=    30.6414   YX=     1.5414   ZX=     2.4772
   XY=     1.8311   YY=    34.9674   ZY=     2.5833
   XZ=     2.0947   YZ=     1.7358   ZZ=    30.2694
   Eigenvalues:    28.1243    30.9576    36.7962
     25  H    Isotropic =    32.1920   Anisotropy =    10.6457
   XX=    33.5166   YX=    -3.5913   ZX=     3.6259
   XY=    -3.2159   YY=    31.9303   ZY=    -3.4512
   XZ=     3.5403   YZ=    -3.5962   ZZ=    31.1289
   Eigenvalues:    27.9089    29.3778    39.2891
     26  H    Isotropic =    31.8843   Anisotropy =     8.5952
   XX=    31.6378   YX=     2.0581   ZX=    -3.4772
   XY=     1.6725   YY=    32.3916   ZY=    -2.9317
   XZ=    -3.2427   YZ=    -3.6972   ZZ=    31.6235
   Eigenvalues:    27.8698    30.1686    37.6144
     27  H    Isotropic =    32.3501   Anisotropy =    10.3015
   XX=    37.1544   YX=    -3.8244   ZX=     1.4759
   XY=    -3.9155   YY=    30.0018   ZY=    -0.7202
   XZ=     1.8662   YZ=    -0.9112   ZZ=    29.8941
   Eigenvalues:    28.3039    29.5287    39.2178
     28  H    Isotropic =    31.9377   Anisotropy =     8.1710
   XX=    30.9290   YX=     0.3090   ZX=    -0.2113
   XY=     0.5833   YY=    31.8554   ZY=     4.7577
   XZ=     0.5594   YZ=     5.0017   ZZ=    33.0288
   Eigenvalues:    27.5132    30.9149    37.3851
     29  H    Isotropic =    31.2257   Anisotropy =     9.5012
   XX=    29.4233   YX=     2.8643   ZX=    -0.8579
   XY=     2.8956   YY=    35.5128   ZY=     3.1760
   XZ=    -0.5534   YZ=     3.3236   ZZ=    28.7409
   Eigenvalues:    26.2801    29.8371    37.5598
     30  H    Isotropic =    31.5123   Anisotropy =     8.6005
   XX=    28.9587   YX=     0.0755   ZX=     2.7424
   XY=    -0.3995   YY=    29.3362   ZY=    -0.6075
   XZ=     2.7164   YZ=    -1.1077   ZZ=    36.2421
   Eigenvalues:    28.0381    29.2529    37.2460
     31  H    Isotropic =    30.4727   Anisotropy =     7.3949
   XX=    34.6076   YX=    -0.7774   ZX=    -0.8368
   XY=    -1.1824   YY=    27.5807   ZY=     3.9828
   XZ=    -1.6171   YZ=     3.6333   ZZ=    29.2298
   Eigenvalues:    24.5090    31.5065    35.4026
     32  H    Isotropic =    30.6385   Anisotropy =     5.0472
   XX=    32.4063   YX=     0.3233   ZX=     0.4357
   XY=     0.1657   YY=    30.1092   ZY=    -4.4166
   XZ=     0.5031   YZ=    -4.0269   ZZ=    29.4000
   Eigenvalues:    25.4803    32.4319    34.0033
     33  H    Isotropic =    30.3219   Anisotropy =     5.5957
   XX=    32.6011   YX=     1.3915   ZX=    -2.2264
   XY=     1.5919   YY=    30.4549   ZY=     4.7039
   XZ=    -1.9198   YZ=     4.6831   ZZ=    27.9096
   Eigenvalues:    23.5955    33.3177    34.0524
     34  H    Isotropic =    31.0076   Anisotropy =    11.4026
   XX=    34.9653   YX=     5.0254   ZX=    -1.3083
   XY=     4.3959   YY=    31.7176   ZY=    -1.0631
   XZ=    -1.5072   YZ=    -1.4324   ZZ=    26.3401
   Eigenvalues:    26.0383    28.3753    38.6094
     35  H    Isotropic =    30.5073   Anisotropy =     7.8729
   XX=    32.8183   YX=    -1.0828   ZX=    -2.9103
   XY=    -0.1098   YY=    28.6215   ZY=     4.2039
   XZ=    -2.6978   YZ=     3.8275   ZZ=    30.0819
   Eigenvalues:    25.0156    30.7503    35.7559
     36  H    Isotropic =    31.1918   Anisotropy =     9.2701
   XX=    33.9202   YX=    -1.9567   ZX=     3.8366
   XY=    -1.3328   YY=    28.0986   ZY=    -2.8340
   XZ=     3.3014   YZ=    -2.2593   ZZ=    31.5564
   Eigenvalues:    26.7393    29.4642    37.3718
     37  C    Isotropic =   146.1402   Anisotropy =    15.8468
   XX=   146.7346   YX=     8.9772   ZX=     3.7645
   XY=     1.0886   YY=   151.1130   ZY=    -9.5729
   XZ=     7.1047   YZ=    -8.5917   ZZ=   140.5730
   Eigenvalues:   131.8201   149.8959   156.7047
     38  C    Isotropic =    45.7180   Anisotropy =   178.8131
   XX=   -69.2671   YX=   -28.4604   ZX=    12.6819
   XY=   -33.2719   YY=    45.4171   ZY=   -17.4633
   XZ=    11.1926   YZ=   -18.5113   ZZ=   161.0038
   Eigenvalues:   -77.2659    49.4931   164.9267
     39  C    Isotropic =    64.8776   Anisotropy =   140.9328
   XX=   -36.7684   YX=   -41.9407   ZX=     6.8840
   XY=   -39.5562   YY=    75.1267   ZY=   -10.0494
   XZ=     5.0396   YZ=   -14.2068   ZZ=   156.2745
   Eigenvalues:   -50.0526    85.8526   158.8328
     40  H    Isotropic =    30.2251   Anisotropy =     5.9547
   XX=    31.8174   YX=    -1.7564   ZX=     1.0260
   XY=     0.0072   YY=    32.3646   ZY=    -3.2415
   XZ=     1.2883   YZ=    -2.4702   ZZ=    26.4932
   Eigenvalues:    25.2468    31.2335    34.1948
     41  H    Isotropic =    29.5549   Anisotropy =     4.0159
   XX=    25.6120   YX=     1.8340   ZX=     0.7807
   XY=     1.6501   YY=    30.8676   ZY=    -1.1845
   XZ=     0.2651   YZ=     0.7653   ZZ=    32.1852
   Eigenvalues:    25.0430    31.3897    32.2322
     42  H    Isotropic =    25.7422   Anisotropy =     7.1995
   XX=    23.4204   YX=     1.4341   ZX=    -0.4523
   XY=    -0.0385   YY=    29.9083   ZY=    -1.5482
   XZ=    -0.8449   YZ=    -2.1828   ZZ=    23.8979
   Eigenvalues:    22.9124    23.7723    30.5418
     43  H    Isotropic =    26.6993   Anisotropy =     6.8470
   XX=    23.4560   YX=    -1.6027   ZX=    -0.0759
   XY=     0.8963   YY=    31.2345   ZY=    -0.2383
   XZ=    -0.0052   YZ=    -0.3281   ZZ=    25.4076
   Eigenvalues:    23.4385    25.3956    31.2640
     44  H    Isotropic =    26.7978   Anisotropy =     7.3729
   XX=    23.5623   YX=    -0.9157   ZX=     0.2495
   XY=    -3.1881   YY=    31.1394   ZY=    -0.5870
   XZ=    -0.4927   YZ=    -0.6471   ZZ=    25.6916
   Eigenvalues:    23.0148    25.6654    31.7130
 End of Minotr F.D. properties file   721 does not exist.
 End of Minotr F.D. properties file   722 does not exist.
 End of Minotr F.D. properties file   788 does not exist.

 **********************************************************************

            Population analysis using the SCF density.

 **********************************************************************

 Orbital symmetries:
       Occupied  (A) (A) (A) (A) (A) (A) (A) (A) (A) (A) (A) (A)
                 (A) (A) (A) (A) (A) (A) (A) (A) (A) (A) (A) (A)
                 (A) (A) (A) (A) (A) (A) (A) (A) (A) (A) (A) (A)
                 (A) (A) (A) (A) (A) (A) (A) (A) (A) (A) (A) (A)
                 (A) (A) (A) (A) (A) (A) (A) (A) (A) (A) (A) (A)
                 (A) (A) (A) (A) (A) (A) (A) (A) (A) (A) (A) (A)
                 (A) (A)
       Virtual   (A) (A) (A) (A) (A) (A) (A) (A) (A) (A) (A) (A)
                 (A) (A) (A) (A) (A) (A) (A) (A) (A) (A) (A) (A)
                 (A) (A) (A) (A) (A) (A) (A) (A) (A) (A) (A) (A)
                 (A) (A) (A) (A) (A) (A) (A) (A) (A) (A) (A) (A)
                 (A) (A) (A) (A) (A) (A) (A) (A) (A) (A) (A) (A)
                 (A) (A) (A) (A) (A) (A) (A) (A) (A) (A) (A) (A)
                 (A) (A) (A) (A) (A) (A) (A) (A) (A) (A) (A) (A)
                 (A) (A) (A) (A) (A) (A) (A) (A) (A) (A) (A) (A)
                 (A) (A) (A) (A) (A) (A) (A) (A) (A) (A) (A) (A)
                 (A) (A) (A) (A) (A) (A) (A) (A) (A) (A) (A) (A)
                 (A) (A) (A) (A) (A) (A) (A) (A) (A) (A) (A) (A)
                 (A) (A) (A) (A) (A) (A) (A) (A) (A) (A) (A) (A)
                 (A) (A) (A) (A) (A) (A) (A) (A) (A) (A) (A) (A)
                 (A) (A) (A) (A) (A) (A) (A) (A) (A) (A) (A) (A)
                 (A) (A) (A) (A) (A) (A) (A) (A) (A) (A) (A) (A)
                 (A) (A) (A) (A) (A) (A) (A) (A) (A) (A) (A) (A)
                 (A) (A) (A) (A) (A) (A) (A) (A) (A) (A) (A) (A)
                 (A) (A) (A) (A) (A) (A) (A) (A) (A) (A) (A) (A)
                 (A) (A) (A) (A) (A) (A) (A) (A) (A) (A) (A) (A)
                 (A) (A) (A) (A) (A) (A) (A) (A) (A) (A) (A) (A)
                 (A) (A) (A) (A) (A) (A) (A) (A) (A) (A) (A) (A)
                 (A) (A) (A) (A) (A) (A) (A) (A) (A) (A) (A) (A)
                 (A) (A) (A) (A) (A) (A) (A) (A) (A) (A) (A) (A)
                 (A) (A) (A) (A) (A) (A) (A) (A) (A) (A) (A) (A)
                 (A) (A) (A) (A) (A) (A) (A) (A) (A) (A) (A) (A)
                 (A) (A) (A) (A) (A) (A) (A) (A) (A) (A) (A) (A)
                 (A) (A) (A) (A) (A) (A) (A) (A) (A) (A) (A) (A)
                 (A) (A) (A) (A) (A) (A) (A) (A) (A) (A) (A) (A)
 The electronic state is 1-A.
 Alpha  occ. eigenvalues --  -66.27489 -19.25922 -19.20715 -19.19560 -10.37001
 Alpha  occ. eigenvalues --  -10.31737 -10.30698 -10.25457 -10.25085 -10.24054
 Alpha  occ. eigenvalues --  -10.23953 -10.23898 -10.22810 -10.22677 -10.22090
 Alpha  occ. eigenvalues --  -10.21148 -10.20806 -10.20735  -5.33223  -3.67111
 Alpha  occ. eigenvalues --   -3.66817  -3.66800  -1.13202  -1.04801  -1.04071
 Alpha  occ. eigenvalues --   -0.85947  -0.83297  -0.80512  -0.77790  -0.74168
 Alpha  occ. eigenvalues --   -0.72494  -0.71964  -0.70443  -0.70192  -0.66500
 Alpha  occ. eigenvalues --   -0.63941  -0.61927  -0.58541  -0.56291  -0.53760
 Alpha  occ. eigenvalues --   -0.52098  -0.49999  -0.49308  -0.48933  -0.47690
 Alpha  occ. eigenvalues --   -0.46209  -0.45155  -0.44954  -0.44329  -0.43550
 Alpha  occ. eigenvalues --   -0.42723  -0.42438  -0.42076  -0.41412  -0.41393
 Alpha  occ. eigenvalues --   -0.40879  -0.40579  -0.39769  -0.39569  -0.38701
 Alpha  occ. eigenvalues --   -0.38432  -0.37900  -0.37161  -0.36555  -0.36122
 Alpha  occ. eigenvalues --   -0.35667  -0.34245  -0.33634  -0.32583  -0.31029
 Alpha  occ. eigenvalues --   -0.30696  -0.28808  -0.28231  -0.27213
 Alpha virt. eigenvalues --    0.00398   0.01348   0.03796   0.05859   0.05956
 Alpha virt. eigenvalues --    0.06677   0.07668   0.07866   0.08050   0.08877
 Alpha virt. eigenvalues --    0.09736   0.09839   0.10124   0.10624   0.11186
 Alpha virt. eigenvalues --    0.11543   0.12103   0.12987   0.13632   0.13844
 Alpha virt. eigenvalues --    0.14003   0.14352   0.14754   0.15218   0.15591
 Alpha virt. eigenvalues --    0.16028   0.16590   0.17073   0.17744   0.18383
 Alpha virt. eigenvalues --    0.19163   0.19686   0.19993   0.20180   0.20715
 Alpha virt. eigenvalues --    0.21705   0.22626   0.23080   0.24284   0.24828
 Alpha virt. eigenvalues --    0.25316   0.25630   0.26247   0.26799   0.28294
 Alpha virt. eigenvalues --    0.29419   0.29936   0.30876   0.31533   0.32610
 Alpha virt. eigenvalues --    0.33223   0.33994   0.34224   0.36126   0.36578
 Alpha virt. eigenvalues --    0.36995   0.37748   0.38370   0.39750   0.40106
 Alpha virt. eigenvalues --    0.41331   0.42035   0.42337   0.43493   0.44432
 Alpha virt. eigenvalues --    0.44632   0.45979   0.46137   0.46893   0.48478
 Alpha virt. eigenvalues --    0.49682   0.49838   0.50826   0.51618   0.52377
 Alpha virt. eigenvalues --    0.53736   0.54472   0.55084   0.55759   0.56136
 Alpha virt. eigenvalues --    0.57081   0.57540   0.57818   0.58508   0.59147
 Alpha virt. eigenvalues --    0.59811   0.60116   0.60483   0.60730   0.61071
 Alpha virt. eigenvalues --    0.61483   0.61899   0.62368   0.62507   0.63328
 Alpha virt. eigenvalues --    0.63528   0.63755   0.64241   0.64625   0.65847
 Alpha virt. eigenvalues --    0.66635   0.66923   0.67473   0.67898   0.68452
 Alpha virt. eigenvalues --    0.69289   0.69680   0.69978   0.70020   0.70657
 Alpha virt. eigenvalues --    0.71798   0.72671   0.72912   0.73652   0.74455
 Alpha virt. eigenvalues --    0.76384   0.76911   0.77468   0.77634   0.81955
 Alpha virt. eigenvalues --    0.83048   0.84025   0.86149   0.87065   0.87621
 Alpha virt. eigenvalues --    0.88434   0.90472   0.91278   0.93396   0.93828
 Alpha virt. eigenvalues --    0.94985   0.95938   0.96409   0.97523   1.00359
 Alpha virt. eigenvalues --    1.00967   1.03042   1.04996   1.06072   1.09774
 Alpha virt. eigenvalues --    1.13760   1.14294   1.16656   1.17462   1.18938
 Alpha virt. eigenvalues --    1.22404   1.22997   1.25951   1.26959   1.27335
 Alpha virt. eigenvalues --    1.29160   1.29416   1.31517   1.31897   1.33233
 Alpha virt. eigenvalues --    1.34323   1.37901   1.39190   1.40017   1.41557
 Alpha virt. eigenvalues --    1.42393   1.43355   1.46583   1.47480   1.48446
 Alpha virt. eigenvalues --    1.49521   1.50551   1.51939   1.52749   1.53559
 Alpha virt. eigenvalues --    1.54356   1.54921   1.55410   1.57625   1.57860
 Alpha virt. eigenvalues --    1.59291   1.59487   1.59892   1.60476   1.60880
 Alpha virt. eigenvalues --    1.60948   1.61302   1.61996   1.62669   1.63575
 Alpha virt. eigenvalues --    1.64329   1.65000   1.66390   1.67872   1.68230
 Alpha virt. eigenvalues --    1.69152   1.69972   1.71526   1.72980   1.73587
 Alpha virt. eigenvalues --    1.73955   1.77412   1.78534   1.80003   1.80668
 Alpha virt. eigenvalues --    1.81462   1.81531   1.82992   1.84002   1.88051
 Alpha virt. eigenvalues --    1.89219   1.90978   1.92150   1.96272   1.97988
 Alpha virt. eigenvalues --    1.99021   2.04335   2.06360   2.07656   2.12892
 Alpha virt. eigenvalues --    2.16007   2.17088   2.21925   2.23099   2.24893
 Alpha virt. eigenvalues --    2.29642   2.32220   2.34010   2.35133   2.40152
 Alpha virt. eigenvalues --    2.41048   2.41852   2.42263   2.42729   2.43451
 Alpha virt. eigenvalues --    2.44153   2.44934   2.45765   2.46689   2.47306
 Alpha virt. eigenvalues --    2.47573   2.48480   2.49690   2.50344   2.51606
 Alpha virt. eigenvalues --    2.52513   2.52661   2.58579   2.59021   2.59726
 Alpha virt. eigenvalues --    2.61248   2.63402   2.67525   2.72222   2.81234
 Alpha virt. eigenvalues --    2.81906   2.86722   2.88524   2.90593   2.91251
 Alpha virt. eigenvalues --    2.92427   2.93475   2.95239   2.96096   2.97426
 Alpha virt. eigenvalues --    2.99017   2.99924   3.00569   3.01939   3.04875
 Alpha virt. eigenvalues --    3.08142   3.11066   3.12218   3.13772   3.14825
 Alpha virt. eigenvalues --    3.16016   3.17041   3.17388   3.19406   3.21332
 Alpha virt. eigenvalues --    3.22186   3.22449   3.22857   3.23480   3.24513
 Alpha virt. eigenvalues --    3.25590   3.27321   3.27564   3.29030   3.29300
 Alpha virt. eigenvalues --    3.32917   3.34969   3.36247   3.37494   3.38541
 Alpha virt. eigenvalues --    3.42779   3.51006   3.57319   3.59550   3.63718
 Alpha virt. eigenvalues --    3.78432   3.88243   3.88788   3.99245   4.04495
 Alpha virt. eigenvalues --    4.09727   4.13398   4.19066   4.22383   4.26624
 Alpha virt. eigenvalues --    4.93618   5.00702   5.02143   5.11258   5.15311
 Alpha virt. eigenvalues --    5.23649   5.52186   5.56581   5.76839   5.85328
 Alpha virt. eigenvalues --   11.52338  11.53204  11.56516  23.41689  23.49818
 Alpha virt. eigenvalues --   23.54345  23.54491  23.56791  23.60529  23.70359
 Alpha virt. eigenvalues --   23.72749  23.79876  23.80198  23.83144  23.85436
 Alpha virt. eigenvalues --   23.88742  24.29439  49.98609  50.06101  50.13476
 Alpha virt. eigenvalues --  141.27594
          Condensed to atoms (all electrons):
               1          2          3          4          5          6
     1  C    5.202604   0.288353  -0.055297  -0.003203  -0.049551   0.381199
     2  C    0.288353   5.499535   0.328596  -0.091016  -0.009283  -0.039851
     3  C   -0.055297   0.328596   5.196643   0.235361  -0.017907  -0.016812
     4  C   -0.003203  -0.091016   0.235361   5.870088   0.244053   0.002463
     5  C   -0.049551  -0.009283  -0.017907   0.244053   4.388353  -0.000971
     6  H    0.381199  -0.039851  -0.016812   0.002463  -0.000971   0.492176
     7  H   -0.049310   0.410101  -0.059580  -0.007257   0.001082   0.007940
     8  H    0.001117  -0.006844  -0.029550   0.359675  -0.027712   0.000006
     9  H   -0.000686   0.007316  -0.032757   0.364633  -0.025450   0.000177
    10  O    0.214067  -0.033692   0.007882  -0.108857   0.345674  -0.035569
    11  O    0.002451  -0.000326   0.003845  -0.093723   0.668509  -0.000081
    12  C    0.326870  -0.069731   0.009766  -0.002303   0.001914  -0.049935
    13  C   -0.069957   0.007323  -0.000140   0.000044  -0.000011  -0.005715
    14  C   -0.067475   0.294000  -0.056980   0.007794   0.000083  -0.001670
    15  O    0.004152  -0.048262   0.218459  -0.023332   0.002030  -0.000080
    16  Si   0.002276  -0.010232  -0.043871  -0.004959   0.001471  -0.000187
    17  C   -0.000002  -0.000143   0.002209  -0.000084   0.000002   0.000000
    18  C    0.000007  -0.000287   0.000019  -0.001769   0.000000   0.000000
    19  C   -0.000073  -0.000382   0.000415  -0.002323  -0.000036  -0.000003
    20  H    0.000000   0.000003  -0.000038   0.000118   0.000001   0.000000
    21  H    0.000002  -0.000037   0.000498  -0.000309  -0.000022   0.000000
    22  H    0.000005  -0.000021  -0.000016   0.001042  -0.000012   0.000000
    23  H   -0.000084  -0.000124   0.000457   0.000039   0.000009  -0.000001
    24  H   -0.000061   0.000064   0.000143   0.000245   0.000006  -0.000001
    25  H   -0.000001   0.000156  -0.000070   0.000061   0.000002   0.000000
    26  H    0.000001  -0.000019  -0.000116  -0.000033   0.000000   0.000000
    27  H    0.000000  -0.000001  -0.000058   0.000001   0.000000   0.000000
    28  H   -0.000001   0.000021  -0.000060  -0.000016   0.000000   0.000000
    29  H   -0.005185  -0.035035   0.007136  -0.000266  -0.000004  -0.000815
    30  H   -0.005512  -0.038513  -0.009125  -0.000229   0.000025   0.005927
    31  H    0.006126  -0.035865  -0.008081   0.000682  -0.000095  -0.000079
    32  H   -0.045361  -0.006467  -0.000952   0.000231  -0.000060   0.008249
    33  H   -0.043658  -0.005675  -0.000190   0.000123   0.000008  -0.000221
    34  H    0.008027  -0.000236   0.000011  -0.000001   0.000001  -0.000257
    35  H   -0.011710   0.000470  -0.000070   0.000382   0.000868   0.000243
    36  H   -0.004010  -0.000110  -0.000004  -0.000004  -0.000094   0.004789
    37  C   -0.000694  -0.093065   0.268885  -0.106615  -0.000080   0.007316
    38  C   -0.000731   0.010053  -0.057862  -0.013665   0.000536   0.000084
    39  C   -0.000027  -0.000006  -0.002215  -0.000516   0.000429   0.000026
    40  H    0.003709  -0.009628  -0.023520  -0.003729   0.001909  -0.002791
    41  H   -0.000471  -0.008407  -0.045957   0.007219  -0.000314  -0.000149
    42  H    0.000008  -0.000280  -0.002868   0.000483   0.000033  -0.000004
    43  H    0.000000   0.000016  -0.000291   0.000060  -0.000007  -0.000001
    44  H   -0.000021  -0.000022  -0.000220  -0.000049   0.000468   0.000060
               7          8          9         10         11         12
     1  C   -0.049310   0.001117  -0.000686   0.214067   0.002451   0.326870
     2  C    0.410101  -0.006844   0.007316  -0.033692  -0.000326  -0.069731
     3  C   -0.059580  -0.029550  -0.032757   0.007882   0.003845   0.009766
     4  C   -0.007257   0.359675   0.364633  -0.108857  -0.093723  -0.002303
     5  C    0.001082  -0.027712  -0.025450   0.345674   0.668509   0.001914
     6  H    0.007940   0.000006   0.000177  -0.035569  -0.000081  -0.049935
     7  H    0.477595   0.001779   0.000198   0.002146  -0.000109  -0.008344
     8  H    0.001779   0.420519  -0.013314   0.002542   0.002342  -0.000003
     9  H    0.000198  -0.013314   0.399610   0.004016   0.008783   0.000046
    10  O    0.002146   0.002542   0.004016   8.047389  -0.077980  -0.054113
    11  O   -0.000109   0.002342   0.008783  -0.077980   7.869528  -0.000151
    12  C   -0.008344  -0.000003   0.000046  -0.054113  -0.000151   5.311130
    13  C   -0.000133   0.000004  -0.000003  -0.006079  -0.000018   0.317322
    14  C   -0.036592   0.000176  -0.000122   0.003243   0.000004  -0.003900
    15  O   -0.001462  -0.005659  -0.000241  -0.000019  -0.000019  -0.000067
    16  Si  -0.001653   0.003796  -0.003120  -0.000448  -0.000495  -0.000219
    17  C   -0.000050  -0.000040  -0.000027   0.000000   0.000000   0.000000
    18  C   -0.000148   0.000146  -0.001567  -0.000001   0.000001   0.000000
    19  C   -0.002556   0.003070   0.000196   0.000002   0.000002   0.000002
    20  H    0.000004  -0.000039   0.000129   0.000000   0.000000   0.000000
    21  H    0.000001   0.000005   0.000215   0.000000   0.000001   0.000000
    22  H   -0.000034   0.001201  -0.000392   0.000000  -0.000026   0.000000
    23  H   -0.000271   0.004669  -0.000001  -0.000005   0.000001   0.000029
    24  H   -0.000654  -0.000386   0.000005  -0.000002   0.000000   0.000030
    25  H    0.000372  -0.000050  -0.000004   0.000000   0.000000   0.000000
    26  H   -0.000001   0.000000  -0.000013   0.000000   0.000000   0.000000
    27  H   -0.000002   0.000009  -0.000002   0.000000   0.000000   0.000000
    28  H   -0.000011  -0.000006  -0.000003   0.000000   0.000000   0.000000
    29  H   -0.008282  -0.000024   0.000014  -0.000023   0.000000   0.001489
    30  H    0.007050  -0.000016   0.000017   0.000048   0.000001  -0.000501
    31  H   -0.002933   0.000051  -0.000032  -0.000107   0.000000   0.000079
    32  H    0.006650   0.000077   0.000015   0.002842  -0.000127   0.387400
    33  H    0.000078  -0.000021  -0.000001   0.003799   0.000007   0.388536
    34  H   -0.000031   0.000000   0.000000  -0.000160   0.000000  -0.037606
    35  H    0.000009  -0.000023  -0.000007   0.013112   0.000267  -0.038587
    36  H    0.000021   0.000001   0.000000  -0.000346  -0.000003  -0.040854
    37  C    0.009251   0.006187  -0.008074  -0.003866   0.000366  -0.000358
    38  C   -0.000239  -0.000122   0.009383   0.000084  -0.000134   0.000009
    39  C   -0.000005   0.000008   0.004178  -0.000034  -0.000020   0.000000
    40  H   -0.000340   0.000186  -0.000582   0.003931  -0.000539   0.000920
    41  H   -0.000205  -0.000142   0.000326   0.000077   0.000003  -0.000081
    42  H    0.000007   0.000049  -0.000243  -0.000001   0.000003   0.000001
    43  H   -0.000001  -0.000005   0.000143   0.000000  -0.000001   0.000000
    44  H    0.000006   0.000008  -0.000023  -0.000113   0.000363  -0.000001
              13         14         15         16         17         18
     1  C   -0.069957  -0.067475   0.004152   0.002276  -0.000002   0.000007
     2  C    0.007323   0.294000  -0.048262  -0.010232  -0.000143  -0.000287
     3  C   -0.000140  -0.056980   0.218459  -0.043871   0.002209   0.000019
     4  C    0.000044   0.007794  -0.023332  -0.004959  -0.000084  -0.001769
     5  C   -0.000011   0.000083   0.002030   0.001471   0.000002   0.000000
     6  H   -0.005715  -0.001670  -0.000080  -0.000187   0.000000   0.000000
     7  H   -0.000133  -0.036592  -0.001462  -0.001653  -0.000050  -0.000148
     8  H    0.000004   0.000176  -0.005659   0.003796  -0.000040   0.000146
     9  H   -0.000003  -0.000122  -0.000241  -0.003120  -0.000027  -0.001567
    10  O   -0.006079   0.003243  -0.000019  -0.000448   0.000000  -0.000001
    11  O   -0.000018   0.000004  -0.000019  -0.000495   0.000000   0.000001
    12  C    0.317322  -0.003900  -0.000067  -0.000219   0.000000   0.000000
    13  C    5.337805  -0.000344   0.000001   0.000015   0.000000   0.000000
    14  C   -0.000344   5.397136  -0.007822  -0.001197  -0.000161   0.000004
    15  O    0.000001  -0.007822   8.291337   0.345134  -0.029551  -0.024033
    16  Si   0.000015  -0.001197   0.345134  11.508197   0.336403   0.318547
    17  C    0.000000  -0.000161  -0.029551   0.336403   5.721245  -0.045924
    18  C    0.000000   0.000004  -0.024033   0.318547  -0.045924   5.762086
    19  C    0.000000   0.000649  -0.024006   0.307187  -0.044205  -0.054402
    20  H    0.000000   0.000000   0.000943  -0.012038  -0.000203   0.361767
    21  H    0.000000   0.000001  -0.002311  -0.025142  -0.000398   0.370896
    22  H    0.000000   0.000001  -0.001329  -0.026774   0.002225   0.371492
    23  H   -0.000001   0.000109  -0.001407  -0.028728   0.002360  -0.000970
    24  H   -0.000001   0.000374  -0.002053  -0.026670  -0.000443   0.002131
    25  H    0.000000  -0.000017   0.000847  -0.010493  -0.000513   0.000275
    26  H    0.000000  -0.000009  -0.001567  -0.023523   0.370419  -0.000527
    27  H    0.000000  -0.000003   0.001186  -0.014574   0.361211   0.000669
    28  H    0.000000   0.000162  -0.001953  -0.025342   0.369983   0.002078
    29  H    0.000058   0.391057  -0.000008  -0.000306  -0.000001   0.000001
    30  H   -0.000110   0.386263  -0.000066  -0.000046   0.000004   0.000000
    31  H    0.000016   0.383469   0.010283   0.003079   0.000243   0.000056
    32  H   -0.040348   0.001021  -0.000008  -0.000098   0.000000   0.000000
    33  H   -0.037205   0.001708  -0.000006  -0.000012   0.000000   0.000000
    34  H    0.392098   0.000001   0.000000  -0.000001   0.000000   0.000000
    35  H    0.384398  -0.000074   0.000000   0.000003   0.000000   0.000000
    36  H    0.385211   0.000043   0.000000   0.000000   0.000000   0.000000
    37  C   -0.000015  -0.008045  -0.079881   0.000413   0.000048   0.000003
    38  C   -0.000001  -0.000348   0.008495   0.001270  -0.000097  -0.000195
    39  C    0.000000   0.000006   0.000981   0.000616  -0.000002  -0.000024
    40  H    0.000002   0.000619   0.003350  -0.000009   0.000003   0.000004
    41  H    0.000002   0.002520   0.002349  -0.000013  -0.000046   0.000020
    42  H    0.000000  -0.000002   0.003823   0.000785   0.000149   0.000361
    43  H    0.000000   0.000000   0.000012   0.000015   0.000000   0.000004
    44  H    0.000000  -0.000003  -0.000002  -0.000005   0.000000   0.000000
              19         20         21         22         23         24
     1  C   -0.000073   0.000000   0.000002   0.000005  -0.000084  -0.000061
     2  C   -0.000382   0.000003  -0.000037  -0.000021  -0.000124   0.000064
     3  C    0.000415  -0.000038   0.000498  -0.000016   0.000457   0.000143
     4  C   -0.002323   0.000118  -0.000309   0.001042   0.000039   0.000245
     5  C   -0.000036   0.000001  -0.000022  -0.000012   0.000009   0.000006
     6  H   -0.000003   0.000000   0.000000   0.000000  -0.000001  -0.000001
     7  H   -0.002556   0.000004   0.000001  -0.000034  -0.000271  -0.000654
     8  H    0.003070  -0.000039   0.000005   0.001201   0.004669  -0.000386
     9  H    0.000196   0.000129   0.000215  -0.000392  -0.000001   0.000005
    10  O    0.000002   0.000000   0.000000   0.000000  -0.000005  -0.000002
    11  O    0.000002   0.000000   0.000001  -0.000026   0.000001   0.000000
    12  C    0.000002   0.000000   0.000000   0.000000   0.000029   0.000030
    13  C    0.000000   0.000000   0.000000   0.000000  -0.000001  -0.000001
    14  C    0.000649   0.000000   0.000001   0.000001   0.000109   0.000374
    15  O   -0.024006   0.000943  -0.002311  -0.001329  -0.001407  -0.002053
    16  Si   0.307187  -0.012038  -0.025142  -0.026774  -0.028728  -0.026670
    17  C   -0.044205  -0.000203  -0.000398   0.002225   0.002360  -0.000443
    18  C   -0.054402   0.361767   0.370896   0.371492  -0.000970   0.002131
    19  C    5.788426   0.000626   0.001961  -0.001192   0.368839   0.371235
    20  H    0.000626   0.454929  -0.021328  -0.022486   0.000055  -0.000049
    21  H    0.001961  -0.021328   0.448985  -0.019335  -0.000043  -0.000091
    22  H   -0.001192  -0.022486  -0.019335   0.449344   0.000719  -0.000030
    23  H    0.368839   0.000055  -0.000043   0.000719   0.447744  -0.019546
    24  H    0.371235  -0.000049  -0.000091  -0.000030  -0.019546   0.450670
    25  H    0.362715   0.000472  -0.000042   0.000040  -0.021143  -0.021697
    26  H    0.002127  -0.000103   0.001088  -0.000073  -0.000088  -0.000067
    27  H    0.000256   0.000686  -0.000006  -0.000061  -0.000077  -0.000045
    28  H   -0.000651  -0.000050  -0.000075  -0.000093  -0.000073   0.001234
    29  H    0.000108   0.000000   0.000000   0.000000   0.000015   0.000219
    30  H    0.000005   0.000000   0.000000   0.000000  -0.000003  -0.000008
    31  H   -0.000109   0.000000   0.000003   0.000001  -0.000019   0.000204
    32  H    0.000032   0.000000   0.000000   0.000000   0.000039   0.000013
    33  H   -0.000003   0.000000   0.000000   0.000000   0.000000   0.000000
    34  H    0.000000   0.000000   0.000000   0.000000   0.000000   0.000000
    35  H    0.000000   0.000000   0.000000   0.000000   0.000000   0.000000
    36  H    0.000000   0.000000   0.000000   0.000000   0.000000   0.000000
    37  C   -0.000343   0.000000   0.000136  -0.000010  -0.000076  -0.000081
    38  C    0.000031   0.000007   0.000453  -0.000052   0.000009   0.000006
    39  C    0.000001   0.000000   0.000061  -0.000014   0.000000   0.000000
    40  H    0.000011   0.000000   0.000002   0.000003   0.000003   0.000001
    41  H    0.000013   0.000000   0.000009   0.000000   0.000001   0.000002
    42  H    0.000021  -0.000001   0.000730  -0.000024   0.000001   0.000000
    43  H    0.000000   0.000000   0.000001   0.000002   0.000000   0.000000
    44  H    0.000000   0.000000   0.000001   0.000000   0.000000   0.000000
              25         26         27         28         29         30
     1  C   -0.000001   0.000001   0.000000  -0.000001  -0.005185  -0.005512
     2  C    0.000156  -0.000019  -0.000001   0.000021  -0.035035  -0.038513
     3  C   -0.000070  -0.000116  -0.000058  -0.000060   0.007136  -0.009125
     4  C    0.000061  -0.000033   0.000001  -0.000016  -0.000266  -0.000229
     5  C    0.000002   0.000000   0.000000   0.000000  -0.000004   0.000025
     6  H    0.000000   0.000000   0.000000   0.000000  -0.000815   0.005927
     7  H    0.000372  -0.000001  -0.000002  -0.000011  -0.008282   0.007050
     8  H   -0.000050   0.000000   0.000009  -0.000006  -0.000024  -0.000016
     9  H   -0.000004  -0.000013  -0.000002  -0.000003   0.000014   0.000017
    10  O    0.000000   0.000000   0.000000   0.000000  -0.000023   0.000048
    11  O    0.000000   0.000000   0.000000   0.000000   0.000000   0.000001
    12  C    0.000000   0.000000   0.000000   0.000000   0.001489  -0.000501
    13  C    0.000000   0.000000   0.000000   0.000000   0.000058  -0.000110
    14  C   -0.000017  -0.000009  -0.000003   0.000162   0.391057   0.386263
    15  O    0.000847  -0.001567   0.001186  -0.001953  -0.000008  -0.000066
    16  Si  -0.010493  -0.023523  -0.014574  -0.025342  -0.000306  -0.000046
    17  C   -0.000513   0.370419   0.361211   0.369983  -0.000001   0.000004
    18  C    0.000275  -0.000527   0.000669   0.002078   0.000001   0.000000
    19  C    0.362715   0.002127   0.000256  -0.000651   0.000108   0.000005
    20  H    0.000472  -0.000103   0.000686  -0.000050   0.000000   0.000000
    21  H   -0.000042   0.001088  -0.000006  -0.000075   0.000000   0.000000
    22  H    0.000040  -0.000073  -0.000061  -0.000093   0.000000   0.000000
    23  H   -0.021143  -0.000088  -0.000077  -0.000073   0.000015  -0.000003
    24  H   -0.021697  -0.000067  -0.000045   0.001234   0.000219  -0.000008
    25  H    0.444923  -0.000070   0.000639  -0.000074  -0.000004   0.000000
    26  H   -0.000070   0.452123  -0.021549  -0.019300  -0.000001   0.000000
    27  H    0.000639  -0.021549   0.460489  -0.021775   0.000000   0.000000
    28  H   -0.000074  -0.019300  -0.021775   0.453581  -0.000003  -0.000012
    29  H   -0.000004  -0.000001   0.000000  -0.000003   0.455703  -0.026691
    30  H    0.000000   0.000000   0.000000  -0.000012  -0.026691   0.469462
    31  H    0.000006  -0.000033  -0.000003   0.000955  -0.022782  -0.024523
    32  H   -0.000002   0.000000   0.000000   0.000000   0.000182   0.000053
    33  H    0.000000   0.000000   0.000000   0.000000   0.001268   0.000186
    34  H    0.000000   0.000000   0.000000   0.000000   0.000005   0.000002
    35  H    0.000000   0.000000   0.000000   0.000000  -0.000018   0.000001
    36  H    0.000000   0.000000   0.000000   0.000000   0.000041  -0.000012
    37  C    0.000006   0.000100   0.000003  -0.000002  -0.000102   0.003952
    38  C    0.000000  -0.000029  -0.000001   0.000005   0.000016   0.000108
    39  C    0.000000  -0.000004   0.000000   0.000000   0.000000  -0.000009
    40  H    0.000000  -0.000001   0.000000  -0.000001  -0.000055  -0.000300
    41  H    0.000000  -0.000015   0.000001  -0.000016   0.000263   0.000129
    42  H    0.000000   0.000259  -0.000010  -0.000024  -0.000001   0.000008
    43  H    0.000000  -0.000001   0.000000   0.000000   0.000000   0.000000
    44  H    0.000000   0.000000   0.000000   0.000000   0.000000   0.000004
              31         32         33         34         35         36
     1  C    0.006126  -0.045361  -0.043658   0.008027  -0.011710  -0.004010
     2  C   -0.035865  -0.006467  -0.005675  -0.000236   0.000470  -0.000110
     3  C   -0.008081  -0.000952  -0.000190   0.000011  -0.000070  -0.000004
     4  C    0.000682   0.000231   0.000123  -0.000001   0.000382  -0.000004
     5  C   -0.000095  -0.000060   0.000008   0.000001   0.000868  -0.000094
     6  H   -0.000079   0.008249  -0.000221  -0.000257   0.000243   0.004789
     7  H   -0.002933   0.006650   0.000078  -0.000031   0.000009   0.000021
     8  H    0.000051   0.000077  -0.000021   0.000000  -0.000023   0.000001
     9  H   -0.000032   0.000015  -0.000001   0.000000  -0.000007   0.000000
    10  O   -0.000107   0.002842   0.003799  -0.000160   0.013112  -0.000346
    11  O    0.000000  -0.000127   0.000007   0.000000   0.000267  -0.000003
    12  C    0.000079   0.387400   0.388536  -0.037606  -0.038587  -0.040854
    13  C    0.000016  -0.040348  -0.037205   0.392098   0.384398   0.385211
    14  C    0.383469   0.001021   0.001708   0.000001  -0.000074   0.000043
    15  O    0.010283  -0.000008  -0.000006   0.000000   0.000000   0.000000
    16  Si   0.003079  -0.000098  -0.000012  -0.000001   0.000003   0.000000
    17  C    0.000243   0.000000   0.000000   0.000000   0.000000   0.000000
    18  C    0.000056   0.000000   0.000000   0.000000   0.000000   0.000000
    19  C   -0.000109   0.000032  -0.000003   0.000000   0.000000   0.000000
    20  H    0.000000   0.000000   0.000000   0.000000   0.000000   0.000000
    21  H    0.000003   0.000000   0.000000   0.000000   0.000000   0.000000
    22  H    0.000001   0.000000   0.000000   0.000000   0.000000   0.000000
    23  H   -0.000019   0.000039   0.000000   0.000000   0.000000   0.000000
    24  H    0.000204   0.000013   0.000000   0.000000   0.000000   0.000000
    25  H    0.000006  -0.000002   0.000000   0.000000   0.000000   0.000000
    26  H   -0.000033   0.000000   0.000000   0.000000   0.000000   0.000000
    27  H   -0.000003   0.000000   0.000000   0.000000   0.000000   0.000000
    28  H    0.000955   0.000000   0.000000   0.000000   0.000000   0.000000
    29  H   -0.022782   0.000182   0.001268   0.000005  -0.000018   0.000041
    30  H   -0.024523   0.000053   0.000186   0.000002   0.000001  -0.000012
    31  H    0.427662  -0.000082   0.000372  -0.000001   0.000004  -0.000005
    32  H   -0.000082   0.485139  -0.025797  -0.004744  -0.004144   0.006863
    33  H    0.000372  -0.025797   0.477475  -0.004739   0.006968  -0.004728
    34  H   -0.000001  -0.004744  -0.004739   0.471171  -0.025519  -0.027394
    35  H    0.000004  -0.004144   0.006968  -0.025519   0.459997  -0.027414
    36  H   -0.000005   0.006863  -0.004728  -0.027394  -0.027414   0.485146
    37  C   -0.000998   0.000040   0.000002   0.000000  -0.000002  -0.000011
    38  C   -0.000177   0.000000   0.000000   0.000000   0.000000   0.000000
    39  C    0.000004   0.000000   0.000000   0.000000   0.000000   0.000000
    40  H    0.000051  -0.000056  -0.000044   0.000002  -0.000008  -0.000023
    41  H    0.000768   0.000001  -0.000008   0.000000   0.000000   0.000001
    42  H    0.000014   0.000000   0.000000   0.000000   0.000000   0.000000
    43  H    0.000000   0.000000   0.000000   0.000000   0.000000   0.000000
    44  H    0.000000   0.000000   0.000000   0.000000   0.000000   0.000000
              37         38         39         40         41         42
     1  C   -0.000694  -0.000731  -0.000027   0.003709  -0.000471   0.000008
     2  C   -0.093065   0.010053  -0.000006  -0.009628  -0.008407  -0.000280
     3  C    0.268885  -0.057862  -0.002215  -0.023520  -0.045957  -0.002868
     4  C   -0.106615  -0.013665  -0.000516  -0.003729   0.007219   0.000483
     5  C   -0.000080   0.000536   0.000429   0.001909  -0.000314   0.000033
     6  H    0.007316   0.000084   0.000026  -0.002791  -0.000149  -0.000004
     7  H    0.009251  -0.000239  -0.000005  -0.000340  -0.000205   0.000007
     8  H    0.006187  -0.000122   0.000008   0.000186  -0.000142   0.000049
     9  H   -0.008074   0.009383   0.004178  -0.000582   0.000326  -0.000243
    10  O   -0.003866   0.000084  -0.000034   0.003931   0.000077  -0.000001
    11  O    0.000366  -0.000134  -0.000020  -0.000539   0.000003   0.000003
    12  C   -0.000358   0.000009   0.000000   0.000920  -0.000081   0.000001
    13  C   -0.000015  -0.000001   0.000000   0.000002   0.000002   0.000000
    14  C   -0.008045  -0.000348   0.000006   0.000619   0.002520  -0.000002
    15  O   -0.079881   0.008495   0.000981   0.003350   0.002349   0.003823
    16  Si   0.000413   0.001270   0.000616  -0.000009  -0.000013   0.000785
    17  C    0.000048  -0.000097  -0.000002   0.000003  -0.000046   0.000149
    18  C    0.000003  -0.000195  -0.000024   0.000004   0.000020   0.000361
    19  C   -0.000343   0.000031   0.000001   0.000011   0.000013   0.000021
    20  H    0.000000   0.000007   0.000000   0.000000   0.000000  -0.000001
    21  H    0.000136   0.000453   0.000061   0.000002   0.000009   0.000730
    22  H   -0.000010  -0.000052  -0.000014   0.000003   0.000000  -0.000024
    23  H   -0.000076   0.000009   0.000000   0.000003   0.000001   0.000001
    24  H   -0.000081   0.000006   0.000000   0.000001   0.000002   0.000000
    25  H    0.000006   0.000000   0.000000   0.000000   0.000000   0.000000
    26  H    0.000100  -0.000029  -0.000004  -0.000001  -0.000015   0.000259
    27  H    0.000003  -0.000001   0.000000   0.000000   0.000001  -0.000010
    28  H   -0.000002   0.000005   0.000000  -0.000001  -0.000016  -0.000024
    29  H   -0.000102   0.000016   0.000000  -0.000055   0.000263  -0.000001
    30  H    0.003952   0.000108  -0.000009  -0.000300   0.000129   0.000008
    31  H   -0.000998  -0.000177   0.000004   0.000051   0.000768   0.000014
    32  H    0.000040   0.000000   0.000000  -0.000056   0.000001   0.000000
    33  H    0.000002   0.000000   0.000000  -0.000044  -0.000008   0.000000
    34  H    0.000000   0.000000   0.000000   0.000002   0.000000   0.000000
    35  H   -0.000002   0.000000   0.000000  -0.000008   0.000000   0.000000
    36  H   -0.000011   0.000000   0.000000  -0.000023   0.000001   0.000000
    37  C    5.507428   0.328365  -0.062246   0.380093   0.393536  -0.045123
    38  C    0.328365   5.056403   0.616240  -0.048948  -0.037446   0.396499
    39  C   -0.062246   0.616240   5.151286   0.002366   0.000480  -0.040628
    40  H    0.380093  -0.048948   0.002366   0.454543  -0.019589   0.005153
    41  H    0.393536  -0.037446   0.000480  -0.019589   0.445709  -0.001709
    42  H   -0.045123   0.396499  -0.040628   0.005153  -0.001709   0.459307
    43  H    0.006283  -0.039309   0.392797   0.000098  -0.000328  -0.007879
    44  H   -0.008615  -0.038886   0.386482   0.004534   0.000131   0.005844
              43         44
     1  C    0.000000  -0.000021
     2  C    0.000016  -0.000022
     3  C   -0.000291  -0.000220
     4  C    0.000060  -0.000049
     5  C   -0.000007   0.000468
     6  H   -0.000001   0.000060
     7  H   -0.000001   0.000006
     8  H   -0.000005   0.000008
     9  H    0.000143  -0.000023
    10  O    0.000000  -0.000113
    11  O   -0.000001   0.000363
    12  C    0.000000  -0.000001
    13  C    0.000000   0.000000
    14  C    0.000000  -0.000003
    15  O    0.000012  -0.000002
    16  Si   0.000015  -0.000005
    17  C    0.000000   0.000000
    18  C    0.000004   0.000000
    19  C    0.000000   0.000000
    20  H    0.000000   0.000000
    21  H    0.000001   0.000001
    22  H    0.000002   0.000000
    23  H    0.000000   0.000000
    24  H    0.000000   0.000000
    25  H    0.000000   0.000000
    26  H   -0.000001   0.000000
    27  H    0.000000   0.000000
    28  H    0.000000   0.000000
    29  H    0.000000   0.000000
    30  H    0.000000   0.000004
    31  H    0.000000   0.000000
    32  H    0.000000   0.000000
    33  H    0.000000   0.000000
    34  H    0.000000   0.000000
    35  H    0.000000   0.000000
    36  H    0.000000   0.000000
    37  C    0.006283  -0.008615
    38  C   -0.039309  -0.038886
    39  C    0.392797   0.386482
    40  H    0.000098   0.004534
    41  H   -0.000328   0.000131
    42  H   -0.007879   0.005844
    43  H    0.456162  -0.033778
    44  H   -0.033778   0.460717
 Mulliken charges:
               1
     1  C   -0.027888
     2  C   -0.302444
     3  C    0.184283
     4  C   -0.630539
     5  C    0.474140
     6  H    0.244538
     7  H    0.255915
     8  H    0.276335
     9  H    0.287268
    10  O   -0.329436
    11  O   -0.382723
    12  C   -0.438787
    13  C   -0.664217
    14  C   -0.685676
    15  O   -0.638235
    16  Si   1.430949
    17  C   -1.044613
    18  C   -1.060720
    19  C   -1.077646
    20  H    0.236596
    21  H    0.244089
    22  H    0.245901
    23  H    0.247563
    24  H    0.245301
    25  H    0.243666
    26  H    0.241026
    27  H    0.233017
    28  H    0.241523
    29  H    0.242028
    30  H    0.232433
    31  H    0.261796
    32  H    0.229398
    33  H    0.241776
    34  H    0.229372
    35  H    0.240854
    36  H    0.222899
    37  C   -0.494112
    38  C   -0.189814
    39  C   -0.450210
    40  H    0.248669
    41  H    0.261335
    42  H    0.225262
    43  H    0.226007
    44  H    0.223122
 Sum of Mulliken charges =   0.00000
 Mulliken charges with hydrogens summed into heavy atoms:
               1
     1  C    0.216650
     2  C   -0.046529
     3  C    0.184283
     4  C   -0.066936
     5  C    0.474140
    10  O   -0.329436
    11  O   -0.382723
    12  C    0.032387
    13  C    0.028907
    14  C    0.050581
    15  O   -0.638235
    16  Si   1.430949
    17  C   -0.329047
    18  C   -0.334134
    19  C   -0.341116
    37  C    0.015892
    38  C    0.035448
    39  C   -0.001081
 Electronic spatial extent (au):  <R**2>=           5546.9289
 Charge=              0.0000 electrons
 Dipole moment (field-independent basis, Debye):
    X=              2.2508    Y=             -3.9592    Z=             -2.7847  Tot=              5.3381
 Quadrupole moment (field-independent basis, Debye-Ang):
   XX=           -119.7264   YY=           -120.1537   ZZ=           -126.6164
   XY=              7.4039   XZ=             12.5146   YZ=             -6.8489
 Traceless Quadrupole moment (field-independent basis, Debye-Ang):
   XX=              2.4391   YY=              2.0118   ZZ=             -4.4509
   XY=              7.4039   XZ=             12.5146   YZ=             -6.8489
 Octapole moment (field-independent basis, Debye-Ang**2):
  XXX=             17.3254  YYY=             -1.1453  ZZZ=             -7.6200  XYY=              5.4761
  XXY=            -22.8758  XXZ=            -15.1398  XZZ=              9.4594  YZZ=            -25.1628
  YYZ=            -13.0712  XYZ=             10.8534
 Hexadecapole moment (field-independent basis, Debye-Ang**3):
 XXXX=          -4298.1717 YYYY=          -2036.2470 ZZZZ=          -1201.9700 XXXY=             29.2591
 XXXZ=             69.2835 YYYX=             34.7611 YYYZ=              5.7317 ZZZX=             26.4045
 ZZZY=             -7.9380 XXYY=          -1043.4926 XXZZ=           -946.4576 YYZZ=           -607.7778
 XXYZ=            -58.3508 YYXZ=             22.4018 ZZXY=             27.1225
 N-N= 1.622784554242D+03 E-N=-5.740714638282D+03  KE= 1.060535493379D+03
 1\1\GINC-SWANNODE-0-15\SP\RmPW1PW91\6-311G(d)\C14H26O3Si1\KE291\06-Feb
 -2019\0\\# mPW1PW91/6-311g(d) geom=checkpoint nmr=giao scrf=(solvent=c
 hloroform)\\P_ng_correct1ginp018\\0,1\C,0,0.8189482785,-0.4356006901,0
 .3917977651\C,0,-0.7070646513,-0.4485356672,0.5837308381\C,0,-1.157767
 9791,0.6257585604,1.6143104765\C,0,-0.6774006013,1.9844126763,1.085557
 4738\C,0,0.7940103937,2.0393455326,0.7246657739\H,0,1.2917143181,-0.91
 23927532,1.2602491375\H,0,-1.1670212769,-0.1536366844,-0.3691833033\H,
 0,-1.2194296347,2.2303490266,0.1643570141\H,0,-0.8666957192,2.78695140
 71,1.8003751081\O,0,1.4059274789,0.9028701165,0.3343793988\O,0,1.42811
 64958,3.0737026484,0.7183676032\C,0,1.2875568144,-1.1472963359,-0.8798
 2706\C,0,2.8110038455,-1.2159001973,-1.0226636323\C,0,-1.1980259459,-1
 .8634043453,0.9280659946\O,0,-2.5758714157,0.5879689393,1.7470868208\S
 i,0,-3.8984311737,1.2645663856,0.9561019625\C,0,-5.3636583756,0.332494
 9309,1.67878654\C,0,-4.0513546546,3.1047286708,1.3426219813\C,0,-3.833
 6280543,1.0031330336,-0.9136646717\H,0,-4.9951740572,3.4953383789,0.94
 43323677\H,0,-4.0500423098,3.2799104336,2.4236844645\H,0,-3.2407760576
 ,3.6967984132,0.9064998523\H,0,-2.9996782899,1.5268547441,-1.392573535
 6\H,0,-3.7552189939,-0.0592317333,-1.1677805669\H,0,-4.7564549024,1.38
 33245111,-1.3676521247\H,0,-5.411566708,0.4510085849,2.7662314077\H,0,
 -6.3064683793,0.7019615712,1.2602139897\H,0,-5.2970483597,-0.738504045
 2,1.4608775842\H,0,-1.1182992194,-2.5312392812,0.0669286174\H,0,-0.622
 3286313,-2.3081045511,1.7463804404\H,0,-2.2463861226,-1.8288532684,1.2
 308443481\H,0,0.8482273643,-0.6323341158,-1.7434205285\H,0,0.876204754
 ,-2.1620864197,-0.8738353041\H,0,3.0877385624,-1.7425664348,-1.9408883
 044\H,0,3.2498869851,-0.2158871036,-1.0575451859\H,0,3.262134638,-1.75
 31836101,-0.1808726734\C,0,-0.5876002546,0.3553963173,3.0334237576\C,0
 ,-1.02784939,1.3533665442,4.0696439424\C,0,-0.204132933,2.1155115687,4
 .7910378922\H,0,0.5071387394,0.3294735128,2.9954776459\H,0,-0.92578575
 ,-0.6433049559,3.3345494169\H,0,-2.1023036425,1.4286718519,4.225112889
 7\H,0,-0.5780267792,2.8108193233,5.5370631718\H,0,0.8754435947,2.07017
 75095,4.6656552139\\Version=EM64L-G09RevD.01\State=1-A\HF=-1064.385141
 9\RMSD=9.714e-09\Dipole=-1.4296121,-1.5085149,-0.3022529\Quadrupole=-3
 .057745,-0.6585981,3.716343,-11.0067898,2.9255888,3.0873166\PG=C01 [X(
 C14H26O3Si1)]\\@


 CHEMISTRY BEGAN BY SAYING IT WOULD CHANGE THE BASER
 METALS INTO GOLD.  BY NOT DOING THAT IT HAS DONE MUCH
 GREATER THINGS.  --  RALPH WALDO EMERSON
 Job cpu time:       0 days  0 hours 46 minutes  8.0 seconds.
 File lengths (MBytes):  RWF=    244 Int=      0 D2E=      0 Chk=     19 Scr=      1
 Normal termination of Gaussian 09 at Wed Feb  6 16:30:01 2019.
