 Entering Gaussian System, Link 0=/usr/local/Cluster-Apps/gaussian/g09/g09
 Initial command:
 /usr/local/Cluster-Apps/gaussian/g09/l1.exe "/home/ke291/rds/hpc-work/06Feb0927IP1/Gau-386139.inp" -scrdir="/home/ke291/rds/hpc-work/06Feb0927IP1/"
 Entering Link 1 = /usr/local/Cluster-Apps/gaussian/g09/l1.exe PID=    386144.
  
 Copyright (c) 1988,1990,1992,1993,1995,1998,2003,2009,2013,
            Gaussian, Inc.  All Rights Reserved.
  
 This is part of the Gaussian(R) 09 program.  It is based on
 the Gaussian(R) 03 system (copyright 2003, Gaussian, Inc.),
 the Gaussian(R) 98 system (copyright 1998, Gaussian, Inc.),
 the Gaussian(R) 94 system (copyright 1995, Gaussian, Inc.),
 the Gaussian 92(TM) system (copyright 1992, Gaussian, Inc.),
 the Gaussian 90(TM) system (copyright 1990, Gaussian, Inc.),
 the Gaussian 88(TM) system (copyright 1988, Gaussian, Inc.),
 the Gaussian 86(TM) system (copyright 1986, Carnegie Mellon
 University), and the Gaussian 82(TM) system (copyright 1983,
 Carnegie Mellon University). Gaussian is a federally registered
 trademark of Gaussian, Inc.
  
 This software contains proprietary and confidential information,
 including trade secrets, belonging to Gaussian, Inc.
  
 This software is provided under written license and may be
 used, copied, transmitted, or stored only in accord with that
 written license.
  
 The following legend is applicable only to US Government
 contracts under FAR:
  
                    RESTRICTED RIGHTS LEGEND
  
 Use, reproduction and disclosure by the US Government is
 subject to restrictions as set forth in subparagraphs (a)
 and (c) of the Commercial Computer Software - Restricted
 Rights clause in FAR 52.227-19.
  
 Gaussian, Inc.
 340 Quinnipiac St., Bldg. 40, Wallingford CT 06492
  
  
 ---------------------------------------------------------------
 Warning -- This program may not be used in any manner that
 competes with the business of Gaussian, Inc. or will provide
 assistance to any competitor of Gaussian, Inc.  The licensee
 of this program is prohibited from giving any competitor of
 Gaussian, Inc. access to this program.  By using this program,
 the user acknowledges that Gaussian, Inc. is engaged in the
 business of creating and licensing software in the field of
 computational chemistry and represents and warrants to the
 licensee that it is not a competitor of Gaussian, Inc. and that
 it will not use this program in any manner prohibited above.
 ---------------------------------------------------------------
  

 Cite this work as:
 Gaussian 09, Revision D.01,
 M. J. Frisch, G. W. Trucks, H. B. Schlegel, G. E. Scuseria, 
 M. A. Robb, J. R. Cheeseman, G. Scalmani, V. Barone, B. Mennucci, 
 G. A. Petersson, H. Nakatsuji, M. Caricato, X. Li, H. P. Hratchian, 
 A. F. Izmaylov, J. Bloino, G. Zheng, J. L. Sonnenberg, M. Hada, 
 M. Ehara, K. Toyota, R. Fukuda, J. Hasegawa, M. Ishida, T. Nakajima, 
 Y. Honda, O. Kitao, H. Nakai, T. Vreven, J. A. Montgomery, Jr., 
 J. E. Peralta, F. Ogliaro, M. Bearpark, J. J. Heyd, E. Brothers, 
 K. N. Kudin, V. N. Staroverov, T. Keith, R. Kobayashi, J. Normand, 
 K. Raghavachari, A. Rendell, J. C. Burant, S. S. Iyengar, J. Tomasi, 
 M. Cossi, N. Rega, J. M. Millam, M. Klene, J. E. Knox, J. B. Cross, 
 V. Bakken, C. Adamo, J. Jaramillo, R. Gomperts, R. E. Stratmann, 
 O. Yazyev, A. J. Austin, R. Cammi, C. Pomelli, J. W. Ochterski, 
 R. L. Martin, K. Morokuma, V. G. Zakrzewski, G. A. Voth, 
 P. Salvador, J. J. Dannenberg, S. Dapprich, A. D. Daniels, 
 O. Farkas, J. B. Foresman, J. V. Ortiz, J. Cioslowski, 
 and D. J. Fox, Gaussian, Inc., Wallingford CT, 2013.
 
 ******************************************
 Gaussian 09:  ES64L-G09RevD.01 24-Apr-2013
                 6-Feb-2019 
 ******************************************
 %nprocshared=2
 Will use up to    2 processors via shared memory.
 %mem=6000MB
 %chk=/home/ke291/rds/hpc-work/06Feb0927IP1/P_ng_4ginp008.chk
 ----------------------------------------------------------------------
 # mPW1PW91/6-311g(d) geom=checkpoint nmr=giao scrf=(solvent=chloroform
 )
 ----------------------------------------------------------------------
 1/29=2,38=1/1;
 2/12=2,40=1/2;
 3/5=4,6=6,7=1,11=2,14=-4,16=1,25=1,30=1,70=2201,72=7,74=-7/1,2,8,3;
 4//1;
 5/5=2,38=5,53=7/2;
 8/6=1,10=90,11=11/1;
 10/13=100,45=16/2;
 6/7=2,8=2,9=2,10=2,28=1/1;
 99/9=1/99;
 -------------
 P_ng_4ginp008
 -------------
 Structure from the checkpoint file:  "/home/ke291/rds/hpc-work/06Feb0927IP1/P_ng_4ginp008.chk"
 Charge =  0 Multiplicity = 1
 Redundant internal coordinates found in file.
 C,0,0.2268021359,2.103724271,-0.5171198864
 C,0,-0.0423128499,1.3892841358,0.8161175499
 C,0,-1.2195317994,2.0964904828,1.5492494241
 C,0,-0.7878436668,3.5504129801,1.8095978763
 C,0,-0.1571349749,4.2712612177,0.6287139115
 H,0,-0.6549706961,2.0070812992,-1.1612912032
 H,0,-0.3799829955,0.3768873563,0.5713023279
 H,0,-1.6187339233,4.1701790874,2.1571847246
 H,0,-0.0316699402,3.5627172827,2.6018741645
 O,0,0.4342486912,3.5432163027,-0.3434284029
 O,0,-0.0978189261,5.4816495643,0.5689628957
 C,0,1.4367900157,1.6164853798,-1.3147085166
 C,0,1.3041564404,0.1675821247,-1.794820405
 C,0,1.2145122633,1.2625132667,1.693547629
 O,0,-1.4392834631,1.3881646767,2.7624098682
 Si,0,-2.1500673153,1.7195265415,4.2505255852
 C,0,-1.0124912918,2.7809475354,5.3201673338
 C,0,-3.8256373729,2.5758821507,4.0963436679
 C,0,-2.3594539894,0.020232939,5.0279390252
 H,0,-4.2594265758,2.7076372551,5.094823829
 H,0,-3.7534654624,3.5696874378,3.6417128959
 H,0,-4.5295193212,1.9816016275,3.5054936809
 H,0,-1.3946651167,-0.4866016426,5.1347130641
 H,0,-2.8086240958,0.0980645641,6.0242855254
 H,0,-3.0059501334,-0.6156632852,4.4146705829
 H,0,-0.9116254525,3.8017877629,4.9377290367
 H,0,-1.4160212215,2.851099818,6.337206904
 H,0,-0.0098266759,2.3460735108,5.3912205225
 H,0,1.9248356246,0.5590471322,1.2515620288
 H,0,1.7355107969,2.2172311998,1.8162221502
 H,0,0.9438305758,0.8883619058,2.6816768795
 H,0,2.345741724,1.7413853772,-0.7173541131
 H,0,1.5395073821,2.2817788781,-2.1789289762
 H,0,2.1566629476,-0.1033513968,-2.424071829
 H,0,1.2714391186,-0.5420150722,-0.9620510157
 H,0,0.395275989,0.0265475852,-2.3903958142
 C,0,-2.5379417095,2.0986899995,0.7210105866
 C,0,-3.0726789518,0.7475260464,0.3324960493
 C,0,-4.2873714877,0.2940680679,0.6455685903
 H,0,-2.3834743931,2.7017498592,-0.1840388415
 H,0,-3.29278387,2.6320399921,1.3071005841
 H,0,-2.4238393246,0.1159042635,-0.2734630339
 H,0,-4.6336099302,-0.6815924728,0.3174593507
 H,0,-4.9848807784,0.8862789915,1.2332847929
 Recover connectivity data from disk.
                          Input orientation:                          
 ---------------------------------------------------------------------
 Center     Atomic      Atomic             Coordinates (Angstroms)
 Number     Number       Type             X           Y           Z
 ---------------------------------------------------------------------
      1          6           0        0.226802    2.103724   -0.517120
      2          6           0       -0.042313    1.389284    0.816118
      3          6           0       -1.219532    2.096490    1.549249
      4          6           0       -0.787844    3.550413    1.809598
      5          6           0       -0.157135    4.271261    0.628714
      6          1           0       -0.654971    2.007081   -1.161291
      7          1           0       -0.379983    0.376887    0.571302
      8          1           0       -1.618734    4.170179    2.157185
      9          1           0       -0.031670    3.562717    2.601874
     10          8           0        0.434249    3.543216   -0.343428
     11          8           0       -0.097819    5.481650    0.568963
     12          6           0        1.436790    1.616485   -1.314709
     13          6           0        1.304156    0.167582   -1.794820
     14          6           0        1.214512    1.262513    1.693548
     15          8           0       -1.439283    1.388165    2.762410
     16         14           0       -2.150067    1.719527    4.250526
     17          6           0       -1.012491    2.780948    5.320167
     18          6           0       -3.825637    2.575882    4.096344
     19          6           0       -2.359454    0.020233    5.027939
     20          1           0       -4.259427    2.707637    5.094824
     21          1           0       -3.753465    3.569687    3.641713
     22          1           0       -4.529519    1.981602    3.505494
     23          1           0       -1.394665   -0.486602    5.134713
     24          1           0       -2.808624    0.098065    6.024286
     25          1           0       -3.005950   -0.615663    4.414671
     26          1           0       -0.911625    3.801788    4.937729
     27          1           0       -1.416021    2.851100    6.337207
     28          1           0       -0.009827    2.346074    5.391221
     29          1           0        1.924836    0.559047    1.251562
     30          1           0        1.735511    2.217231    1.816222
     31          1           0        0.943831    0.888362    2.681677
     32          1           0        2.345742    1.741385   -0.717354
     33          1           0        1.539507    2.281779   -2.178929
     34          1           0        2.156663   -0.103351   -2.424072
     35          1           0        1.271439   -0.542015   -0.962051
     36          1           0        0.395276    0.026548   -2.390396
     37          6           0       -2.537942    2.098690    0.721011
     38          6           0       -3.072679    0.747526    0.332496
     39          6           0       -4.287371    0.294068    0.645569
     40          1           0       -2.383474    2.701750   -0.184039
     41          1           0       -3.292784    2.632040    1.307101
     42          1           0       -2.423839    0.115904   -0.273463
     43          1           0       -4.633610   -0.681592    0.317459
     44          1           0       -4.984881    0.886279    1.233285
 ---------------------------------------------------------------------
                    Distance matrix (angstroms):
                    1          2          3          4          5
     1  C    0.000000
     2  C    1.536349   0.000000
     3  C    2.522264   1.556749   0.000000
     4  C    2.921648   2.492649   1.538839   0.000000
     5  C    2.481644   2.890345   2.589537   1.520494   0.000000
     6  H    1.096275   2.160363   2.770154   3.350479   2.928902
     7  H    2.129511   1.094944   2.149013   3.430888   3.901167
     8  H    3.850733   3.466546   2.197529   1.093300   2.117242
     9  H    3.453056   2.812979   2.160753   1.095286   2.100271
    10  O    1.464698   2.492204   2.900040   2.475699   1.350868
    11  O    3.563051   4.100198   3.698446   2.396870   1.213313
    12  C    1.528928   2.603802   3.935569   4.295388   3.655861
    13  C    2.557705   3.181593   4.612211   5.367666   4.984884
    14  C    2.563251   1.538039   2.576996   3.042595   3.473881
    15  O    3.747423   2.395742   1.421891   2.451029   3.809043
    16  Si   5.341120   4.043123   2.881821   3.341546   4.858050
    17  C    6.005697   4.812945   3.838121   3.600922   4.996239
    18  C    6.158672   5.146012   3.675499   3.925189   5.325099
    19  C    6.463539   4.998288   4.208509   5.028901   6.501894
    20  H    7.210053   6.150563   4.710155   4.853336   6.262576
    21  H    5.940326   5.148864   3.601324   3.485962   4.743834
    22  H    6.230484   5.264846   3.846571   4.397427   5.712806
    23  H    6.425119   4.898783   4.422509   5.265179   6.668791
    24  H    7.485083   6.036948   5.152171   5.810839   7.318344
    25  H    6.493713   5.074696   4.331017   5.390973   6.806706
    26  H    5.825360   4.854231   3.805869   3.140655   4.399690
    27  H    7.087964   5.874215   4.851039   4.624164   6.015692
    28  H    5.918041   4.674192   4.035644   3.857948   5.139019
    29  H    2.897858   2.179123   3.512748   4.076555   4.301520
    30  H    2.780930   2.201446   2.969534   2.853898   3.035016
    31  H    3.496217   2.168805   2.724354   3.293286   4.107407
    32  H    2.159002   2.859775   4.239666   4.413324   3.804808
    33  H    2.125208   3.502714   4.641761   4.788981   3.836599
    34  H    3.497429   4.190738   5.659088   6.320132   5.814671
    35  H    2.879091   2.935599   4.412854   5.354498   5.266781
    36  H    2.802179   3.511447   4.734245   5.608685   5.238108
    37  C    3.029324   2.596241   1.556981   2.520985   3.224411
    38  C    3.667110   3.135102   2.595062   3.906210   4.583105
    39  C    5.000446   4.387381   3.671104   4.919903   5.733865
    40  H    2.698541   2.864248   2.173796   2.690883   2.842626
    41  H    3.999298   3.514409   2.154953   2.714892   3.602714
    42  H    3.322152   2.912104   2.948789   4.337220   4.818596
    43  H    5.663755   5.061344   4.570665   5.909845   6.683298
    44  H    5.630962   4.985581   3.967657   5.004485   5.927119
                    6          7          8          9         10
     6  H    0.000000
     7  H    2.394792   0.000000
     8  H    4.076777   4.294018   0.000000
     9  H    4.119456   3.793950   1.756568   0.000000
    10  O    2.053049   3.394900   3.295586   2.981991   0.000000
    11  O    3.921329   5.112555   2.560388   2.796320   2.207505
    12  C    2.133440   2.897293   5.283145   4.613438   2.379236
    13  C    2.761032   2.911816   6.338960   5.713344   3.776001
    14  C    3.492772   2.141538   4.086167   2.769290   3.155897
    15  O    4.048905   2.635479   2.852736   2.595347   4.219076
    16  Si   5.621900   4.297972   3.266510   3.256227   5.577539
    17  C    6.537277   5.360158   3.507414   2.993709   5.894949
    18  C    6.165986   5.397595   3.342535   4.195411   6.228478
    19  C    6.720074   4.889491   5.100191   4.884011   7.004839
    20  H    7.254092   6.398806   4.212127   4.981956   7.232107
    21  H    5.925475   5.567924   2.668613   3.864334   5.780917
    22  H    6.065613   5.329469   3.883359   4.852536   6.472390
    23  H    6.812142   4.753936   5.531861   4.966892   7.042329
    24  H    7.740483   5.975874   5.740420   5.606085   7.933037
    25  H    6.595244   4.759447   5.470365   5.439801   7.195190
    26  H    6.362774   5.574789   2.892601   2.507528   5.456085
    27  H    7.584131   6.359305   4.387898   4.046670   6.966593
    28  H    6.592916   5.219801   4.046595   3.043214   5.875079
    29  H    3.817599   2.410005   5.139777   3.830573   3.697446
    30  H    3.824154   3.067899   3.896308   2.355952   2.848791
    31  H    4.310000   2.543181   4.196684   2.847832   4.056992
    32  H    3.044988   3.309391   5.466176   4.470639   2.653341
    33  H    2.434498   3.857049   5.687040   5.192830   2.486339
    34  H    3.735482   3.954424   7.314684   6.594619   4.537978
    35  H    3.201350   2.433670   6.347244   5.590034   4.215768
    36  H    2.556605   3.081464   6.473516   6.132662   4.069220
    37  C    2.664026   2.764743   2.683022   3.458673   3.471830
    38  C    3.108568   2.728555   4.142221   4.724734   4.535559
    39  C    4.403804   3.908972   4.942757   5.711584   5.816251
    40  H    2.103642   3.160618   2.867480   3.746139   2.945002
    41  H    3.666277   3.756531   2.427130   3.630078   4.176752
    42  H    2.737460   2.226901   4.795142   5.086311   4.463186
    43  H    5.024464   4.390690   6.001146   6.664125   6.630910
    44  H    5.073294   4.680041   4.792550   5.794019   6.237973
                   11         12         13         14         15
    11  O    0.000000
    12  C    4.565385   0.000000
    13  C    5.982668   1.532129   0.000000
    14  C    4.559388   3.037155   3.657270   0.000000
    15  O    4.833979   4.994680   5.457530   2.863719   0.000000
    16  Si   5.649708   6.621782   7.133470   4.250576   1.682113
    17  C    5.541152   7.167742   7.925881   4.518579   2.943488
    18  C    5.897672   7.608750   8.174381   5.735981   2.980728
    19  C    7.404359   7.562319   7.745566   5.043279   2.801887
    20  H    6.745186   8.644050   9.212629   6.604625   3.890292
    21  H    5.144040   7.437732   8.167604   5.813708   3.299644
    22  H    6.365023   7.678835   8.088002   6.065817   3.233249
    23  H    7.625478   7.350861   7.465255   4.659273   3.023998
    24  H    8.129698   8.613360   8.835056   6.024687   3.765539
    25  H    7.773282   7.585922   7.599228   5.361377   3.033107
    26  H    4.750825   7.027345   7.965197   4.636064   3.291810
    27  H    6.475345   8.259214   8.985015   5.568383   3.862628
    28  H    5.752717   6.898875   7.623094   4.043005   3.141907
    29  H    5.365546   2.818175   3.133518   1.093058   3.779867
    30  H    3.946287   3.202008   4.174537   1.094520   3.414958
    31  H    5.162062   4.091976   4.548449   1.090714   2.436299
    32  H    4.649212   1.094818   2.173175   2.705817   5.153633
    33  H    4.524480   1.095465   2.161656   4.017536   5.838542
    34  H    6.725562   2.169503   1.093677   4.439372   6.484986
    35  H    6.364229   2.193361   1.094579   3.211194   4.994519
    36  H    6.225679   2.183977   1.095748   4.344808   5.636578
    37  C    4.173935   4.491677   4.981998   3.965593   2.424708
    38  C    5.596216   4.878902   4.900867   4.527437   2.997145
    39  C    6.668525   6.193343   6.102187   5.683913   3.713444
    40  H    3.676829   4.129241   4.755549   4.306070   3.361333
    41  H    4.344298   5.502191   6.068552   4.726591   2.664698
    42  H    5.908576   4.270878   4.026804   4.292021   3.435771
    43  H    7.656514   6.692898   6.359237   6.314562   4.523870
    44  H    6.741078   6.947181   7.016975   6.227830   3.893761
                   16         17         18         19         20
    16  Si   0.000000
    17  C    1.888075   0.000000
    18  C    1.888029   3.074669   0.000000
    19  C    1.880376   3.085652   3.090131   0.000000
    20  H    2.477620   3.255571   1.096583   3.291886   0.000000
    21  H    2.522823   3.309420   1.095238   4.057526   1.763706
    22  H    2.507099   4.037509   1.094405   3.297573   1.768063
    23  H    2.493877   3.295046   4.045571   1.095034   4.290875
    24  H    2.491799   3.304502   3.300130   1.095681   3.127075
    25  H    2.492507   4.041134   3.310465   1.094723   3.616371
    26  H    2.518293   1.094782   3.271428   4.050247   3.525566
    27  H    2.484657   1.096416   3.302039   3.258536   3.106292
    28  H    2.504870   1.095217   4.036078   3.325997   4.275240
    29  H    5.190889   5.488012   6.725202   5.736417   7.591587
    30  H    4.612078   4.488532   6.021126   5.648952   6.850475
    31  H    3.567117   3.790872   5.253269   4.143704   6.017219
    32  H    6.700194   6.986421   7.871086   7.622967   8.851175
    33  H    7.434176   7.937148   8.261375   8.500320   9.312168
    34  H    8.149912   8.850760   9.245649   8.714531  10.276267
    35  H    6.632664   7.464897   7.828718   7.027054   8.822497
    36  H    7.310731   8.307907   8.148190   7.913297   9.213198
    37  C    3.570951   4.893334   3.644001   4.785548   4.739680
    38  C    4.140888   5.766805   4.251633   4.804668   5.284900
    39  C    4.426705   6.225856   4.162658   4.795521   5.061815
    40  H    4.548033   5.672932   4.518556   5.861384   5.602287
    41  H    3.286675   4.618075   2.840240   4.640827   3.909854
    42  H    4.807601   6.354767   5.206893   5.302656   6.237384
    43  H    5.234727   7.080167   5.054100   5.277591   5.869421
    44  H    4.223057   6.006018   3.520754   4.694923   4.330717
                   21         22         23         24         25
    21  H    0.000000
    22  H    1.772803   0.000000
    23  H    4.924070   4.309721   0.000000
    24  H    4.315269   3.585178   1.769874   0.000000
    25  H    4.321273   3.145417   1.769564   1.771780   0.000000
    26  H    3.132025   4.295757   4.320002   4.300788   4.916672
    27  H    3.639464   4.297499   3.547774   3.101043   4.271120
    28  H    4.309622   4.910848   3.163483   3.645214   4.324614
    29  H    6.857104   6.983020   5.214531   6.737732   5.974768
    30  H    5.940574   6.493055   5.302933   6.545825   6.103989
    31  H    5.493247   5.641933   3.657386   5.087093   4.567946
    32  H    7.716507   8.072135   7.293919   8.643940   7.780357
    33  H    7.972085   8.320808   8.352404   9.537693   8.516567
    34  H    9.231174   9.176699   8.360266   9.801499   8.583906
    35  H    7.959297   7.744593   6.654451   8.115757   6.870998
    36  H    8.133402   7.927002   7.752063   9.004274   7.634769
    37  C    3.488815   3.425411   5.241334   5.674548   4.607588
    38  C    4.402156   3.703139   5.234510   5.734805   4.304287
    39  C    4.471199   3.329501   5.397186   5.581730   4.083599
    40  H    4.155306   4.328599   6.279526   6.745608   5.704457
    41  H    2.557699   2.604902   5.289556   5.376549   4.504092
    42  H    5.387497   4.711181   5.538103   6.309518   4.780444
    43  H    5.467970   4.155358   5.808160   6.042045   4.409168
    44  H    3.810196   2.563205   5.476823   5.320814   4.036485
                   26         27         28         29         30
    26  H    0.000000
    27  H    1.765435   0.000000
    28  H    1.771440   1.768424   0.000000
    29  H    5.669983   6.502201   4.906440   0.000000
    30  H    4.388844   5.547364   3.980379   1.761891   0.000000
    31  H    4.125596   4.773274   3.221182   1.765233   1.772474
    32  H    6.843659   8.071503   6.574879   2.334891   2.649117
    33  H    7.678887   9.032378   7.727337   3.858050   4.000477
    34  H    8.880350   9.912258   8.471845   3.742032   4.852068
    35  H    7.644724   8.486156   7.095545   2.557215   3.943045
    36  H    8.346367   9.350398   8.130059   3.985846   4.928586
    37  C    4.829716   5.776373   5.316336   4.750617   4.413155
    38  C    5.933535   6.574655   6.125938   5.084816   5.242153
    39  C    6.490177   6.868611   6.710390   6.247316   6.429938
    40  H    5.441409   6.594309   6.069944   5.021321   4.604546
    41  H    4.496631   5.373285   5.247821   5.614618   5.070998
    42  H    6.559653   7.224815   6.549027   4.629584   5.107108
    43  H    7.436448   7.685711   7.502612   6.739803   7.156477
    44  H    6.230129   6.530490   6.646096   6.917485   6.875675
                   31         32         33         34         35
    31  H    0.000000
    32  H    3.774442   0.000000
    33  H    5.091358   1.754491   0.000000
    34  H    5.340705   2.520256   2.475848   0.000000
    35  H    3.928111   2.535334   3.086497   1.764526   0.000000
    36  H    5.173931   3.089345   2.537726   1.766491   1.769490
    37  C    4.175146   5.103619   5.006871   6.064639   4.931268
    38  C    4.655194   5.607961   5.471147   5.972326   4.712762
    39  C    5.644856   6.924628   6.773574   7.148861   5.846696
    40  H    4.750964   4.855122   4.421057   5.787848   4.948303
    41  H    4.783176   6.056786   5.968762   7.148460   6.004649
    42  H    4.546509   5.058471   4.902033   5.064997   3.816031
    43  H    6.257965   7.460095   7.288409   7.345622   6.043694
    44  H    6.103070   7.633756   7.493882   8.084384   6.782408
                   36         37         38         39         40
    36  H    0.000000
    37  C    4.751672   0.000000
    38  C    4.467736   1.504171   0.000000
    39  C    5.587113   2.514529   1.333835   0.000000
    40  H    4.443667   1.098479   2.135603   3.179623   0.000000
    41  H    5.836254   1.094418   2.133001   2.625441   1.747913
    42  H    3.526585   2.221134   1.089553   2.085453   2.587706
    43  H    5.755314   3.504946   2.116391   1.086025   4.094095
    44  H    6.543415   2.778467   2.118299   1.087494   3.474486
                   41         42         43         44
    41  H    0.000000
    42  H    3.095833   0.000000
    43  H    3.709092   2.422453   0.000000
    44  H    2.432349   3.069642   1.849418   0.000000
 Stoichiometry    C14H26O3Si
 Framework group  C1[X(C14H26O3Si)]
 Deg. of freedom   126
 Full point group                 C1      NOp   1
 Largest Abelian subgroup         C1      NOp   1
 Largest concise Abelian subgroup C1      NOp   1
                         Standard orientation:                         
 ---------------------------------------------------------------------
 Center     Atomic      Atomic             Coordinates (Angstroms)
 Number     Number       Type             X           Y           Z
 ---------------------------------------------------------------------
      1          6           0       -2.536429    0.143332   -0.044119
      2          6           0       -1.226891    0.349166    0.732484
      3          6           0       -0.021600    0.026633   -0.198490
      4          6           0       -0.154601   -1.446205   -0.624031
      5          6           0       -1.538015   -1.875365   -1.086515
      6          1           0       -2.576402    0.855248   -0.876824
      7          1           0       -1.166515    1.414913    0.976289
      8          1           0        0.545959   -1.708849   -1.421238
      9          1           0        0.084112   -2.088475    0.230462
     10          8           0       -2.616328   -1.185411   -0.655183
     11          8           0       -1.712381   -2.864703   -1.766909
     12          6           0       -3.830045    0.296182    0.756391
     13          6           0       -4.045087    1.713124    1.298104
     14          6           0       -1.183618   -0.435131    2.054819
     15          8           0        1.160536    0.250101    0.559397
     16         14           0        2.763214   -0.255568    0.487123
     17          6           0        2.941606   -2.025101    1.120968
     18          6           0        3.496161   -0.147011   -1.249441
     19          6           0        3.653295    0.931804    1.641990
     20          1           0        4.554561   -0.431839   -1.215406
     21          1           0        3.003423   -0.818985   -1.960221
     22          1           0        3.439955    0.870647   -1.648107
     23          1           0        3.247247    0.873793    2.657302
     24          1           0        4.722522    0.698523    1.695379
     25          1           0        3.549931    1.966044    1.298359
     26          1           0        2.490872   -2.758734    0.444825
     27          1           0        4.003369   -2.280206    1.219503
     28          1           0        2.479511   -2.145305    2.106624
     29          1           0       -1.889531   -0.015431    2.776146
     30          1           0       -1.442296   -1.490376    1.922462
     31          1           0       -0.185498   -0.377209    2.490777
     32          1           0       -3.846096   -0.433458    1.572475
     33          1           0       -4.654631    0.030237    0.086037
     34          1           0       -5.017872    1.786958    1.792440
     35          1           0       -3.281921    1.995565    2.030162
     36          1           0       -4.026373    2.455202    0.492104
     37          6           0        0.019455    0.921518   -1.471943
     38          6           0        0.095226    2.404399   -1.231412
     39          6           0        1.060818    3.199403   -1.694787
     40          1           0       -0.862886    0.698297   -2.087006
     41          1           0        0.882500    0.606559   -2.066674
     42          1           0       -0.718258    2.854057   -0.662925
     43          1           0        1.054008    4.270052   -1.512811
     44          1           0        1.889053    2.810335   -2.282405
 ---------------------------------------------------------------------
 Rotational constants (GHZ):      0.5046307      0.2596342      0.2330896
 Standard basis: 6-311G(d) (5D, 7F)
 There are   428 symmetry adapted cartesian basis functions of A   symmetry.
 There are   410 symmetry adapted basis functions of A   symmetry.
   410 basis functions,   720 primitive gaussians,   428 cartesian basis functions
    74 alpha electrons       74 beta electrons
       nuclear repulsion energy      1625.9036085490 Hartrees.
 NAtoms=   44 NActive=   44 NUniq=   44 SFac= 1.00D+00 NAtFMM=   60 NAOKFM=F Big=F
 Integral buffers will be    131072 words long.
 Raffenetti 2 integral format.
 Two-electron integral symmetry is turned on.
 ------------------------------------------------------------------------------
 Polarizable Continuum Model (PCM)
 =================================
 Model                : PCM (using non-symmetric T matrix).
 Atomic radii         : UFF (Universal Force Field).
 Polarization charges : Total charges.
 Charge compensation  : None.
 Solution method      : On-the-fly selection.
 Cavity type          : Scaled VdW (van der Waals Surface) (Alpha=1.100).
 Cavity algorithm     : GePol (No added spheres)
                        Default sphere list used, NSphG=   44.
                        Lebedev-Laikov grids with approx.  5.0 points / Ang**2.
                        Smoothing algorithm: Karplus/York (Gamma=1.0000).
                        Polarization charges: spherical gaussians, with
                                              point-specific exponents (IZeta= 3).
                        Self-potential: point-specific (ISelfS= 7).
                        Self-field    : sphere-specific E.n sum rule (ISelfD= 2).
 Solvent              : Chloroform, Eps=   4.711300 Eps(inf)=   2.090627
 ------------------------------------------------------------------------------
 One-electron integrals computed using PRISM.
 NBasis=   410 RedAO= T EigKep=  1.09D-03  NBF=   410
 NBsUse=   410 1.00D-06 EigRej= -1.00D+00 NBFU=   410
 ExpMin= 6.54D-02 ExpMax= 6.94D+04 ExpMxC= 2.33D+03 IAcc=2 IRadAn=         4 AccDes= 0.00D+00
 Harris functional with IExCor=  908 and IRadAn=       4 diagonalized for initial guess.
 HarFok:  IExCor=  908 AccDes= 0.00D+00 IRadAn=         4 IDoV= 1 UseB2=F ITyADJ=14
 ICtDFT=  3500011 ScaDFX=  1.000000  1.000000  1.000000  1.000000
 FoFCou: FMM=F IPFlag=           0 FMFlag=      100000 FMFlg1=           0
         NFxFlg=           0 DoJE=T BraDBF=F KetDBF=T FulRan=T
         wScrn=  0.000000 ICntrl=     500 IOpCl=  0 I1Cent=   200000004 NGrid=           0
         NMat0=    1 NMatS0=      1 NMatT0=    0 NMatD0=    1 NMtDS0=    0 NMtDT0=    0
 Petite list used in FoFCou.
 Requested convergence on RMS density matrix=1.00D-08 within 128 cycles.
 Requested convergence on MAX density matrix=1.00D-06.
 Requested convergence on             energy=1.00D-06.
 No special actions if energy rises.
 Inv3:  Mode=1 IEnd=    24779628.
 Iteration    1 A*A^-1 deviation from unit magnitude is 4.55D-15 for   1427.
 Iteration    1 A*A^-1 deviation from orthogonality  is 2.60D-15 for   2863   2851.
 Iteration    1 A^-1*A deviation from unit magnitude is 5.11D-15 for   1414.
 Iteration    1 A^-1*A deviation from orthogonality  is 1.01D-11 for   2204   2027.
 Error on total polarization charges =  0.01114
 SCF Done:  E(RmPW1PW91) =  -1064.38203665     A.U. after   12 cycles
            NFock= 12  Conv=0.90D-08     -V/T= 2.0036
 DoSCS=F DFT=T ScalE2(SS,OS)=  1.000000  1.000000
 Range of M.O.s used for correlation:     1   410
 NBasis=   410 NAE=    74 NBE=    74 NFC=     0 NFV=     0
 NROrb=    410 NOA=    74 NOB=    74 NVA=   336 NVB=   336
 NEqPCM:  Using equilibrium solvation (IEInf=0, Eps=   4.7113, EpsInf=   2.0906)
          Differentiating once with respect to magnetic field using GIAOs.
          Electric field/nuclear overlap derivatives assumed to be zero.
 FoFJK:  IHMeth= 1 ICntrl=    6127 DoSepK=F KAlg= 0 I1Cent=   0 FoldK=F
 IRaf=         1 NMat=   1 IRICut=       1 DoRegI=T DoRafI=F ISym2E= 0.
          There are     3 degrees of freedom in the 1st order CPHF.  IDoFFX=0 NUNeed=     3.
      3 vectors produced by pass  0 Test12= 8.29D-13 3.33D-08 XBig12= 3.81D+01 9.75D-01.
 AX will form     3 AO Fock derivatives at one time.
      3 vectors produced by pass  1 Test12= 8.29D-13 3.33D-08 XBig12= 7.69D-02 9.52D-02.
      3 vectors produced by pass  2 Test12= 8.29D-13 3.33D-08 XBig12= 8.16D-04 1.04D-02.
      3 vectors produced by pass  3 Test12= 8.29D-13 3.33D-08 XBig12= 5.11D-06 6.43D-04.
      3 vectors produced by pass  4 Test12= 8.29D-13 3.33D-08 XBig12= 3.20D-08 4.81D-05.
      3 vectors produced by pass  5 Test12= 8.29D-13 3.33D-08 XBig12= 7.77D-11 1.51D-06.
      2 vectors produced by pass  6 Test12= 8.29D-13 3.33D-08 XBig12= 2.28D-13 9.34D-08.
 InvSVY:  IOpt=1 It=  1 EMax= 8.88D-16
 Solved reduced A of dimension    20 with     3 vectors.
 Calculating GIAO nuclear magnetic shielding tensors.
 SCF GIAO Magnetic shielding tensor (ppm):
      1  C    Isotropic =   103.8295   Anisotropy =    60.4330
   XX=    94.5677   YX=    -9.7713   ZX=    -6.5651
   XY=     0.2219   YY=   131.7430   ZY=    25.1461
   XZ=    -4.2961   YZ=    26.5401   ZZ=    85.1779
   Eigenvalues:    73.2359    94.1345   144.1182
      2  C    Isotropic =   149.4770   Anisotropy =    17.8653
   XX=   160.9717   YX=    -3.9695   ZX=     4.1972
   XY=    -2.0288   YY=   138.0554   ZY=    -3.2532
   XZ=    -4.7026   YZ=    -9.3079   ZZ=   149.4037
   Eigenvalues:   134.9540   152.0897   161.3872
      3  C    Isotropic =   107.1003   Anisotropy =    51.0068
   XX=   131.8236   YX=     3.6235   ZX=    19.4918
   XY=    -0.8082   YY=    84.2448   ZY=    -0.3791
   XZ=    16.9250   YZ=     0.6865   ZZ=   105.2323
   Eigenvalues:    84.1927    96.0032   141.1048
      4  C    Isotropic =   143.4986   Anisotropy =    37.0680
   XX=   151.2786   YX=    14.2627   ZX=     4.3434
   XY=    12.0423   YY=   149.7542   ZY=     4.9221
   XZ=    11.9370   YZ=    16.3150   ZZ=   129.4630
   Eigenvalues:   124.6370   137.6483   168.2106
      5  C    Isotropic =    13.1574   Anisotropy =    87.8997
   XX=   -67.6027   YX=    28.2280   ZX=     8.0860
   XY=    38.2938   YY=    44.2954   ZY=   -15.5337
   XZ=    17.0713   YZ=   -15.2179   ZZ=    62.7797
   Eigenvalues:   -78.6128    46.3279    71.7572
      6  H    Isotropic =    27.6728   Anisotropy =     3.0885
   XX=    28.8748   YX=    -1.1614   ZX=    -0.3385
   XY=    -1.5190   YY=    27.2460   ZY=    -1.9704
   XZ=    -0.2784   YZ=    -1.0548   ZZ=    26.8976
   Eigenvalues:    25.1894    28.0972    29.7318
      7  H    Isotropic =    29.8967   Anisotropy =     4.7661
   XX=    29.4393   YX=    -0.9248   ZX=    -2.2036
   XY=     0.1404   YY=    33.0317   ZY=    -0.0953
   XZ=    -2.6040   YZ=    -0.4503   ZZ=    27.2191
   Eigenvalues:    25.6551    30.9610    33.0741
      8  H    Isotropic =    29.7867   Anisotropy =     3.9873
   XX=    31.2054   YX=    -0.0095   ZX=    -1.8059
   XY=     1.0407   YY=    29.7855   ZY=     3.1796
   XZ=    -0.9637   YZ=     2.9452   ZZ=    28.3693
   Eigenvalues:    25.5813    31.3340    32.4449
      9  H    Isotropic =    29.3739   Anisotropy =     4.0905
   XX=    29.9262   YX=    -1.0469   ZX=     1.0732
   XY=    -1.4610   YY=    30.9592   ZY=    -1.1327
   XZ=     1.1878   YZ=    -0.2396   ZZ=    27.2362
   Eigenvalues:    26.8112    29.2095    32.1009
     10  O    Isotropic =   103.5003   Anisotropy =   179.0367
   XX=   190.5445   YX=   -60.5993   ZX=   -48.4230
   XY=   -71.8290   YY=    -8.4646   ZY=  -120.7659
   XZ=   -58.8890   YZ=  -144.3374   ZZ=   128.4210
   Eigenvalues:  -112.7527   200.3956   222.8581
     11  O    Isotropic =  -106.6486   Anisotropy =   570.6115
   XX=  -237.1165   YX=    86.5681   ZX=    18.6316
   XY=    75.8708   YY=  -148.7051   ZY=  -275.7421
   XZ=     6.5101   YZ=  -311.3923   ZZ=    65.8758
   Eigenvalues:  -390.0268  -203.6780   273.7590
     12  C    Isotropic =   159.5942   Anisotropy =    24.6891
   XX=   167.1129   YX=    -3.4778   ZX=   -12.4177
   XY=    -0.1424   YY=   161.3175   ZY=     7.6788
   XZ=   -10.9893   YZ=    12.0099   ZZ=   150.3521
   Eigenvalues:   141.0478   161.6812   176.0536
     13  C    Isotropic =   178.0728   Anisotropy =    17.5357
   XX=   173.7877   YX=    -3.0788   ZX=    -2.5196
   XY=    -5.4255   YY=   186.7973   ZY=     4.8944
   XZ=    -3.1787   YZ=     4.2950   ZZ=   173.6335
   Eigenvalues:   170.8487   173.6065   189.7633
     14  C    Isotropic =   181.2476   Anisotropy =    11.9184
   XX=   178.5290   YX=    -2.5141   ZX=    -1.6539
   XY=    -1.7142   YY=   180.8538   ZY=    -6.8572
   XZ=    -1.7759   YZ=    -5.8388   ZZ=   184.3598
   Eigenvalues:   174.2790   180.2705   189.1931
     15  O    Isotropic =   244.8287   Anisotropy =    28.1935
   XX=   230.9048   YX=     8.3379   ZX=    -6.3873
   XY=     6.8695   YY=   254.8880   ZY=    10.3156
   XZ=    -9.8760   YZ=    12.4349   ZZ=   248.6935
   Eigenvalues:   223.4568   247.4050   263.6244
     16  Si   Isotropic =   333.5193   Anisotropy =    42.6574
   XX=   361.1003   YX=   -11.6262   ZX=    -4.8146
   XY=     0.5870   YY=   323.3538   ZY=     6.7309
   XZ=     9.6734   YZ=     2.6840   ZZ=   316.1039
   Eigenvalues:   313.3295   325.2709   361.9576
     17  C    Isotropic =   185.2166   Anisotropy =    12.0446
   XX=   186.3230   YX=    -2.2508   ZX=     0.4565
   XY=    -0.2145   YY=   190.6996   ZY=    -5.9218
   XZ=    -0.1016   YZ=    -5.6789   ZZ=   178.6272
   Eigenvalues:   176.2832   186.1202   193.2463
     18  C    Isotropic =   184.9201   Anisotropy =     8.9152
   XX=   187.0032   YX=    -1.1106   ZX=    -3.6392
   XY=    -3.7718   YY=   179.1333   ZY=    -3.2829
   XZ=    -1.8955   YZ=    -3.4464   ZZ=   188.6238
   Eigenvalues:   177.0272   186.8694   190.8636
     19  C    Isotropic =   187.1515   Anisotropy =    12.1913
   XX=   189.8548   YX=     0.6392   ZX=     3.6578
   XY=     0.6048   YY=   187.3920   ZY=     7.6072
   XZ=     3.6979   YZ=     7.9248   ZZ=   184.2078
   Eigenvalues:   177.3696   188.8060   195.2790
     20  H    Isotropic =    32.1493   Anisotropy =    10.5078
   XX=    38.3198   YX=    -2.1825   ZX=    -2.1150
   XY=    -2.3408   YY=    28.5773   ZY=     0.1661
   XZ=    -1.5210   YZ=     0.0056   ZZ=    29.5509
   Eigenvalues:    28.0019    29.2915    39.1546
     21  H    Isotropic =    31.8239   Anisotropy =     6.3806
   XX=    31.5434   YX=     1.2185   ZX=     0.2240
   XY=     1.3401   YY=    30.4508   ZY=     3.2828
   XZ=     1.2162   YZ=     3.5469   ZZ=    33.4773
   Eigenvalues:    28.0862    31.3078    36.0776
     22  H    Isotropic =    31.7929   Anisotropy =     8.0019
   XX=    30.2903   YX=    -0.1432   ZX=    -1.4473
   XY=    -0.3090   YY=    34.5950   ZY=    -3.5363
   XZ=    -0.5869   YZ=    -4.6228   ZZ=    30.4935
   Eigenvalues:    27.6144    30.6368    37.1275
     23  H    Isotropic =    31.9887   Anisotropy =     8.3831
   XX=    30.2203   YX=     0.9273   ZX=    -0.7774
   XY=     0.6005   YY=    28.4664   ZY=     1.6224
   XZ=    -1.2090   YZ=     1.0176   ZZ=    37.2794
   Eigenvalues:    27.9099    30.4787    37.5775
     24  H    Isotropic =    32.4228   Anisotropy =    10.3772
   XX=    38.8197   YX=    -0.1813   ZX=     2.3220
   XY=    -0.4479   YY=    29.0676   ZY=     0.5734
   XZ=     2.2199   YZ=     0.5569   ZZ=    29.3810
   Eigenvalues:    28.3347    29.5927    39.3409
     25  H    Isotropic =    31.9800   Anisotropy =     8.1199
   XX=    29.5123   YX=     0.9390   ZX=     1.6169
   XY=     0.6378   YY=    37.2384   ZY=    -1.2620
   XZ=     1.5630   YZ=    -0.6040   ZZ=    29.1892
   Eigenvalues:    27.5980    30.9487    37.3932
     26  H    Isotropic =    31.9484   Anisotropy =     6.6059
   XX=    31.0599   YX=     0.4870   ZX=     2.4233
   XY=     1.2699   YY=    34.6567   ZY=     2.8501
   XZ=     2.3609   YZ=     2.0020   ZZ=    30.1285
   Eigenvalues:    27.8618    31.6310    36.3523
     27  H    Isotropic =    32.2569   Anisotropy =    10.4613
   XX=    37.0756   YX=    -3.8531   ZX=     1.6722
   XY=    -3.5934   YY=    31.1570   ZY=    -1.0961
   XZ=     1.5846   YZ=    -1.1642   ZZ=    28.5382
   Eigenvalues:    28.1056    29.4341    39.2311
     28  H    Isotropic =    31.9265   Anisotropy =     7.6767
   XX=    30.6144   YX=    -0.5424   ZX=    -1.9905
   XY=     0.0000   YY=    29.9626   ZY=    -3.3237
   XZ=    -2.1872   YZ=    -2.5881   ZZ=    35.2025
   Eigenvalues:    28.0693    30.6659    37.0443
     29  H    Isotropic =    31.1693   Anisotropy =     9.9472
   XX=    31.4675   YX=    -2.9132   ZX=    -3.2110
   XY=    -2.7575   YY=    26.7542   ZY=     0.7521
   XZ=    -3.8124   YZ=     0.8145   ZZ=    35.2861
   Eigenvalues:    25.3501    30.3570    37.8007
     30  H    Isotropic =    31.4640   Anisotropy =     7.5051
   XX=    28.9655   YX=     1.1266   ZX=    -0.8515
   XY=     1.2735   YY=    35.1572   ZY=    -2.6961
   XZ=    -0.9163   YZ=    -2.2419   ZZ=    30.2693
   Eigenvalues:    28.5186    29.4061    36.4674
     31  H    Isotropic =    30.7446   Anisotropy =     8.2660
   XX=    35.1548   YX=     0.1469   ZX=     1.8113
   XY=    -0.2784   YY=    24.2812   ZY=    -1.2590
   XZ=     1.9831   YZ=    -1.5021   ZZ=    32.7977
   Eigenvalues:    24.0580    31.9205    36.2552
     32  H    Isotropic =    30.2957   Anisotropy =     5.0822
   XX=    31.2911   YX=     0.3574   ZX=    -2.2484
   XY=     0.1052   YY=    30.4664   ZY=    -3.3008
   XZ=    -1.6782   YZ=    -2.4529   ZZ=    29.1298
   Eigenvalues:    26.4190    30.7843    33.6839
     33  H    Isotropic =    30.1451   Anisotropy =     9.0071
   XX=    34.7082   YX=     0.7470   ZX=     2.9374
   XY=     1.1419   YY=    27.8519   ZY=     3.5823
   XZ=     2.4605   YZ=     2.8292   ZZ=    27.8753
   Eigenvalues:    24.4919    29.7936    36.1498
     34  H    Isotropic =    30.9293   Anisotropy =    11.9275
   XX=    35.1310   YX=    -2.5689   ZX=    -4.4749
   XY=    -3.3639   YY=    29.0252   ZY=     2.2870
   XZ=    -4.8361   YZ=     1.9343   ZZ=    28.6317
   Eigenvalues:    26.0671    27.8398    38.8810
     35  H    Isotropic =    31.2007   Anisotropy =     6.2068
   XX=    31.8188   YX=    -1.0407   ZX=     1.9552
   XY=    -0.5322   YY=    30.7027   ZY=     4.5231
   XZ=     1.9779   YZ=     3.8632   ZZ=    31.0805
   Eigenvalues:    26.0416    32.2219    35.3385
     36  H    Isotropic =    31.2457   Anisotropy =     8.8882
   XX=    28.9839   YX=    -2.4734   ZX=    -0.3542
   XY=    -2.7111   YY=    34.9396   ZY=    -3.7572
   XZ=    -0.2056   YZ=    -2.8595   ZZ=    29.8136
   Eigenvalues:    26.9355    29.6304    37.1712
     37  C    Isotropic =   141.8812   Anisotropy =    34.3226
   XX=   122.4054   YX=    -1.2435   ZX=    -1.5318
   XY=    -2.4700   YY=   161.4468   ZY=    -8.0708
   XZ=    -2.6993   YZ=    -9.3152   ZZ=   141.7914
   Eigenvalues:   121.9624   138.9183   164.7629
     38  C    Isotropic =    47.6832   Anisotropy =   176.5328
   XX=    49.6239   YX=    38.2523   ZX=    77.1425
   XY=    40.7433   YY=   -14.9228   ZY=   -57.9310
   XZ=    77.0661   YZ=   -56.1520   ZZ=   108.3483
   Eigenvalues:   -75.7576    53.4354   165.3717
     39  C    Isotropic =    64.4744   Anisotropy =   141.9227
   XX=    76.0910   YX=    39.3139   ZX=    58.5577
   XY=    41.7060   YY=     3.7345   ZY=   -54.0372
   XZ=    56.2995   YZ=   -57.8921   ZZ=   113.5978
   Eigenvalues:   -49.7347    84.0684   159.0896
     40  H    Isotropic =    29.5673   Anisotropy =     4.8919
   XX=    29.9975   YX=     1.5410   ZX=     1.8980
   XY=     1.2969   YY=    27.3900   ZY=    -1.6443
   XZ=     2.1415   YZ=    -1.5565   ZZ=    31.3145
   Eigenvalues:    25.7765    30.0969    32.8286
     41  H    Isotropic =    29.7471   Anisotropy =     4.0213
   XX=    30.5978   YX=    -0.0973   ZX=    -1.5284
   XY=    -1.6565   YY=    28.8938   ZY=    -0.8413
   XZ=    -2.8994   YZ=    -1.2329   ZZ=    29.7497
   Eigenvalues:    26.9639    29.8494    32.4280
     42  H    Isotropic =    25.8776   Anisotropy =     7.3625
   XX=    25.5534   YX=     0.7835   ZX=    -1.0194
   XY=     2.3503   YY=    28.8172   ZY=    -3.2295
   XZ=    -0.8766   YZ=    -2.8434   ZZ=    23.2621
   Eigenvalues:    21.9073    24.9394    30.7859
     43  H    Isotropic =    26.6823   Anisotropy =     6.4868
   XX=    26.2773   YX=     3.2700   ZX=    -0.0193
   XY=     1.5952   YY=    28.6466   ZY=    -1.7253
   XZ=    -0.3673   YZ=    -3.1814   ZZ=    25.1230
   Eigenvalues:    23.4362    25.6038    31.0068
     44  H    Isotropic =    26.6997   Anisotropy =     6.4608
   XX=    27.0376   YX=     0.9248   ZX=    -0.7746
   XY=     3.2511   YY=    26.9958   ZY=    -4.0843
   XZ=    -0.3147   YZ=    -2.8726   ZZ=    26.0656
   Eigenvalues:    22.7730    26.3191    31.0069
 End of Minotr F.D. properties file   721 does not exist.
 End of Minotr F.D. properties file   722 does not exist.
 End of Minotr F.D. properties file   788 does not exist.

 **********************************************************************

            Population analysis using the SCF density.

 **********************************************************************

 Orbital symmetries:
       Occupied  (A) (A) (A) (A) (A) (A) (A) (A) (A) (A) (A) (A)
                 (A) (A) (A) (A) (A) (A) (A) (A) (A) (A) (A) (A)
                 (A) (A) (A) (A) (A) (A) (A) (A) (A) (A) (A) (A)
                 (A) (A) (A) (A) (A) (A) (A) (A) (A) (A) (A) (A)
                 (A) (A) (A) (A) (A) (A) (A) (A) (A) (A) (A) (A)
                 (A) (A) (A) (A) (A) (A) (A) (A) (A) (A) (A) (A)
                 (A) (A)
       Virtual   (A) (A) (A) (A) (A) (A) (A) (A) (A) (A) (A) (A)
                 (A) (A) (A) (A) (A) (A) (A) (A) (A) (A) (A) (A)
                 (A) (A) (A) (A) (A) (A) (A) (A) (A) (A) (A) (A)
                 (A) (A) (A) (A) (A) (A) (A) (A) (A) (A) (A) (A)
                 (A) (A) (A) (A) (A) (A) (A) (A) (A) (A) (A) (A)
                 (A) (A) (A) (A) (A) (A) (A) (A) (A) (A) (A) (A)
                 (A) (A) (A) (A) (A) (A) (A) (A) (A) (A) (A) (A)
                 (A) (A) (A) (A) (A) (A) (A) (A) (A) (A) (A) (A)
                 (A) (A) (A) (A) (A) (A) (A) (A) (A) (A) (A) (A)
                 (A) (A) (A) (A) (A) (A) (A) (A) (A) (A) (A) (A)
                 (A) (A) (A) (A) (A) (A) (A) (A) (A) (A) (A) (A)
                 (A) (A) (A) (A) (A) (A) (A) (A) (A) (A) (A) (A)
                 (A) (A) (A) (A) (A) (A) (A) (A) (A) (A) (A) (A)
                 (A) (A) (A) (A) (A) (A) (A) (A) (A) (A) (A) (A)
                 (A) (A) (A) (A) (A) (A) (A) (A) (A) (A) (A) (A)
                 (A) (A) (A) (A) (A) (A) (A) (A) (A) (A) (A) (A)
                 (A) (A) (A) (A) (A) (A) (A) (A) (A) (A) (A) (A)
                 (A) (A) (A) (A) (A) (A) (A) (A) (A) (A) (A) (A)
                 (A) (A) (A) (A) (A) (A) (A) (A) (A) (A) (A) (A)
                 (A) (A) (A) (A) (A) (A) (A) (A) (A) (A) (A) (A)
                 (A) (A) (A) (A) (A) (A) (A) (A) (A) (A) (A) (A)
                 (A) (A) (A) (A) (A) (A) (A) (A) (A) (A) (A) (A)
                 (A) (A) (A) (A) (A) (A) (A) (A) (A) (A) (A) (A)
                 (A) (A) (A) (A) (A) (A) (A) (A) (A) (A) (A) (A)
                 (A) (A) (A) (A) (A) (A) (A) (A) (A) (A) (A) (A)
                 (A) (A) (A) (A) (A) (A) (A) (A) (A) (A) (A) (A)
                 (A) (A) (A) (A) (A) (A) (A) (A) (A) (A) (A) (A)
                 (A) (A) (A) (A) (A) (A) (A) (A) (A) (A) (A) (A)
 The electronic state is 1-A.
 Alpha  occ. eigenvalues --  -66.27355 -19.25985 -19.20596 -19.19718 -10.37125
 Alpha  occ. eigenvalues --  -10.31828 -10.30575 -10.25303 -10.25248 -10.24423
 Alpha  occ. eigenvalues --  -10.24394 -10.23823 -10.22994 -10.22798 -10.22422
 Alpha  occ. eigenvalues --  -10.21008 -10.20768 -10.20570  -5.33089  -3.66977
 Alpha  occ. eigenvalues --   -3.66683  -3.66669  -1.13221  -1.04906  -1.04032
 Alpha  occ. eigenvalues --   -0.86022  -0.83151  -0.80961  -0.77421  -0.74045
 Alpha  occ. eigenvalues --   -0.73403  -0.71746  -0.70300  -0.70096  -0.67033
 Alpha  occ. eigenvalues --   -0.63456  -0.62124  -0.58612  -0.54715  -0.53404
 Alpha  occ. eigenvalues --   -0.53197  -0.51572  -0.50652  -0.48157  -0.47264
 Alpha  occ. eigenvalues --   -0.46640  -0.45572  -0.44824  -0.44255  -0.43435
 Alpha  occ. eigenvalues --   -0.42539  -0.42465  -0.42192  -0.42016  -0.40757
 Alpha  occ. eigenvalues --   -0.40704  -0.40322  -0.39788  -0.39656  -0.39205
 Alpha  occ. eigenvalues --   -0.38651  -0.37862  -0.37183  -0.36970  -0.36238
 Alpha  occ. eigenvalues --   -0.35612  -0.34206  -0.33409  -0.32160  -0.31149
 Alpha  occ. eigenvalues --   -0.30378  -0.29467  -0.28184  -0.27342
 Alpha virt. eigenvalues --    0.00009   0.01248   0.03804   0.04799   0.06449
 Alpha virt. eigenvalues --    0.06827   0.07250   0.07513   0.08296   0.08737
 Alpha virt. eigenvalues --    0.08931   0.09881   0.10762   0.10988   0.11880
 Alpha virt. eigenvalues --    0.12342   0.12556   0.13261   0.13381   0.13851
 Alpha virt. eigenvalues --    0.14061   0.14351   0.14734   0.15532   0.15905
 Alpha virt. eigenvalues --    0.16542   0.16893   0.16968   0.17729   0.18753
 Alpha virt. eigenvalues --    0.19041   0.19720   0.20132   0.20456   0.20948
 Alpha virt. eigenvalues --    0.21877   0.22415   0.23233   0.24324   0.24856
 Alpha virt. eigenvalues --    0.25660   0.25961   0.26799   0.27432   0.27825
 Alpha virt. eigenvalues --    0.29576   0.29801   0.31511   0.32073   0.32512
 Alpha virt. eigenvalues --    0.32696   0.33575   0.34654   0.35376   0.36219
 Alpha virt. eigenvalues --    0.36583   0.37672   0.38956   0.39840   0.40886
 Alpha virt. eigenvalues --    0.41318   0.42565   0.42855   0.43306   0.44707
 Alpha virt. eigenvalues --    0.44952   0.45634   0.46412   0.47453   0.48018
 Alpha virt. eigenvalues --    0.48608   0.50300   0.51000   0.51808   0.52500
 Alpha virt. eigenvalues --    0.52670   0.52870   0.54193   0.55245   0.55941
 Alpha virt. eigenvalues --    0.56150   0.57105   0.58118   0.58601   0.58867
 Alpha virt. eigenvalues --    0.59241   0.60112   0.60346   0.61004   0.61151
 Alpha virt. eigenvalues --    0.61461   0.61784   0.62241   0.63056   0.63291
 Alpha virt. eigenvalues --    0.63668   0.63931   0.64557   0.65116   0.65420
 Alpha virt. eigenvalues --    0.66406   0.67111   0.67839   0.68122   0.68520
 Alpha virt. eigenvalues --    0.68646   0.69057   0.69426   0.70934   0.71141
 Alpha virt. eigenvalues --    0.72191   0.72816   0.73253   0.74375   0.75024
 Alpha virt. eigenvalues --    0.75652   0.76527   0.77983   0.79006   0.80823
 Alpha virt. eigenvalues --    0.82113   0.84359   0.85253   0.87089   0.87784
 Alpha virt. eigenvalues --    0.88455   0.90920   0.91842   0.92932   0.94338
 Alpha virt. eigenvalues --    0.95233   0.95757   0.98295   0.98626   1.00348
 Alpha virt. eigenvalues --    1.01440   1.04437   1.05673   1.06120   1.07926
 Alpha virt. eigenvalues --    1.12404   1.16364   1.17309   1.19393   1.19443
 Alpha virt. eigenvalues --    1.20673   1.23495   1.24158   1.26098   1.27310
 Alpha virt. eigenvalues --    1.29207   1.29855   1.31123   1.31822   1.32650
 Alpha virt. eigenvalues --    1.33262   1.35472   1.37595   1.38566   1.41116
 Alpha virt. eigenvalues --    1.43097   1.43646   1.44842   1.47096   1.49308
 Alpha virt. eigenvalues --    1.50909   1.51827   1.52515   1.52860   1.53885
 Alpha virt. eigenvalues --    1.55074   1.55458   1.56257   1.56884   1.58018
 Alpha virt. eigenvalues --    1.58114   1.59438   1.59878   1.60122   1.60659
 Alpha virt. eigenvalues --    1.60889   1.61794   1.61983   1.63338   1.63852
 Alpha virt. eigenvalues --    1.64440   1.64930   1.66642   1.67530   1.68357
 Alpha virt. eigenvalues --    1.70963   1.71568   1.72439   1.72865   1.73546
 Alpha virt. eigenvalues --    1.75266   1.75493   1.77813   1.79512   1.80627
 Alpha virt. eigenvalues --    1.81472   1.82946   1.84746   1.85084   1.87719
 Alpha virt. eigenvalues --    1.89339   1.91776   1.93852   1.95439   1.97293
 Alpha virt. eigenvalues --    2.01258   2.03295   2.05947   2.09263   2.12212
 Alpha virt. eigenvalues --    2.14135   2.16610   2.21026   2.23435   2.24423
 Alpha virt. eigenvalues --    2.28402   2.29187   2.33878   2.35170   2.40359
 Alpha virt. eigenvalues --    2.41814   2.42119   2.42422   2.43074   2.44040
 Alpha virt. eigenvalues --    2.44466   2.45237   2.45766   2.47063   2.47684
 Alpha virt. eigenvalues --    2.48223   2.48864   2.50134   2.50895   2.52796
 Alpha virt. eigenvalues --    2.53477   2.53632   2.55541   2.58415   2.59319
 Alpha virt. eigenvalues --    2.61891   2.62801   2.66377   2.72061   2.80644
 Alpha virt. eigenvalues --    2.81073   2.86690   2.88241   2.89667   2.90933
 Alpha virt. eigenvalues --    2.91896   2.92838   2.93702   2.95929   2.96454
 Alpha virt. eigenvalues --    2.99343   3.01149   3.01989   3.03588   3.08073
 Alpha virt. eigenvalues --    3.09453   3.11081   3.12137   3.13646   3.15124
 Alpha virt. eigenvalues --    3.15836   3.17077   3.18046   3.19358   3.20592
 Alpha virt. eigenvalues --    3.21701   3.22403   3.23327   3.23647   3.24970
 Alpha virt. eigenvalues --    3.26136   3.27112   3.28444   3.29566   3.34243
 Alpha virt. eigenvalues --    3.34955   3.35736   3.36636   3.40671   3.41681
 Alpha virt. eigenvalues --    3.44254   3.50861   3.57022   3.60023   3.60311
 Alpha virt. eigenvalues --    3.77825   3.87879   3.90085   3.99516   4.02239
 Alpha virt. eigenvalues --    4.08112   4.14810   4.19616   4.22375   4.24490
 Alpha virt. eigenvalues --    4.94222   4.99799   5.01501   5.12444   5.14487
 Alpha virt. eigenvalues --    5.23077   5.52556   5.56133   5.76213   5.84997
 Alpha virt. eigenvalues --   11.52350  11.53598  11.56403  23.41091  23.48688
 Alpha virt. eigenvalues --   23.54301  23.54880  23.56994  23.60590  23.71147
 Alpha virt. eigenvalues --   23.75410  23.77547  23.79117  23.81200  23.86999
 Alpha virt. eigenvalues --   23.87884  24.29279  49.98752  50.06710  50.13254
 Alpha virt. eigenvalues --  141.27049
          Condensed to atoms (all electrons):
               1          2          3          4          5          6
     1  C    5.240275   0.224234  -0.061299  -0.002548  -0.051631   0.398201
     2  C    0.224234   5.649050   0.297407  -0.084673  -0.014774  -0.053264
     3  C   -0.061299   0.297407   5.150540   0.227879  -0.015643  -0.014675
     4  C   -0.002548  -0.084673   0.227879   5.905788   0.232336   0.002809
     5  C   -0.051631  -0.014774  -0.015643   0.232336   4.390225  -0.002404
     6  H    0.398201  -0.053264  -0.014675   0.002809  -0.002404   0.480047
     7  H   -0.028919   0.387982  -0.042892   0.008795   0.000281  -0.001840
     8  H   -0.000656   0.006824  -0.026800   0.357581  -0.023555   0.000205
     9  H    0.002027  -0.008295  -0.030648   0.370772  -0.022606  -0.000297
    10  O    0.215208  -0.039833   0.006144  -0.107126   0.349998  -0.032502
    11  O    0.002317  -0.000460   0.004289  -0.097434   0.670041   0.000020
    12  C    0.343520  -0.054485   0.008964  -0.001623   0.003274  -0.048827
    13  C   -0.076591   0.003376  -0.000517   0.000105  -0.000130   0.002007
    14  C   -0.075061   0.287055  -0.073598  -0.010482   0.001140   0.007358
    15  O    0.003538  -0.060059   0.223779  -0.024427   0.001962  -0.000057
    16  Si   0.000260   0.001322  -0.047455  -0.009449   0.001189  -0.000109
    17  C    0.000002  -0.000054  -0.000160   0.001168   0.000040   0.000001
    18  C    0.000008  -0.000277   0.000589  -0.000447   0.000036   0.000001
    19  C   -0.000002   0.000016   0.002471  -0.000136   0.000001   0.000000
    20  H    0.000000   0.000006  -0.000060   0.000031   0.000000   0.000000
    21  H    0.000005  -0.000075   0.000531   0.000853  -0.000018  -0.000002
    22  H    0.000003  -0.000082  -0.000365   0.000191   0.000003   0.000000
    23  H   -0.000001   0.000074  -0.000150  -0.000045   0.000000   0.000000
    24  H    0.000000   0.000002  -0.000066  -0.000002   0.000000   0.000000
    25  H   -0.000001  -0.000009  -0.000119  -0.000015   0.000000   0.000000
    26  H    0.000002   0.000007   0.000095   0.001269  -0.000004   0.000001
    27  H    0.000000   0.000001  -0.000042   0.000149  -0.000001   0.000000
    28  H   -0.000001   0.000073   0.000430  -0.000004  -0.000031   0.000000
    29  H   -0.006009  -0.031979   0.006897  -0.000407  -0.000075  -0.000322
    30  H   -0.005297  -0.042395  -0.010185   0.005686  -0.000770   0.000660
    31  H    0.006317  -0.037480  -0.005800  -0.000349  -0.000119  -0.000146
    32  H   -0.039693  -0.014037  -0.000509   0.000172  -0.000047   0.007432
    33  H   -0.050056   0.009657  -0.000200   0.000324  -0.000110  -0.007183
    34  H    0.007585  -0.000178   0.000012  -0.000002   0.000004  -0.000277
    35  H   -0.009234   0.004799   0.000151  -0.000012   0.000003  -0.000492
    36  H   -0.001868  -0.002327  -0.000119  -0.000001  -0.000007   0.005393
    37  C    0.002523  -0.098169   0.315413  -0.108323   0.001870   0.005385
    38  C   -0.002561  -0.004433  -0.067825   0.008456  -0.000166  -0.001291
    39  C    0.000025   0.000198  -0.000638  -0.000155   0.000007   0.000118
    40  H    0.000821  -0.004798  -0.040577  -0.003132   0.002807  -0.002470
    41  H   -0.000369   0.008256  -0.033089  -0.007480  -0.000116   0.000484
    42  H   -0.001045   0.004847  -0.005257  -0.000361  -0.000017   0.001487
    43  H    0.000004   0.000006  -0.000261   0.000015   0.000000  -0.000004
    44  H   -0.000011   0.000037   0.000208  -0.000095   0.000000   0.000002
               7          8          9         10         11         12
     1  C   -0.028919  -0.000656   0.002027   0.215208   0.002317   0.343520
     2  C    0.387982   0.006824  -0.008295  -0.039833  -0.000460  -0.054485
     3  C   -0.042892  -0.026800  -0.030648   0.006144   0.004289   0.008964
     4  C    0.008795   0.357581   0.370772  -0.107126  -0.097434  -0.001623
     5  C    0.000281  -0.023555  -0.022606   0.349998   0.670041   0.003274
     6  H   -0.001840   0.000205  -0.000297  -0.032502   0.000020  -0.048827
     7  H    0.450738  -0.000062  -0.000171   0.003045   0.000020  -0.007538
     8  H   -0.000062   0.417634  -0.015303   0.004569   0.011182   0.000026
     9  H   -0.000171  -0.015303   0.398056   0.000281   0.001866   0.000075
    10  O    0.003045   0.004569   0.000281   8.037889  -0.076973  -0.051868
    11  O    0.000020   0.011182   0.001866  -0.076973   7.866859  -0.000178
    12  C   -0.007538   0.000026   0.000075  -0.051868  -0.000178   5.312606
    13  C    0.001527  -0.000001  -0.000016   0.004071   0.000001   0.283739
    14  C   -0.033565   0.000045   0.000336  -0.000541  -0.000019  -0.009425
    15  O    0.004255  -0.001397  -0.002121  -0.000018  -0.000018  -0.000055
    16  Si   0.000049  -0.000956  -0.004893  -0.000319  -0.000768   0.000027
    17  C    0.000036  -0.000065  -0.001622   0.000000   0.000005   0.000000
    18  C    0.000006   0.001897   0.000141   0.000000   0.000003   0.000000
    19  C   -0.000047  -0.000010  -0.000090   0.000000   0.000000   0.000000
    20  H    0.000000   0.000006   0.000004   0.000000   0.000000   0.000000
    21  H    0.000000   0.002295  -0.000080   0.000000  -0.000021   0.000000
    22  H    0.000004  -0.000129   0.000007   0.000000   0.000000   0.000000
    23  H   -0.000017  -0.000006  -0.000018   0.000000   0.000000   0.000000
    24  H    0.000000  -0.000002   0.000002   0.000000   0.000000   0.000000
    25  H    0.000002  -0.000005  -0.000008   0.000000   0.000000   0.000000
    26  H    0.000006   0.000431   0.000255   0.000002   0.000005   0.000000
    27  H    0.000000   0.000003   0.000295   0.000000   0.000000   0.000000
    28  H    0.000006   0.000028  -0.000064   0.000000   0.000002   0.000000
    29  H   -0.007385   0.000016   0.000248  -0.000035   0.000000   0.001327
    30  H    0.006576   0.000409  -0.001156   0.007522  -0.000373  -0.004369
    31  H   -0.001717  -0.000149   0.000498  -0.000134   0.000005   0.000251
    32  H    0.000130   0.000004  -0.000094   0.003146  -0.000039   0.390048
    33  H   -0.000318  -0.000012   0.000011   0.004642  -0.000030   0.403287
    34  H    0.000202   0.000000   0.000000  -0.000124   0.000000  -0.033076
    35  H   -0.000322   0.000000   0.000000  -0.000056   0.000000  -0.033046
    36  H   -0.000275   0.000000   0.000000  -0.000047   0.000000  -0.042168
    37  C   -0.009876  -0.006287   0.005992  -0.004031  -0.000017  -0.000334
    38  C    0.006091   0.000104  -0.000172   0.000308  -0.000002   0.000007
    39  C    0.000760   0.000009   0.000004   0.000001   0.000000   0.000002
    40  H    0.000878  -0.000140   0.000139   0.001415  -0.000090   0.000948
    41  H   -0.000287   0.003056  -0.000112  -0.000190  -0.000030  -0.000003
    42  H    0.000868  -0.000010   0.000012   0.000003   0.000000  -0.000122
    43  H    0.000036   0.000002  -0.000001   0.000000   0.000000   0.000000
    44  H   -0.000028  -0.000017   0.000004   0.000000   0.000000   0.000000
              13         14         15         16         17         18
     1  C   -0.076591  -0.075061   0.003538   0.000260   0.000002   0.000008
     2  C    0.003376   0.287055  -0.060059   0.001322  -0.000054  -0.000277
     3  C   -0.000517  -0.073598   0.223779  -0.047455  -0.000160   0.000589
     4  C    0.000105  -0.010482  -0.024427  -0.009449   0.001168  -0.000447
     5  C   -0.000130   0.001140   0.001962   0.001189   0.000040   0.000036
     6  H    0.002007   0.007358  -0.000057  -0.000109   0.000001   0.000001
     7  H    0.001527  -0.033565   0.004255   0.000049   0.000036   0.000006
     8  H   -0.000001   0.000045  -0.001397  -0.000956  -0.000065   0.001897
     9  H   -0.000016   0.000336  -0.002121  -0.004893  -0.001622   0.000141
    10  O    0.004071  -0.000541  -0.000018  -0.000319   0.000000   0.000000
    11  O    0.000001  -0.000019  -0.000018  -0.000768   0.000005   0.000003
    12  C    0.283739  -0.009425  -0.000055   0.000027   0.000000   0.000000
    13  C    5.375348  -0.002361  -0.000001  -0.000006   0.000000   0.000000
    14  C   -0.002361   5.427986  -0.006408  -0.000202   0.000008  -0.000001
    15  O   -0.000001  -0.006408   8.276103   0.355082  -0.024658  -0.022838
    16  Si  -0.000006  -0.000202   0.355082  11.511284   0.311033   0.310800
    17  C    0.000000   0.000008  -0.024658   0.311033   5.777637  -0.055622
    18  C    0.000000  -0.000001  -0.022838   0.310800  -0.055622   5.797107
    19  C    0.000000  -0.000050  -0.030588   0.337133  -0.047238  -0.043155
    20  H    0.000000   0.000000   0.000827  -0.010438   0.000344   0.363033
    21  H    0.000000   0.000002  -0.001297  -0.026185  -0.000800   0.368401
    22  H    0.000000   0.000002  -0.001981  -0.025357   0.002079   0.366537
    23  H    0.000000   0.000024  -0.001659  -0.024160  -0.000577   0.002112
    24  H    0.000000  -0.000002   0.001206  -0.015266   0.000875   0.000137
    25  H    0.000000   0.000000  -0.001765  -0.023281   0.002123  -0.000891
    26  H    0.000000   0.000004  -0.001576  -0.027812   0.371732  -0.000901
    27  H    0.000000   0.000001   0.000887  -0.011034   0.362030   0.000625
    28  H    0.000000   0.000255  -0.002443  -0.026927   0.371423   0.002075
    29  H   -0.000178   0.388501   0.000172   0.000164  -0.000004   0.000000
    30  H    0.000688   0.389004   0.000229  -0.000637   0.000119   0.000003
    31  H   -0.000094   0.385249   0.007974   0.001907   0.000399   0.000052
    32  H   -0.035204   0.006412  -0.000003  -0.000003   0.000000   0.000000
    33  H   -0.036060  -0.000498   0.000004   0.000002   0.000000   0.000000
    34  H    0.389595  -0.000043   0.000000   0.000000   0.000000   0.000000
    35  H    0.382873  -0.000010  -0.000015  -0.000007   0.000000   0.000000
    36  H    0.384168   0.000468   0.000000   0.000000   0.000000   0.000000
    37  C    0.000018   0.008423  -0.062241  -0.014356  -0.000388  -0.000554
    38  C   -0.000023  -0.000266   0.004327   0.001461   0.000029   0.000031
    39  C    0.000002  -0.000008  -0.000089   0.000551  -0.000003  -0.001208
    40  H   -0.000061  -0.000442   0.004262   0.002195   0.000023  -0.000071
    41  H    0.000000  -0.000126  -0.003174  -0.003589  -0.000209  -0.002888
    42  H    0.000384   0.000338   0.000125  -0.000228   0.000000  -0.000013
    43  H    0.000000  -0.000002   0.000032   0.000183   0.000000   0.000034
    44  H    0.000000   0.000002   0.000076  -0.000959   0.000007   0.000702
              19         20         21         22         23         24
     1  C   -0.000002   0.000000   0.000005   0.000003  -0.000001   0.000000
     2  C    0.000016   0.000006  -0.000075  -0.000082   0.000074   0.000002
     3  C    0.002471  -0.000060   0.000531  -0.000365  -0.000150  -0.000066
     4  C   -0.000136   0.000031   0.000853   0.000191  -0.000045  -0.000002
     5  C    0.000001   0.000000  -0.000018   0.000003   0.000000   0.000000
     6  H    0.000000   0.000000  -0.000002   0.000000   0.000000   0.000000
     7  H   -0.000047   0.000000   0.000000   0.000004  -0.000017   0.000000
     8  H   -0.000010   0.000006   0.002295  -0.000129  -0.000006  -0.000002
     9  H   -0.000090   0.000004  -0.000080   0.000007  -0.000018   0.000002
    10  O    0.000000   0.000000   0.000000   0.000000   0.000000   0.000000
    11  O    0.000000   0.000000  -0.000021   0.000000   0.000000   0.000000
    12  C    0.000000   0.000000   0.000000   0.000000   0.000000   0.000000
    13  C    0.000000   0.000000   0.000000   0.000000   0.000000   0.000000
    14  C   -0.000050   0.000000   0.000002   0.000002   0.000024  -0.000002
    15  O   -0.030588   0.000827  -0.001297  -0.001981  -0.001659   0.001206
    16  Si   0.337133  -0.010438  -0.026185  -0.025357  -0.024160  -0.015266
    17  C   -0.047238   0.000344  -0.000800   0.002079  -0.000577   0.000875
    18  C   -0.043155   0.363033   0.368401   0.366537   0.002112   0.000137
    19  C    5.720811  -0.000485   0.002374  -0.000577   0.370144   0.360877
    20  H   -0.000485   0.445157  -0.021323  -0.020848  -0.000088   0.000592
    21  H    0.002374  -0.021323   0.449671  -0.019818  -0.000083  -0.000055
    22  H   -0.000577  -0.020848  -0.019818   0.442995  -0.000054  -0.000080
    23  H    0.370144  -0.000088  -0.000083  -0.000054   0.454527  -0.021901
    24  H    0.360877   0.000592  -0.000055  -0.000080  -0.021901   0.462877
    25  H    0.368923  -0.000022  -0.000065   0.001193  -0.019469  -0.021482
    26  H    0.002216   0.000054   0.001060  -0.000043  -0.000070  -0.000058
    27  H   -0.000618   0.000447  -0.000009  -0.000050  -0.000094   0.000697
    28  H   -0.000452  -0.000046  -0.000062  -0.000086   0.001117  -0.000003
    29  H   -0.000001   0.000000   0.000000   0.000000   0.000000   0.000000
    30  H    0.000003   0.000000  -0.000002   0.000000  -0.000006   0.000000
    31  H    0.000068   0.000000   0.000005   0.000001   0.000291  -0.000007
    32  H    0.000000   0.000000   0.000000   0.000000   0.000000   0.000000
    33  H    0.000000   0.000000   0.000000   0.000000   0.000000   0.000000
    34  H    0.000000   0.000000   0.000000   0.000000   0.000000   0.000000
    35  H    0.000000   0.000000   0.000000   0.000000   0.000000   0.000000
    36  H    0.000000   0.000000   0.000000   0.000000   0.000000   0.000000
    37  C   -0.000113   0.000217  -0.000387   0.000335  -0.000022   0.000002
    38  C   -0.000237  -0.000021   0.000192   0.000269  -0.000018  -0.000002
    39  C   -0.000156   0.000019  -0.000022   0.002104  -0.000009  -0.000011
    40  H   -0.000002  -0.000004  -0.000097   0.000008   0.000001   0.000000
    41  H   -0.000005   0.000448   0.000832  -0.001100  -0.000002   0.000003
    42  H    0.000004   0.000001   0.000001   0.000008   0.000000   0.000000
    43  H    0.000000  -0.000001  -0.000003  -0.000016   0.000000   0.000000
    44  H    0.000025   0.000019  -0.000036   0.003964  -0.000004   0.000000
              25         26         27         28         29         30
     1  C   -0.000001   0.000002   0.000000  -0.000001  -0.006009  -0.005297
     2  C   -0.000009   0.000007   0.000001   0.000073  -0.031979  -0.042395
     3  C   -0.000119   0.000095  -0.000042   0.000430   0.006897  -0.010185
     4  C   -0.000015   0.001269   0.000149  -0.000004  -0.000407   0.005686
     5  C    0.000000  -0.000004  -0.000001  -0.000031  -0.000075  -0.000770
     6  H    0.000000   0.000001   0.000000   0.000000  -0.000322   0.000660
     7  H    0.000002   0.000006   0.000000   0.000006  -0.007385   0.006576
     8  H   -0.000005   0.000431   0.000003   0.000028   0.000016   0.000409
     9  H   -0.000008   0.000255   0.000295  -0.000064   0.000248  -0.001156
    10  O    0.000000   0.000002   0.000000   0.000000  -0.000035   0.007522
    11  O    0.000000   0.000005   0.000000   0.000002   0.000000  -0.000373
    12  C    0.000000   0.000000   0.000000   0.000000   0.001327  -0.004369
    13  C    0.000000   0.000000   0.000000   0.000000  -0.000178   0.000688
    14  C    0.000000   0.000004   0.000001   0.000255   0.388501   0.389004
    15  O   -0.001765  -0.001576   0.000887  -0.002443   0.000172   0.000229
    16  Si  -0.023281  -0.027812  -0.011034  -0.026927   0.000164  -0.000637
    17  C    0.002123   0.371732   0.362030   0.371423  -0.000004   0.000119
    18  C   -0.000891  -0.000901   0.000625   0.002075   0.000000   0.000003
    19  C    0.368923   0.002216  -0.000618  -0.000452  -0.000001   0.000003
    20  H   -0.000022   0.000054   0.000447  -0.000046   0.000000   0.000000
    21  H   -0.000065   0.001060  -0.000009  -0.000062   0.000000  -0.000002
    22  H    0.001193  -0.000043  -0.000050  -0.000086   0.000000   0.000000
    23  H   -0.019469  -0.000070  -0.000094   0.001117   0.000000  -0.000006
    24  H   -0.021482  -0.000058   0.000697  -0.000003   0.000000   0.000000
    25  H    0.450837  -0.000091  -0.000034  -0.000070   0.000001  -0.000001
    26  H   -0.000091   0.452678  -0.022791  -0.019752  -0.000003   0.000010
    27  H   -0.000034  -0.022791   0.451505  -0.021208   0.000000  -0.000004
    28  H   -0.000070  -0.019752  -0.021208   0.451143  -0.000009   0.000054
    29  H    0.000001  -0.000003   0.000000  -0.000009   0.455304  -0.027601
    30  H   -0.000001   0.000010  -0.000004   0.000054  -0.027601   0.472473
    31  H   -0.000034  -0.000022   0.000009   0.000809  -0.023595  -0.023472
    32  H    0.000000   0.000000   0.000000   0.000000  -0.001908   0.001493
    33  H    0.000000   0.000000   0.000000   0.000000   0.000245  -0.000298
    34  H    0.000000   0.000000   0.000000   0.000000   0.000001   0.000005
    35  H    0.000000   0.000000   0.000000   0.000000   0.003225  -0.000126
    36  H    0.000000   0.000000   0.000000   0.000000  -0.000084  -0.000001
    37  C    0.000059  -0.000062   0.000005  -0.000058  -0.000146  -0.000033
    38  C    0.000477   0.000002   0.000000   0.000003  -0.000007  -0.000041
    39  C    0.000883   0.000000   0.000000   0.000000   0.000000   0.000000
    40  H    0.000003   0.000010   0.000000   0.000005  -0.000014  -0.000037
    41  H   -0.000006  -0.000055   0.000002  -0.000004   0.000014   0.000011
    42  H   -0.000007   0.000000   0.000000   0.000000   0.000014  -0.000006
    43  H    0.000019   0.000000   0.000000   0.000000   0.000000   0.000000
    44  H   -0.000009   0.000000   0.000000  -0.000001   0.000000   0.000000
              31         32         33         34         35         36
     1  C    0.006317  -0.039693  -0.050056   0.007585  -0.009234  -0.001868
     2  C   -0.037480  -0.014037   0.009657  -0.000178   0.004799  -0.002327
     3  C   -0.005800  -0.000509  -0.000200   0.000012   0.000151  -0.000119
     4  C   -0.000349   0.000172   0.000324  -0.000002  -0.000012  -0.000001
     5  C   -0.000119  -0.000047  -0.000110   0.000004   0.000003  -0.000007
     6  H   -0.000146   0.007432  -0.007183  -0.000277  -0.000492   0.005393
     7  H   -0.001717   0.000130  -0.000318   0.000202  -0.000322  -0.000275
     8  H   -0.000149   0.000004  -0.000012   0.000000   0.000000   0.000000
     9  H    0.000498  -0.000094   0.000011   0.000000   0.000000   0.000000
    10  O   -0.000134   0.003146   0.004642  -0.000124  -0.000056  -0.000047
    11  O    0.000005  -0.000039  -0.000030   0.000000   0.000000   0.000000
    12  C    0.000251   0.390048   0.403287  -0.033076  -0.033046  -0.042168
    13  C   -0.000094  -0.035204  -0.036060   0.389595   0.382873   0.384168
    14  C    0.385249   0.006412  -0.000498  -0.000043  -0.000010   0.000468
    15  O    0.007974  -0.000003   0.000004   0.000000  -0.000015   0.000000
    16  Si   0.001907  -0.000003   0.000002   0.000000  -0.000007   0.000000
    17  C    0.000399   0.000000   0.000000   0.000000   0.000000   0.000000
    18  C    0.000052   0.000000   0.000000   0.000000   0.000000   0.000000
    19  C    0.000068   0.000000   0.000000   0.000000   0.000000   0.000000
    20  H    0.000000   0.000000   0.000000   0.000000   0.000000   0.000000
    21  H    0.000005   0.000000   0.000000   0.000000   0.000000   0.000000
    22  H    0.000001   0.000000   0.000000   0.000000   0.000000   0.000000
    23  H    0.000291   0.000000   0.000000   0.000000   0.000000   0.000000
    24  H   -0.000007   0.000000   0.000000   0.000000   0.000000   0.000000
    25  H   -0.000034   0.000000   0.000000   0.000000   0.000000   0.000000
    26  H   -0.000022   0.000000   0.000000   0.000000   0.000000   0.000000
    27  H    0.000009   0.000000   0.000000   0.000000   0.000000   0.000000
    28  H    0.000809   0.000000   0.000000   0.000000   0.000000   0.000000
    29  H   -0.023595  -0.001908   0.000245   0.000001   0.003225  -0.000084
    30  H   -0.023472   0.001493  -0.000298   0.000005  -0.000126  -0.000001
    31  H    0.422352   0.000215   0.000021  -0.000004  -0.000046   0.000009
    32  H    0.000215   0.473535  -0.030481  -0.004056  -0.005314   0.006666
    33  H    0.000021  -0.030481   0.468053  -0.005582   0.005937  -0.004513
    34  H   -0.000004  -0.004056  -0.005582   0.458640  -0.026189  -0.025612
    35  H   -0.000046  -0.005314   0.005937  -0.026189   0.472117  -0.027641
    36  H    0.000009   0.006666  -0.004513  -0.025612  -0.027641   0.477263
    37  C    0.000362  -0.000004   0.000010   0.000000   0.000007  -0.000048
    38  C    0.000036  -0.000010  -0.000001   0.000000  -0.000014   0.000052
    39  C   -0.000010   0.000000   0.000000   0.000000   0.000000   0.000002
    40  H   -0.000035  -0.000040  -0.000011   0.000003   0.000002  -0.000068
    41  H   -0.000032   0.000003  -0.000003   0.000000   0.000001   0.000003
    42  H    0.000011   0.000011  -0.000007  -0.000010   0.000044   0.000520
    43  H    0.000000   0.000000   0.000000   0.000000   0.000000  -0.000001
    44  H    0.000000   0.000000   0.000000   0.000000   0.000000   0.000000
              37         38         39         40         41         42
     1  C    0.002523  -0.002561   0.000025   0.000821  -0.000369  -0.001045
     2  C   -0.098169  -0.004433   0.000198  -0.004798   0.008256   0.004847
     3  C    0.315413  -0.067825  -0.000638  -0.040577  -0.033089  -0.005257
     4  C   -0.108323   0.008456  -0.000155  -0.003132  -0.007480  -0.000361
     5  C    0.001870  -0.000166   0.000007   0.002807  -0.000116  -0.000017
     6  H    0.005385  -0.001291   0.000118  -0.002470   0.000484   0.001487
     7  H   -0.009876   0.006091   0.000760   0.000878  -0.000287   0.000868
     8  H   -0.006287   0.000104   0.000009  -0.000140   0.003056  -0.000010
     9  H    0.005992  -0.000172   0.000004   0.000139  -0.000112   0.000012
    10  O   -0.004031   0.000308   0.000001   0.001415  -0.000190   0.000003
    11  O   -0.000017  -0.000002   0.000000  -0.000090  -0.000030   0.000000
    12  C   -0.000334   0.000007   0.000002   0.000948  -0.000003  -0.000122
    13  C    0.000018  -0.000023   0.000002  -0.000061   0.000000   0.000384
    14  C    0.008423  -0.000266  -0.000008  -0.000442  -0.000126   0.000338
    15  O   -0.062241   0.004327  -0.000089   0.004262  -0.003174   0.000125
    16  Si  -0.014356   0.001461   0.000551   0.002195  -0.003589  -0.000228
    17  C   -0.000388   0.000029  -0.000003   0.000023  -0.000209   0.000000
    18  C   -0.000554   0.000031  -0.001208  -0.000071  -0.002888  -0.000013
    19  C   -0.000113  -0.000237  -0.000156  -0.000002  -0.000005   0.000004
    20  H    0.000217  -0.000021   0.000019  -0.000004   0.000448   0.000001
    21  H   -0.000387   0.000192  -0.000022  -0.000097   0.000832   0.000001
    22  H    0.000335   0.000269   0.002104   0.000008  -0.001100   0.000008
    23  H   -0.000022  -0.000018  -0.000009   0.000001  -0.000002   0.000000
    24  H    0.000002  -0.000002  -0.000011   0.000000   0.000003   0.000000
    25  H    0.000059   0.000477   0.000883   0.000003  -0.000006  -0.000007
    26  H   -0.000062   0.000002   0.000000   0.000010  -0.000055   0.000000
    27  H    0.000005   0.000000   0.000000   0.000000   0.000002   0.000000
    28  H   -0.000058   0.000003   0.000000   0.000005  -0.000004   0.000000
    29  H   -0.000146  -0.000007   0.000000  -0.000014   0.000014   0.000014
    30  H   -0.000033  -0.000041   0.000000  -0.000037   0.000011  -0.000006
    31  H    0.000362   0.000036  -0.000010  -0.000035  -0.000032   0.000011
    32  H   -0.000004  -0.000010   0.000000  -0.000040   0.000003   0.000011
    33  H    0.000010  -0.000001   0.000000  -0.000011  -0.000003  -0.000007
    34  H    0.000000   0.000000   0.000000   0.000003   0.000000  -0.000010
    35  H    0.000007  -0.000014   0.000000   0.000002   0.000001   0.000044
    36  H   -0.000048   0.000052   0.000002  -0.000068   0.000003   0.000520
    37  C    5.497395   0.319358  -0.048919   0.381227   0.396579  -0.049560
    38  C    0.319358   5.010855   0.642401  -0.035128  -0.046441   0.391614
    39  C   -0.048919   0.642401   5.129907  -0.002201   0.000517  -0.036554
    40  H    0.381227  -0.035128  -0.002201   0.465367  -0.025962  -0.001298
    41  H    0.396579  -0.046441   0.000517  -0.025962   0.444437   0.004908
    42  H   -0.049560   0.391614  -0.036554  -0.001298   0.004908   0.474595
    43  H    0.006434  -0.036987   0.392613  -0.000296   0.000088  -0.008547
    44  H   -0.009744  -0.041901   0.385570   0.000078   0.004642   0.006283
              43         44
     1  C    0.000004  -0.000011
     2  C    0.000006   0.000037
     3  C   -0.000261   0.000208
     4  C    0.000015  -0.000095
     5  C    0.000000   0.000000
     6  H   -0.000004   0.000002
     7  H    0.000036  -0.000028
     8  H    0.000002  -0.000017
     9  H   -0.000001   0.000004
    10  O    0.000000   0.000000
    11  O    0.000000   0.000000
    12  C    0.000000   0.000000
    13  C    0.000000   0.000000
    14  C   -0.000002   0.000002
    15  O    0.000032   0.000076
    16  Si   0.000183  -0.000959
    17  C    0.000000   0.000007
    18  C    0.000034   0.000702
    19  C    0.000000   0.000025
    20  H   -0.000001   0.000019
    21  H   -0.000003  -0.000036
    22  H   -0.000016   0.003964
    23  H    0.000000  -0.000004
    24  H    0.000000   0.000000
    25  H    0.000019  -0.000009
    26  H    0.000000   0.000000
    27  H    0.000000   0.000000
    28  H    0.000000  -0.000001
    29  H    0.000000   0.000000
    30  H    0.000000   0.000000
    31  H    0.000000   0.000000
    32  H    0.000000   0.000000
    33  H    0.000000   0.000000
    34  H    0.000000   0.000000
    35  H    0.000000   0.000000
    36  H   -0.000001   0.000000
    37  C    0.006434  -0.009744
    38  C   -0.036987  -0.041901
    39  C    0.392613   0.385570
    40  H   -0.000296   0.000078
    41  H    0.000088   0.004642
    42  H   -0.008547   0.006283
    43  H    0.454274  -0.034163
    44  H   -0.034163   0.459383
 Mulliken charges:
               1
     1  C   -0.034022
     2  C   -0.333097
     3  C    0.233151
     4  C   -0.665654
     5  C    0.477007
     6  H    0.254551
     7  H    0.262965
     8  H    0.269235
     9  H    0.306741
    10  O   -0.324447
    11  O   -0.380162
    12  C   -0.460985
    13  C   -0.676660
    14  C   -0.689500
    15  O   -0.635953
    16  Si   1.439752
    17  C   -1.069714
    18  C   -1.085466
    19  C   -1.041101
    20  H    0.242132
    21  H    0.244215
    22  H    0.250882
    23  H    0.240161
    24  H    0.231666
    25  H    0.242863
    26  H    0.243400
    27  H    0.239227
    28  H    0.243798
    29  H    0.243634
    30  H    0.231862
    31  H    0.266403
    32  H    0.242174
    33  H    0.243171
    34  H    0.239107
    35  H    0.233366
    36  H    0.230236
    37  C   -0.527942
    38  C   -0.148527
    39  C   -0.465712
    40  H    0.256779
    41  H    0.260988
    42  H    0.216966
    43  H    0.226546
    44  H    0.225964
 Sum of Mulliken charges =   0.00000
 Mulliken charges with hydrogens summed into heavy atoms:
               1
     1  C    0.220529
     2  C   -0.070132
     3  C    0.233151
     4  C   -0.089678
     5  C    0.477007
    10  O   -0.324447
    11  O   -0.380162
    12  C    0.024360
    13  C    0.026049
    14  C    0.052398
    15  O   -0.635953
    16  Si   1.439752
    17  C   -0.343288
    18  C   -0.348237
    19  C   -0.326411
    37  C   -0.010175
    38  C    0.068439
    39  C   -0.013202
 Electronic spatial extent (au):  <R**2>=           5522.0763
 Charge=              0.0000 electrons
 Dipole moment (field-independent basis, Debye):
    X=              1.8155    Y=              3.7026    Z=              2.1987  Tot=              4.6733
 Quadrupole moment (field-independent basis, Debye-Ang):
   XX=           -114.6852   YY=           -129.8094   ZZ=           -122.8706
   XY=            -13.3892   XZ=             -9.1214   YZ=             -9.0279
 Traceless Quadrupole moment (field-independent basis, Debye-Ang):
   XX=              7.7699   YY=             -7.3543   ZZ=             -0.4155
   XY=            -13.3892   XZ=             -9.1214   YZ=             -9.0279
 Octapole moment (field-independent basis, Debye-Ang**2):
  XXX=              1.9990  YYY=             39.9717  ZZZ=             11.2175  XYY=             21.9445
  XXY=             21.1875  XXZ=             15.9928  XZZ=              1.9692  YZZ=              7.2282
  YYZ=             24.1493  XYZ=             12.6500
 Hexadecapole moment (field-independent basis, Debye-Ang**3):
 XXXX=          -4260.4802 YYYY=          -1862.0847 ZZZZ=          -1274.6137 XXXY=            -83.3578
 XXXZ=            -36.2960 YYYX=            -27.6094 YYYZ=            -67.9111 ZZZX=             -9.2961
 ZZZY=              8.3666 XXYY=          -1098.5432 XXZZ=           -964.2584 YYZZ=           -577.9806
 XXYZ=            -40.9532 YYXZ=            -70.0723 ZZXY=            -21.9670
 N-N= 1.625903608549D+03 E-N=-5.746894012001D+03  KE= 1.060527650812D+03
 1\1\GINC-CPU-E-1146\SP\RmPW1PW91\6-311G(d)\C14H26O3Si1\KE291\06-Feb-20
 19\0\\# mPW1PW91/6-311g(d) geom=checkpoint nmr=giao scrf=(solvent=chlo
 roform)\\P_ng_4ginp008\\0,1\C,0,0.2268021359,2.103724271,-0.5171198864
 \C,0,-0.0423128499,1.3892841358,0.8161175499\C,0,-1.2195317994,2.09649
 04828,1.5492494241\C,0,-0.7878436668,3.5504129801,1.8095978763\C,0,-0.
 1571349749,4.2712612177,0.6287139115\H,0,-0.6549706961,2.0070812992,-1
 .1612912032\H,0,-0.3799829955,0.3768873563,0.5713023279\H,0,-1.6187339
 233,4.1701790874,2.1571847246\H,0,-0.0316699402,3.5627172827,2.6018741
 645\O,0,0.4342486912,3.5432163027,-0.3434284029\O,0,-0.0978189261,5.48
 16495643,0.5689628957\C,0,1.4367900157,1.6164853798,-1.3147085166\C,0,
 1.3041564404,0.1675821247,-1.794820405\C,0,1.2145122633,1.2625132667,1
 .693547629\O,0,-1.4392834631,1.3881646767,2.7624098682\Si,0,-2.1500673
 153,1.7195265415,4.2505255852\C,0,-1.0124912918,2.7809475354,5.3201673
 338\C,0,-3.8256373729,2.5758821507,4.0963436679\C,0,-2.3594539894,0.02
 0232939,5.0279390252\H,0,-4.2594265758,2.7076372551,5.094823829\H,0,-3
 .7534654624,3.5696874378,3.6417128959\H,0,-4.5295193212,1.9816016275,3
 .5054936809\H,0,-1.3946651167,-0.4866016426,5.1347130641\H,0,-2.808624
 0958,0.0980645641,6.0242855254\H,0,-3.0059501334,-0.6156632852,4.41467
 05829\H,0,-0.9116254525,3.8017877629,4.9377290367\H,0,-1.4160212215,2.
 851099818,6.337206904\H,0,-0.0098266759,2.3460735108,5.3912205225\H,0,
 1.9248356246,0.5590471322,1.2515620288\H,0,1.7355107969,2.2172311998,1
 .8162221502\H,0,0.9438305758,0.8883619058,2.6816768795\H,0,2.345741724
 ,1.7413853772,-0.7173541131\H,0,1.5395073821,2.2817788781,-2.178928976
 2\H,0,2.1566629476,-0.1033513968,-2.424071829\H,0,1.2714391186,-0.5420
 150722,-0.9620510157\H,0,0.395275989,0.0265475852,-2.3903958142\C,0,-2
 .5379417095,2.0986899995,0.7210105866\C,0,-3.0726789518,0.7475260464,0
 .3324960493\C,0,-4.2873714877,0.2940680679,0.6455685903\H,0,-2.3834743
 931,2.7017498592,-0.1840388415\H,0,-3.29278387,2.6320399921,1.30710058
 41\H,0,-2.4238393246,0.1159042635,-0.2734630339\H,0,-4.6336099302,-0.6
 815924728,0.3174593507\H,0,-4.9848807784,0.8862789915,1.2332847929\\Ve
 rsion=ES64L-G09RevD.01\State=1-A\HF=-1064.3820366\RMSD=8.953e-09\Dipol
 e=-0.4364437,-1.7381712,0.4108322\Quadrupole=5.1010664,-11.8099106,6.7
 088443,-6.1129571,-1.4041635,8.787649\PG=C01 [X(C14H26O3Si1)]\\@


 SEEN ON A WALL AT THE UNIVERSITY OF ILLINOIS AT CHICAGO CIRCLE:

 TO DO IS TO BE  -- SOCRATES
 TO BE IS TO DO  -- SARTRE
 OO BE DO BE DO  -- SINATRA
 Job cpu time:       0 days  0 hours 18 minutes 46.1 seconds.
 File lengths (MBytes):  RWF=    236 Int=      0 D2E=      0 Chk=     19 Scr=      1
 Normal termination of Gaussian 09 at Wed Feb  6 11:18:17 2019.
