 Entering Gaussian System, Link 0=/usr/local/Cluster-Apps/gaussian/g09/g09
 Initial command:
 /usr/local/Cluster-Apps/gaussian/g09/l1.exe "/home/ke291/rds/hpc-work/06Feb0927IP1/Gau-386509.inp" -scrdir="/home/ke291/rds/hpc-work/06Feb0927IP1/"
 Entering Link 1 = /usr/local/Cluster-Apps/gaussian/g09/l1.exe PID=    386514.
  
 Copyright (c) 1988,1990,1992,1993,1995,1998,2003,2009,2013,
            Gaussian, Inc.  All Rights Reserved.
  
 This is part of the Gaussian(R) 09 program.  It is based on
 the Gaussian(R) 03 system (copyright 2003, Gaussian, Inc.),
 the Gaussian(R) 98 system (copyright 1998, Gaussian, Inc.),
 the Gaussian(R) 94 system (copyright 1995, Gaussian, Inc.),
 the Gaussian 92(TM) system (copyright 1992, Gaussian, Inc.),
 the Gaussian 90(TM) system (copyright 1990, Gaussian, Inc.),
 the Gaussian 88(TM) system (copyright 1988, Gaussian, Inc.),
 the Gaussian 86(TM) system (copyright 1986, Carnegie Mellon
 University), and the Gaussian 82(TM) system (copyright 1983,
 Carnegie Mellon University). Gaussian is a federally registered
 trademark of Gaussian, Inc.
  
 This software contains proprietary and confidential information,
 including trade secrets, belonging to Gaussian, Inc.
  
 This software is provided under written license and may be
 used, copied, transmitted, or stored only in accord with that
 written license.
  
 The following legend is applicable only to US Government
 contracts under FAR:
  
                    RESTRICTED RIGHTS LEGEND
  
 Use, reproduction and disclosure by the US Government is
 subject to restrictions as set forth in subparagraphs (a)
 and (c) of the Commercial Computer Software - Restricted
 Rights clause in FAR 52.227-19.
  
 Gaussian, Inc.
 340 Quinnipiac St., Bldg. 40, Wallingford CT 06492
  
  
 ---------------------------------------------------------------
 Warning -- This program may not be used in any manner that
 competes with the business of Gaussian, Inc. or will provide
 assistance to any competitor of Gaussian, Inc.  The licensee
 of this program is prohibited from giving any competitor of
 Gaussian, Inc. access to this program.  By using this program,
 the user acknowledges that Gaussian, Inc. is engaged in the
 business of creating and licensing software in the field of
 computational chemistry and represents and warrants to the
 licensee that it is not a competitor of Gaussian, Inc. and that
 it will not use this program in any manner prohibited above.
 ---------------------------------------------------------------
  

 Cite this work as:
 Gaussian 09, Revision D.01,
 M. J. Frisch, G. W. Trucks, H. B. Schlegel, G. E. Scuseria, 
 M. A. Robb, J. R. Cheeseman, G. Scalmani, V. Barone, B. Mennucci, 
 G. A. Petersson, H. Nakatsuji, M. Caricato, X. Li, H. P. Hratchian, 
 A. F. Izmaylov, J. Bloino, G. Zheng, J. L. Sonnenberg, M. Hada, 
 M. Ehara, K. Toyota, R. Fukuda, J. Hasegawa, M. Ishida, T. Nakajima, 
 Y. Honda, O. Kitao, H. Nakai, T. Vreven, J. A. Montgomery, Jr., 
 J. E. Peralta, F. Ogliaro, M. Bearpark, J. J. Heyd, E. Brothers, 
 K. N. Kudin, V. N. Staroverov, T. Keith, R. Kobayashi, J. Normand, 
 K. Raghavachari, A. Rendell, J. C. Burant, S. S. Iyengar, J. Tomasi, 
 M. Cossi, N. Rega, J. M. Millam, M. Klene, J. E. Knox, J. B. Cross, 
 V. Bakken, C. Adamo, J. Jaramillo, R. Gomperts, R. E. Stratmann, 
 O. Yazyev, A. J. Austin, R. Cammi, C. Pomelli, J. W. Ochterski, 
 R. L. Martin, K. Morokuma, V. G. Zakrzewski, G. A. Voth, 
 P. Salvador, J. J. Dannenberg, S. Dapprich, A. D. Daniels, 
 O. Farkas, J. B. Foresman, J. V. Ortiz, J. Cioslowski, 
 and D. J. Fox, Gaussian, Inc., Wallingford CT, 2013.
 
 ******************************************
 Gaussian 09:  ES64L-G09RevD.01 24-Apr-2013
                 6-Feb-2019 
 ******************************************
 %nprocshared=2
 Will use up to    2 processors via shared memory.
 %mem=6000MB
 %chk=/home/ke291/rds/hpc-work/06Feb0927IP1/P_ng_4ginp004.chk
 ----------------------------------------------------------------------
 # mPW1PW91/6-311g(d) geom=checkpoint nmr=giao scrf=(solvent=chloroform
 )
 ----------------------------------------------------------------------
 1/29=2,38=1/1;
 2/12=2,40=1/2;
 3/5=4,6=6,7=1,11=2,14=-4,16=1,25=1,30=1,70=2201,72=7,74=-7/1,2,8,3;
 4//1;
 5/5=2,38=5,53=7/2;
 8/6=1,10=90,11=11/1;
 10/13=100,45=16/2;
 6/7=2,8=2,9=2,10=2,28=1/1;
 99/9=1/99;
 -------------
 P_ng_4ginp004
 -------------
 Structure from the checkpoint file:  "/home/ke291/rds/hpc-work/06Feb0927IP1/P_ng_4ginp004.chk"
 Charge =  0 Multiplicity = 1
 Redundant internal coordinates found in file.
 C,0,0.072129045,2.0477763952,-0.4875573732
 C,0,-0.1597305959,1.3411901577,0.8550239423
 C,0,-1.1773932407,2.1661667484,1.6909568366
 C,0,-0.576797783,3.5647572764,1.9183141504
 C,0,0.0878404368,4.2141328649,0.7139130027
 H,0,-0.8749710691,2.0859182611,-1.0369975909
 H,0,-0.6441325412,0.3860806626,0.6238577223
 H,0,-1.3175826566,4.2747585025,2.292877702
 H,0,0.2004094307,3.4926465589,2.6873056327
 O,0,0.4939951533,3.4399294284,-0.3142904698
 O,0,0.3288130704,5.4032653635,0.679384449
 C,0,1.1204929809,1.4236477552,-1.4088492091
 C,0,0.7550795697,0.0113714455,-1.8772675322
 C,0,1.1438001151,1.0492922861,1.6161772604
 O,0,-1.3366706428,1.4851681478,2.9332453458
 Si,0,-2.2430949955,1.7047534623,4.3356495078
 C,0,-1.2878017478,0.7455975604,5.6414549287
 C,0,-2.3965668589,3.518055079,4.8394178372
 C,0,-3.9692237927,0.9647863613,4.1485930668
 H,0,-2.9202471478,3.579668179,5.8008283179
 H,0,-1.4190755945,3.9942807483,4.9652809309
 H,0,-2.9718666826,4.1093683376,4.1193139471
 H,0,-4.5030959302,1.0237434578,5.1044789764
 H,0,-4.5749227134,1.4876266612,3.4016679299
 H,0,-3.9213592625,-0.0914157695,3.8626480667
 H,0,-1.8114937661,0.7661536111,6.603673071
 H,0,-1.1671215206,-0.3028126608,5.3491721839
 H,0,-0.2890200844,1.1678609066,5.793446886
 H,0,1.7324942652,0.2879740095,1.0976380398
 H,0,1.7750907427,1.9381527215,1.7146647218
 H,0,0.917534091,0.6772947533,2.6161080082
 H,0,2.0948714717,1.4222356456,-0.909228095
 H,0,1.218570552,2.0850055846,-2.276784427
 H,0,1.487624933,-0.3486299977,-2.6053223746
 H,0,0.7344536098,-0.704478813,-1.0495676701
 H,0,-0.2290182989,-0.0072866729,-2.3581542879
 C,0,-2.5541431543,2.3003995955,0.9812735494
 C,0,-3.1758034429,0.9998351084,0.5516854443
 C,0,-3.6669532782,0.7577762561,-0.6651750213
 H,0,-2.4731670206,2.9735518,0.1206575841
 H,0,-3.2202733676,2.8104778343,1.6907853478
 H,0,-3.2278742674,0.2210519209,1.3104524847
 H,0,-4.1222598136,-0.1956961304,-0.9162975037
 H,0,-3.6420291978,1.5078425957,-1.45277032
 Recover connectivity data from disk.
                          Input orientation:                          
 ---------------------------------------------------------------------
 Center     Atomic      Atomic             Coordinates (Angstroms)
 Number     Number       Type             X           Y           Z
 ---------------------------------------------------------------------
      1          6           0        0.072129    2.047776   -0.487557
      2          6           0       -0.159731    1.341190    0.855024
      3          6           0       -1.177393    2.166167    1.690957
      4          6           0       -0.576798    3.564757    1.918314
      5          6           0        0.087840    4.214133    0.713913
      6          1           0       -0.874971    2.085918   -1.036998
      7          1           0       -0.644133    0.386081    0.623858
      8          1           0       -1.317583    4.274759    2.292878
      9          1           0        0.200409    3.492647    2.687306
     10          8           0        0.493995    3.439929   -0.314290
     11          8           0        0.328813    5.403265    0.679384
     12          6           0        1.120493    1.423648   -1.408849
     13          6           0        0.755080    0.011371   -1.877268
     14          6           0        1.143800    1.049292    1.616177
     15          8           0       -1.336671    1.485168    2.933245
     16         14           0       -2.243095    1.704753    4.335650
     17          6           0       -1.287802    0.745598    5.641455
     18          6           0       -2.396567    3.518055    4.839418
     19          6           0       -3.969224    0.964786    4.148593
     20          1           0       -2.920247    3.579668    5.800828
     21          1           0       -1.419076    3.994281    4.965281
     22          1           0       -2.971867    4.109368    4.119314
     23          1           0       -4.503096    1.023743    5.104479
     24          1           0       -4.574923    1.487627    3.401668
     25          1           0       -3.921359   -0.091416    3.862648
     26          1           0       -1.811494    0.766154    6.603673
     27          1           0       -1.167122   -0.302813    5.349172
     28          1           0       -0.289020    1.167861    5.793447
     29          1           0        1.732494    0.287974    1.097638
     30          1           0        1.775091    1.938153    1.714665
     31          1           0        0.917534    0.677295    2.616108
     32          1           0        2.094871    1.422236   -0.909228
     33          1           0        1.218571    2.085006   -2.276784
     34          1           0        1.487625   -0.348630   -2.605322
     35          1           0        0.734454   -0.704479   -1.049568
     36          1           0       -0.229018   -0.007287   -2.358154
     37          6           0       -2.554143    2.300400    0.981274
     38          6           0       -3.175803    0.999835    0.551685
     39          6           0       -3.666953    0.757776   -0.665175
     40          1           0       -2.473167    2.973552    0.120658
     41          1           0       -3.220273    2.810478    1.690785
     42          1           0       -3.227874    0.221052    1.310452
     43          1           0       -4.122260   -0.195696   -0.916298
     44          1           0       -3.642029    1.507843   -1.452770
 ---------------------------------------------------------------------
                    Distance matrix (angstroms):
                    1          2          3          4          5
     1  C    0.000000
     2  C    1.534779   0.000000
     3  C    2.514209   1.554029   0.000000
     4  C    2.917286   2.499756   1.538981   0.000000
     5  C    2.477272   2.887041   2.597998   1.521189   0.000000
     6  H    1.095599   2.155443   2.745839   3.318093   2.919245
     7  H    2.123560   1.095590   2.142842   3.432803   3.898446
     8  H    3.823816   3.466103   2.197299   1.092319   2.114715
     9  H    3.490539   2.848811   2.156525   1.095718   2.104161
    10  O    1.464951   2.489851   2.904656   2.479255   1.349650
    11  O    3.561874   4.095116   3.710895   2.394826   1.213794
    12  C    1.528850   2.602094   3.929429   4.305248   3.655037
    13  C    2.558253   3.173439   4.594542   5.367205   4.982231
    14  C    2.563425   1.537450   2.577002   3.062566   3.456204
    15  O    3.742076   2.392681   1.425626   2.435607   3.794986
    16  Si   5.361087   4.072756   2.888429   3.475582   4.984699
    17  C    6.411698   4.953503   4.199600   4.723872   6.180922
    18  C    6.052507   5.061380   3.636866   3.441887   4.865860
    19  C    6.244941   5.049903   3.908658   4.821052   6.230173
    20  H    7.130554   6.090338   4.682582   4.534963   5.943723
    21  H    5.978797   5.051639   3.757873   3.190287   4.515890
    22  H    5.894008   5.121182   3.590694   3.298084   4.579251
    23  H    7.297410   6.084691   4.900772   5.658994   7.108611
    24  H    6.085633   5.099094   3.863956   4.743397   6.033177
    25  H    6.280794   5.024740   4.164405   5.322981   6.672778
    26  H    7.448231   6.008823   5.147514   5.595466   7.084159
    27  H    6.413145   4.890291   4.413446   5.203592   6.592674
    28  H    6.352613   4.943155   4.314655   4.565587   5.934936
    29  H    2.892501   2.179138   3.513841   4.091900   4.273974
    30  H    2.786015   2.199745   2.961370   2.866827   3.004730
    31  H    3.496522   2.168565   2.731550   3.325264   4.100727
    32  H    2.158841   2.863980   4.245246   4.441082   3.802295
    33  H    2.125335   3.501600   4.635752   4.797068   3.841355
    34  H    3.497331   4.188469   5.646640   6.327695   5.813392
    35  H    2.886077   2.934586   4.405251   5.362283   5.265046
    36  H    2.795194   3.485356   4.692400   5.582887   5.230524
    37  C    3.019700   2.582486   1.554705   2.527160   3.273215
    38  C    3.567530   3.050448   2.579130   3.898888   4.583601
    39  C    3.959341   3.866780   3.705783   4.909442   5.286470
    40  H    2.775881   2.925045   2.190146   2.679050   2.906846
    41  H    4.020796   3.496316   2.142078   2.758382   3.723996
    42  H    4.178491   3.297822   2.851794   4.310228   5.224416
    43  H    4.775970   4.604480   4.587855   5.894602   6.311032
    44  H    3.875324   4.180920   4.048560   4.999075   5.092195
                    6          7          8          9         10
     6  H    0.000000
     7  H    2.387713   0.000000
     8  H    4.009364   4.284971   0.000000
     9  H    4.123804   3.823849   1.752590   0.000000
    10  O    2.056628   3.391379   3.282694   3.016380   0.000000
    11  O    3.924265   5.110954   2.566614   2.774653   2.206663
    12  C    2.135124   2.884848   5.270278   4.680363   2.378224
    13  C    2.768910   2.890299   6.313676   5.767345   3.777045
    14  C    3.491327   2.149709   4.113388   2.829714   3.140716
    15  O    4.041893   2.649693   2.862211   2.540290   4.209384
    16  Si   5.557192   4.251232   3.410926   3.447363   5.667843
    17  C    6.824120   5.071474   4.865063   4.299773   6.775332
    18  C    6.236868   5.536356   2.867346   3.372909   5.909498
    19  C    6.141798   4.880050   4.629341   5.090312   6.779674
    20  H    7.291797   6.494669   3.918852   4.409092   7.005088
    21  H    6.321807   5.698035   2.688998   2.839637   5.642785
    22  H    5.922742   5.612435   2.469793   3.534732   5.667203
    23  H    7.211743   5.947620   5.349925   5.836195   7.757057
    24  H    5.809419   4.937686   4.428068   5.228213   6.581319
    25  H    6.166668   4.632276   5.320461   5.587120   7.029407
    26  H    7.810167   6.104538   5.580073   5.178750   7.766761
    27  H    6.824555   4.803820   5.506154   4.833341   6.988722
    28  H    6.916729   5.240414   4.792154   3.910535   6.563525
    29  H    3.819443   2.425376   5.160040   3.891562   3.669093
    30  H    3.823128   3.074318   3.919016   2.417044   2.830759
    31  H    4.306097   2.548072   4.247584   2.906122   4.049540
    32  H    3.045778   3.305467   5.480439   4.561868   2.643453
    33  H    2.433103   3.843141   5.666472   5.259306   2.492431
    34  H    3.737449   3.938501   7.296388   6.665151   4.537544
    35  H    3.221292   2.426968   6.338422   5.644935   4.215990
    36  H    2.558167   3.036355   6.415059   6.155535   4.072275
    37  C    2.634206   2.727729   2.673477   3.452471   3.502594
    38  C    2.999553   2.606005   4.148477   4.708906   4.491258
    39  C    3.114061   3.307145   5.161277   5.803028   4.962918
    40  H    2.163860   3.208362   2.783353   3.742346   3.034920
    41  H    3.669636   3.694934   2.475250   3.627599   4.267591
    42  H    3.811089   2.678501   4.587691   4.934793   5.182014
    43  H    3.970544   3.848105   6.176567   6.728692   5.906775
    44  H    2.857210   3.815510   5.204686   5.986987   4.704869
                   11         12         13         14         15
    11  O    0.000000
    12  C    4.563423   0.000000
    13  C    5.982532   1.532145   0.000000
    14  C    4.527567   3.048191   3.665043   0.000000
    15  O    4.817179   4.989511   5.448718   2.842075   0.000000
    16  Si   5.801894   6.662733   7.103304   4.392746   1.684209
    17  C    6.994959   7.481071   7.825832   4.712513   2.807802
    18  C    5.318608   7.469745   8.206313   5.386861   2.981527
    19  C    7.085804   7.549896   7.716154   5.706425   2.945879
    20  H    6.333331   8.541397   9.230055   6.358505   3.888146
    21  H    4.838312   7.327148   8.210419   5.143713   3.229800
    22  H    4.939815   7.383840   8.163498   5.706879   3.311654
    23  H    7.880928   8.614413   8.798755   6.637495   3.866965
    24  H    6.840298   7.455396   7.645614   6.006988   3.271957
    25  H    7.641247   7.450126   7.404477   5.657180   3.167021
    26  H    7.821823   8.557415   8.892882   5.804226   3.770209
    27  H    7.523567   7.340620   7.484317   4.593887   3.010370
    28  H    6.668883   7.343380   7.827354   4.417761   3.062517
    29  H    5.320852   2.819003   3.143551   1.093183   3.771273
    30  H    3.894936   3.232577   4.201772   1.094669   3.372416
    31  H    5.141234   4.098599   4.545357   1.090614   2.415507
    32  H    4.635866   1.095005   2.173173   2.724206   5.152091
    33  H    4.532268   1.095593   2.162035   4.029075   5.833821
    34  H    6.724317   2.169632   1.093749   4.460209   6.481913
    35  H    6.360689   2.192495   1.094511   3.217060   4.994688
    36  H    6.229919   2.184018   1.095467   4.335470   5.608318
    37  C    4.246216   4.470384   4.935774   3.955143   2.440704
    38  C    5.629284   4.741464   4.725327   4.449108   3.047915
    39  C    6.273321   4.890407   4.645499   5.332251   4.348327
    40  H    3.750570   4.201903   4.815371   4.361399   3.378988
    41  H    4.510154   5.511196   6.030707   4.706642   2.616890
    42  H    6.316930   5.267745   5.105825   4.459931   2.794297
    43  H    7.328480   5.509205   4.975418   5.974514   5.040217
    44  H    5.957180   4.763469   4.664139   5.703759   4.955030
                   16         17         18         19         20
    16  Si   0.000000
    17  C    1.880876   0.000000
    18  C    1.888226   3.091787   0.000000
    19  C    1.887343   3.076801   3.077283   0.000000
    20  H    2.473982   3.274482   1.096516   3.266166   0.000000
    21  H    2.513440   3.320901   1.094587   4.043275   1.767359
    22  H    2.521920   4.058071   1.095067   3.299087   1.763728
    23  H    2.482434   3.271670   3.275563   1.096455   3.085946
    24  H    2.521287   4.046284   3.306811   1.094591   3.587556
    25  H    2.503303   3.286392   4.038236   1.095271   4.270319
    26  H    2.492224   1.095691   3.320824   3.274549   3.128859
    27  H    2.493044   1.095060   4.046037   3.301511   4.283818
    28  H    2.496364   1.094976   3.297778   4.036172   3.569345
    29  H    5.319520   5.475206   6.440767   6.501999   7.389401
    30  H    4.803109   5.120857   5.446366   6.314159   6.437197
    31  H    3.741934   3.744449   4.898601   5.129480   5.770163
    32  H    6.812232   7.403497   7.590284   7.909745   8.650479
    33  H    7.473420   8.412754   8.109450   8.333881   9.198459
    34  H    8.143202   8.769815   9.244585   8.781665  10.272499
    35  H    6.608386   7.138769   7.893873   7.206379   8.867845
    36  H    7.196846   8.104419   8.302490   7.567815   9.310100
    37  C    3.421021   5.073295   4.048801   3.717288   4.999867
    38  C    3.960459   5.434606   5.033219   3.683543   5.854430
    39  C    5.285110   6.740482   6.287572   4.827689   7.094353
    40  H    4.407827   6.070261   4.750689   4.743162   5.729886
    41  H    3.028665   4.858597   3.330622   3.163593   4.192150
    42  H    3.510410   4.774580   4.900500   3.026183   5.615907
    43  H    5.892870   7.205852   7.063867   5.198390   7.798589
    44  H    5.958321   7.513417   6.721887   5.637130   7.578135
                   21         22         23         24         25
    21  H    0.000000
    22  H    1.772023   0.000000
    23  H    4.284233   3.582777   0.000000
    24  H    4.322912   3.155683   1.766327   0.000000
    25  H    4.916314   4.314395   1.767524   1.770035   0.000000
    26  H    3.641308   4.323840   3.091708   4.290676   3.563731
    27  H    4.321558   4.923109   3.598382   4.314111   3.136920
    28  H    3.154605   4.318895   4.272456   4.918518   4.302052
    29  H    6.215124   6.772340   7.448404   6.821380   6.305179
    30  H    4.999687   5.747184   7.193234   6.585714   6.417361
    31  H    4.688364   5.400574   5.974550   5.607212   5.055657
    32  H    7.312530   7.627500   8.936254   7.941930   7.826684
    33  H    7.940404   7.909986   9.399298   8.134264   8.297489
    34  H    9.199120   9.218544   9.859675   8.729849   8.435515
    35  H    7.930601   7.976670   8.263835   7.266932   6.795756
    36  H    8.429797   8.150317   8.661504   7.368664   7.234559
    37  C    4.475481   3.646116   4.735936   3.256142   3.986525
    38  C    5.615392   4.736957   4.742384   3.212145   3.564990
    39  C    6.872405   5.882827   5.835990   4.230402   4.613787
    40  H    5.061953   4.186649   5.723709   4.170177   5.049137
    41  H    3.920207   2.765244   4.060955   2.551887   3.691815
    42  H    5.555788   4.803566   4.082296   2.791403   2.663130
    43  H    7.710777   6.724163   6.154821   4.656534   4.784303
    44  H    7.232930   6.185885   6.631237   4.943306   5.557817
                   26         27         28         29         30
    26  H    0.000000
    27  H    1.769654   0.000000
    28  H    1.770808   1.769554   0.000000
    29  H    6.565434   5.179995   5.187614   0.000000
    30  H    6.175724   5.185382   4.635770   1.762279   0.000000
    31  H    4.832822   3.574359   3.433935   1.766772   1.771374
    32  H    8.493163   7.265257   7.118532   2.333533   2.693185
    33  H    9.475399   8.339569   8.260909   3.857482   4.032734
    34  H    9.845432   8.385926   8.717542   3.765255   4.896356
    35  H    8.198579   6.687391   7.167985   2.567399   3.963257
    36  H    9.133279   7.769830   8.236090   3.984622   4.938526
    37  C    5.875101   5.270586   5.437871   4.736946   4.405832
    38  C    6.208261   5.361676   5.986469   4.989609   5.171490
    39  C    7.501930   6.598968   7.300164   5.699321   6.055805
    40  H    6.880400   6.306955   6.341258   5.084723   4.654095
    41  H    5.504579   5.224156   5.303043   5.589701   5.071014
    42  H    5.506492   4.564252   5.443395   4.965383   5.304855
    43  H    7.925576   6.928234   7.846890   6.210315   6.801031
    44  H    8.295013   7.461237   7.991616   6.072739   6.289913
                   31         32         33         34         35
    31  H    0.000000
    32  H    3.790654   0.000000
    33  H    5.100262   1.754246   0.000000
    34  H    5.351716   2.526153   2.470407   0.000000
    35  H    3.921734   2.528507   3.085718   1.764729   0.000000
    36  H    5.150390   3.089237   2.545549   1.767617   1.768263
    37  C    4.166497   5.094949   4.989459   6.018049   4.895761
    38  C    4.595790   5.485682   5.337449   5.790736   4.556183
    39  C    5.638335   5.805144   5.312924   5.617649   4.653851
    40  H    4.795511   4.932973   4.490676   5.844291   5.018582
    41  H    4.746382   6.077668   5.997604   7.113425   5.958550
    42  H    4.370046   5.890793   6.009448   6.155791   4.703865
    43  H    6.216070   6.424210   5.964645   5.860631   4.885109
    44  H    6.167268   5.763228   4.963622   5.575681   4.920421
                   36         37         38         39         40
    36  H    0.000000
    37  C    4.677970   0.000000
    38  C    4.262042   1.504153   0.000000
    39  C    3.907800   2.515716   1.334380   0.000000
    40  H    4.479521   1.095605   2.138934   2.636725   0.000000
    41  H    5.768996   1.098779   2.139615   3.156526   1.746443
    42  H    4.743833   2.210421   1.088550   2.093793   3.092160
    43  H    4.155933   3.505747   2.116613   1.086037   3.720069
    44  H    3.842393   2.781405   2.119736   1.087900   2.447492
                   41         42         43         44
    41  H    0.000000
    42  H    2.617219   0.000000
    43  H    4.080140   2.435574   0.000000
    44  H    3.428801   3.076159   1.849451   0.000000
 Stoichiometry    C14H26O3Si
 Framework group  C1[X(C14H26O3Si)]
 Deg. of freedom   126
 Full point group                 C1      NOp   1
 Largest Abelian subgroup         C1      NOp   1
 Largest concise Abelian subgroup C1      NOp   1
                         Standard orientation:                         
 ---------------------------------------------------------------------
 Center     Atomic      Atomic             Coordinates (Angstroms)
 Number     Number       Type             X           Y           Z
 ---------------------------------------------------------------------
      1          6           0       -2.443277    0.007076    0.030721
      2          6           0       -1.130563    0.255321    0.786170
      3          6           0        0.062517   -0.102815   -0.142973
      4          6           0       -0.064678   -1.588958   -0.521998
      5          6           0       -1.459300   -2.070657   -0.892150
      6          1           0       -2.478759    0.664389   -0.845076
      7          1           0       -1.075275    1.334530    0.966641
      8          1           0        0.594638   -1.860444   -1.349500
      9          1           0        0.245581   -2.197831    0.334513
     10          8           0       -2.533115   -1.360193   -0.487533
     11          8           0       -1.640034   -3.115891   -1.482165
     12          6           0       -3.732116    0.219389    0.825201
     13          6           0       -3.928137    1.665741    1.291150
     14          6           0       -1.070117   -0.464524    2.143343
     15          8           0        1.251789    0.118179    0.611482
     16         14           0        2.908920   -0.009015    0.338908
     17          6           0        3.633983   -0.194344    2.064489
     18          6           0        3.369937   -1.498294   -0.726413
     19          6           0        3.585327    1.560087   -0.462626
     20          1           0        4.462336   -1.569090   -0.789655
     21          1           0        3.002699   -2.437737   -0.301320
     22          1           0        2.991193   -1.418439   -1.750790
     23          1           0        4.677779    1.498628   -0.533233
     24          1           0        3.199477    1.718233   -1.474673
     25          1           0        3.343078    2.447627    0.131685
     26          1           0        4.728344   -0.233422    2.027256
     27          1           0        3.351392    0.649772    2.702272
     28          1           0        3.281277   -1.111598    2.547414
     29          1           0       -1.782437   -0.025014    2.846537
     30          1           0       -1.309793   -1.529348    2.059635
     31          1           0       -0.071703   -0.370773    2.572086
     32          1           0       -3.754518   -0.465418    1.679353
     33          1           0       -4.562380   -0.072368    0.172619
     34          1           0       -4.905200    1.781663    1.768850
     35          1           0       -3.168350    1.970852    2.017500
     36          1           0       -3.884033    2.365467    0.449434
     37          6           0        0.086865    0.763008   -1.434046
     38          6           0        0.043134    2.248580   -1.202445
     39          6           0       -0.787318    3.089945   -1.821335
     40          1           0       -0.729208    0.468986   -2.103319
     41          1           0        1.011563    0.500217   -1.966201
     42          1           0        0.759089    2.641637   -0.482823
     43          1           0       -0.763437    4.158497   -1.628716
     44          1           0       -1.514895    2.743103   -2.551992
 ---------------------------------------------------------------------
 Rotational constants (GHZ):      0.5092653      0.2603734      0.2300412
 Standard basis: 6-311G(d) (5D, 7F)
 There are   428 symmetry adapted cartesian basis functions of A   symmetry.
 There are   410 symmetry adapted basis functions of A   symmetry.
   410 basis functions,   720 primitive gaussians,   428 cartesian basis functions
    74 alpha electrons       74 beta electrons
       nuclear repulsion energy      1625.9907380659 Hartrees.
 NAtoms=   44 NActive=   44 NUniq=   44 SFac= 1.00D+00 NAtFMM=   60 NAOKFM=F Big=F
 Integral buffers will be    131072 words long.
 Raffenetti 2 integral format.
 Two-electron integral symmetry is turned on.
 ------------------------------------------------------------------------------
 Polarizable Continuum Model (PCM)
 =================================
 Model                : PCM (using non-symmetric T matrix).
 Atomic radii         : UFF (Universal Force Field).
 Polarization charges : Total charges.
 Charge compensation  : None.
 Solution method      : On-the-fly selection.
 Cavity type          : Scaled VdW (van der Waals Surface) (Alpha=1.100).
 Cavity algorithm     : GePol (No added spheres)
                        Default sphere list used, NSphG=   44.
                        Lebedev-Laikov grids with approx.  5.0 points / Ang**2.
                        Smoothing algorithm: Karplus/York (Gamma=1.0000).
                        Polarization charges: spherical gaussians, with
                                              point-specific exponents (IZeta= 3).
                        Self-potential: point-specific (ISelfS= 7).
                        Self-field    : sphere-specific E.n sum rule (ISelfD= 2).
 Solvent              : Chloroform, Eps=   4.711300 Eps(inf)=   2.090627
 ------------------------------------------------------------------------------
 One-electron integrals computed using PRISM.
 NBasis=   410 RedAO= T EigKep=  1.02D-03  NBF=   410
 NBsUse=   410 1.00D-06 EigRej= -1.00D+00 NBFU=   410
 ExpMin= 6.54D-02 ExpMax= 6.94D+04 ExpMxC= 2.33D+03 IAcc=2 IRadAn=         4 AccDes= 0.00D+00
 Harris functional with IExCor=  908 and IRadAn=       4 diagonalized for initial guess.
 HarFok:  IExCor=  908 AccDes= 0.00D+00 IRadAn=         4 IDoV= 1 UseB2=F ITyADJ=14
 ICtDFT=  3500011 ScaDFX=  1.000000  1.000000  1.000000  1.000000
 FoFCou: FMM=F IPFlag=           0 FMFlag=      100000 FMFlg1=           0
         NFxFlg=           0 DoJE=T BraDBF=F KetDBF=T FulRan=T
         wScrn=  0.000000 ICntrl=     500 IOpCl=  0 I1Cent=   200000004 NGrid=           0
         NMat0=    1 NMatS0=      1 NMatT0=    0 NMatD0=    1 NMtDS0=    0 NMtDT0=    0
 Petite list used in FoFCou.
 Requested convergence on RMS density matrix=1.00D-08 within 128 cycles.
 Requested convergence on MAX density matrix=1.00D-06.
 Requested convergence on             energy=1.00D-06.
 No special actions if energy rises.
 Inv3:  Mode=1 IEnd=    24316227.
 Iteration    1 A*A^-1 deviation from unit magnitude is 4.88D-15 for   2838.
 Iteration    1 A*A^-1 deviation from orthogonality  is 4.58D-15 for   2819   1465.
 Iteration    1 A^-1*A deviation from unit magnitude is 5.11D-15 for   2838.
 Iteration    1 A^-1*A deviation from orthogonality  is 4.69D-13 for   2661   2658.
 Error on total polarization charges =  0.01105
 SCF Done:  E(RmPW1PW91) =  -1064.38398449     A.U. after   12 cycles
            NFock= 12  Conv=0.91D-08     -V/T= 2.0036
 DoSCS=F DFT=T ScalE2(SS,OS)=  1.000000  1.000000
 Range of M.O.s used for correlation:     1   410
 NBasis=   410 NAE=    74 NBE=    74 NFC=     0 NFV=     0
 NROrb=    410 NOA=    74 NOB=    74 NVA=   336 NVB=   336
 NEqPCM:  Using equilibrium solvation (IEInf=0, Eps=   4.7113, EpsInf=   2.0906)
          Differentiating once with respect to magnetic field using GIAOs.
          Electric field/nuclear overlap derivatives assumed to be zero.
 FoFJK:  IHMeth= 1 ICntrl=    6127 DoSepK=F KAlg= 0 I1Cent=   0 FoldK=F
 IRaf=         1 NMat=   1 IRICut=       1 DoRegI=T DoRafI=F ISym2E= 0.
          There are     3 degrees of freedom in the 1st order CPHF.  IDoFFX=0 NUNeed=     3.
      3 vectors produced by pass  0 Test12= 8.29D-13 3.33D-08 XBig12= 3.80D+01 8.42D-01.
 AX will form     3 AO Fock derivatives at one time.
      3 vectors produced by pass  1 Test12= 8.29D-13 3.33D-08 XBig12= 7.53D-02 8.96D-02.
      3 vectors produced by pass  2 Test12= 8.29D-13 3.33D-08 XBig12= 8.91D-04 9.68D-03.
      3 vectors produced by pass  3 Test12= 8.29D-13 3.33D-08 XBig12= 5.18D-06 5.94D-04.
      3 vectors produced by pass  4 Test12= 8.29D-13 3.33D-08 XBig12= 3.11D-08 4.14D-05.
      3 vectors produced by pass  5 Test12= 8.29D-13 3.33D-08 XBig12= 8.01D-11 1.72D-06.
      2 vectors produced by pass  6 Test12= 8.29D-13 3.33D-08 XBig12= 2.27D-13 9.91D-08.
 InvSVY:  IOpt=1 It=  1 EMax= 8.88D-16
 Solved reduced A of dimension    20 with     3 vectors.
 Calculating GIAO nuclear magnetic shielding tensors.
 SCF GIAO Magnetic shielding tensor (ppm):
      1  C    Isotropic =   104.9154   Anisotropy =    62.8889
   XX=    94.7345   YX=    -9.2935   ZX=    -5.8053
   XY=    -0.0203   YY=   137.3768   ZY=    23.5096
   XZ=    -3.9270   YZ=    23.6562   ZZ=    82.6350
   Eigenvalues:    73.4605    94.4445   146.8414
      2  C    Isotropic =   148.9338   Anisotropy =    15.6203
   XX=   158.8117   YX=    -2.6761   ZX=     1.8918
   XY=    -3.1561   YY=   137.7372   ZY=    -3.7560
   XZ=    -5.7164   YZ=    -9.8514   ZZ=   150.2526
   Eigenvalues:   134.2688   153.1853   159.3474
      3  C    Isotropic =   108.0340   Anisotropy =    55.5825
   XX=   134.0957   YX=     6.0964   ZX=    22.1329
   XY=     0.6759   YY=    85.7970   ZY=     2.5079
   XZ=    19.4288   YZ=     3.9820   ZZ=   104.2091
   Eigenvalues:    85.2408    93.7721   145.0890
      4  C    Isotropic =   143.2578   Anisotropy =    39.7580
   XX=   149.2336   YX=    16.0888   ZX=     6.5628
   XY=    13.2184   YY=   152.2542   ZY=     2.6319
   XZ=    14.5520   YZ=    14.1792   ZZ=   128.2857
   Eigenvalues:   123.6534   136.3570   169.7632
      5  C    Isotropic =    13.0169   Anisotropy =    88.7077
   XX=   -67.1131   YX=    26.0991   ZX=     9.8651
   XY=    37.5584   YY=    41.5288   ZY=   -15.5897
   XZ=    18.1616   YZ=   -14.7063   ZZ=    64.6349
   Eigenvalues:   -77.9117    44.8070    72.1553
      6  H    Isotropic =    27.8731   Anisotropy =     2.4761
   XX=    29.0702   YX=    -0.3478   ZX=    -0.1545
   XY=    -0.8665   YY=    27.3623   ZY=    -2.2886
   XZ=    -0.6977   YZ=    -2.0848   ZZ=    27.1868
   Eigenvalues:    24.9572    29.1383    29.5238
      7  H    Isotropic =    30.1160   Anisotropy =     4.3903
   XX=    29.6247   YX=    -0.3690   ZX=    -2.7257
   XY=     0.2928   YY=    32.7434   ZY=    -0.7390
   XZ=    -2.1087   YZ=    -1.3176   ZZ=    27.9799
   Eigenvalues:    26.1365    31.1687    33.0429
      8  H    Isotropic =    29.6291   Anisotropy =     4.0856
   XX=    31.8815   YX=    -0.0445   ZX=    -1.6281
   XY=     1.1864   YY=    29.5969   ZY=     3.1900
   XZ=    -1.0333   YZ=     3.1645   ZZ=    27.4089
   Eigenvalues:    24.8571    31.6774    32.3529
      9  H    Isotropic =    29.5787   Anisotropy =     4.0223
   XX=    29.3837   YX=    -0.6983   ZX=     0.3432
   XY=    -1.1862   YY=    31.7508   ZY=    -1.1760
   XZ=     0.7477   YZ=    -0.3793   ZZ=    27.6016
   Eigenvalues:    27.3838    29.0921    32.2603
     10  O    Isotropic =   104.1563   Anisotropy =   178.7371
   XX=   188.5136   YX=   -66.8770   ZX=   -43.4065
   XY=   -80.7154   YY=   -28.8173   ZY=  -108.3477
   XZ=   -53.6520   YZ=  -130.5940   ZZ=   152.7727
   Eigenvalues:  -113.5559   202.7105   223.3144
     11  O    Isotropic =  -104.6344   Anisotropy =   568.0656
   XX=  -237.2798   YX=    74.2201   ZX=    25.3568
   XY=    68.1504   YY=  -191.6209   ZY=  -254.8732
   XZ=    15.1064   YZ=  -287.9416   ZZ=   114.9974
   Eigenvalues:  -384.9417  -203.0376   274.0760
     12  C    Isotropic =   159.8207   Anisotropy =    24.4977
   XX=   166.9710   YX=    -4.1175   ZX=   -12.3394
   XY=    -0.4815   YY=   163.0061   ZY=     7.2692
   XZ=   -11.1606   YZ=    11.0279   ZZ=   149.4851
   Eigenvalues:   141.1168   162.1928   176.1526
     13  C    Isotropic =   178.3479   Anisotropy =    16.6295
   XX=   174.3823   YX=    -2.7816   ZX=    -2.6331
   XY=    -4.9588   YY=   187.1267   ZY=     4.1139
   XZ=    -2.8130   YZ=     3.4790   ZZ=   173.5346
   Eigenvalues:   171.1900   174.4194   189.4342
     14  C    Isotropic =   181.4946   Anisotropy =    12.5559
   XX=   178.6005   YX=    -2.1878   ZX=    -1.7347
   XY=    -1.5760   YY=   180.3414   ZY=    -6.9393
   XZ=    -1.9792   YZ=    -5.8460   ZZ=   185.5420
   Eigenvalues:   174.4199   180.1987   189.8653
     15  O    Isotropic =   245.2000   Anisotropy =    13.7832
   XX=   238.3535   YX=     3.2221   ZX=    -0.2995
   XY=     6.4057   YY=   246.5173   ZY=     7.3917
   XZ=    -3.5108   YZ=     3.1465   ZZ=   250.7292
   Eigenvalues:   235.0529   246.1583   254.3888
     16  Si   Isotropic =   332.6202   Anisotropy =    43.3645
   XX=   360.2577   YX=   -10.2242   ZX=   -11.3783
   XY=    -5.0241   YY=   314.2226   ZY=    -2.5074
   XZ=     7.6809   YZ=    -4.5200   ZZ=   323.3803
   Eigenvalues:   311.7696   324.5611   361.5298
     17  C    Isotropic =   186.5561   Anisotropy =    12.5619
   XX=   188.9210   YX=    -0.5763   ZX=     3.0453
   XY=    -0.0725   YY=   177.5928   ZY=    -2.0703
   XZ=     2.7552   YZ=    -2.7250   ZZ=   193.1544
   Eigenvalues:   177.2307   187.5069   194.9307
     18  C    Isotropic =   185.3278   Anisotropy =     8.3086
   XX=   188.1856   YX=    -1.4516   ZX=    -1.5971
   XY=     1.1255   YY=   187.2314   ZY=     5.6683
   XZ=    -0.0502   YZ=     6.3025   ZZ=   180.5664
   Eigenvalues:   177.0130   188.1035   190.8669
     19  C    Isotropic =   185.0737   Anisotropy =    11.0523
   XX=   186.7172   YX=     2.6401   ZX=    -1.5491
   XY=     0.3345   YY=   189.2286   ZY=    -5.6268
   XZ=    -2.4313   YZ=    -5.2160   ZZ=   179.2754
   Eigenvalues:   176.7379   186.0414   192.4419
     20  H    Isotropic =    32.1527   Anisotropy =    10.5249
   XX=    38.2953   YX=    -2.5590   ZX=    -1.6919
   XY=    -2.0750   YY=    29.4976   ZY=     1.1598
   XZ=    -1.3809   YZ=     1.1915   ZZ=    28.6653
   Eigenvalues:    27.8334    29.4554    39.1694
     21  H    Isotropic =    31.8790   Anisotropy =     7.3106
   XX=    30.8943   YX=     0.5367   ZX=    -0.9566
   XY=     1.1636   YY=    36.3486   ZY=    -1.7476
   XZ=    -0.4885   YZ=    -1.0899   ZZ=    28.3939
   Eigenvalues:    28.0318    30.8524    36.7527
     22  H    Isotropic =    31.8614   Anisotropy =     6.4820
   XX=    31.0340   YX=    -1.1505   ZX=     1.0030
   XY=    -0.6820   YY=    28.9212   ZY=     1.6929
   XZ=     1.6575   YZ=     1.2231   ZZ=    35.6289
   Eigenvalues:    28.1224    31.2790    36.1827
     23  H    Isotropic =    32.2159   Anisotropy =    10.3059
   XX=    38.6204   YX=     1.6644   ZX=    -1.3803
   XY=     1.3928   YY=    29.5517   ZY=    -0.7967
   XZ=    -1.4341   YZ=    -0.6985   ZZ=    28.4754
   Eigenvalues:    28.0559    29.5053    39.0865
     24  H    Isotropic =    31.8969   Anisotropy =     6.5057
   XX=    31.4690   YX=     0.6703   ZX=     1.5684
   XY=     0.3331   YY=    29.5770   ZY=    -3.2406
   XZ=     1.5950   YZ=    -2.3952   ZZ=    34.6446
   Eigenvalues:    27.9554    31.5012    36.2340
     25  H    Isotropic =    31.8467   Anisotropy =     7.9206
   XX=    29.9962   YX=     0.3331   ZX=    -0.2494
   XY=    -0.2523   YY=    36.0896   ZY=     3.1856
   XZ=    -0.3729   YZ=     2.4552   ZZ=    29.4543
   Eigenvalues:    28.3602    30.0528    37.1271
     26  H    Isotropic =    32.3289   Anisotropy =    10.3653
   XX=    38.7269   YX=    -0.5212   ZX=     2.2640
   XY=    -0.5023   YY=    28.2446   ZY=    -0.2953
   XZ=     1.9555   YZ=    -0.2132   ZZ=    30.0150
   Eigenvalues:    28.2031    29.5444    39.2390
     27  H    Isotropic =    31.8620   Anisotropy =     8.1691
   XX=    29.6832   YX=    -0.9662   ZX=     0.5578
   XY=    -1.0051   YY=    31.9377   ZY=     3.8969
   XZ=     0.1557   YZ=     4.5475   ZZ=    33.9651
   Eigenvalues:    28.0126    30.2654    37.3081
     28  H    Isotropic =    31.9523   Anisotropy =     7.9980
   XX=    30.0765   YX=     1.3590   ZX=     0.5321
   XY=     1.4519   YY=    33.2019   ZY=    -3.9931
   XZ=    -0.0138   YZ=    -4.5663   ZZ=    32.5784
   Eigenvalues:    27.9552    30.6173    37.2843
     29  H    Isotropic =    31.2612   Anisotropy =     9.8784
   XX=    31.5148   YX=    -2.7337   ZX=    -3.1798
   XY=    -2.7147   YY=    26.8327   ZY=     0.9570
   XZ=    -3.5745   YZ=     1.0351   ZZ=    35.4362
   Eigenvalues:    25.5508    30.3861    37.8468
     30  H    Isotropic =    31.5050   Anisotropy =     7.8661
   XX=    28.5680   YX=     1.3098   ZX=    -0.6894
   XY=     1.2356   YY=    35.1387   ZY=    -2.9736
   XZ=    -0.7296   YZ=    -2.5688   ZZ=    30.8084
   Eigenvalues:    28.3039    29.4621    36.7491
     31  H    Isotropic =    30.7176   Anisotropy =     8.6282
   XX=    35.1482   YX=     0.9320   ZX=     2.0195
   XY=     0.3081   YY=    24.0073   ZY=    -1.0102
   XZ=     2.2646   YZ=    -1.1281   ZZ=    32.9972
   Eigenvalues:    23.8131    31.8699    36.4697
     32  H    Isotropic =    30.3692   Anisotropy =     5.4848
   XX=    31.2542   YX=     0.4965   ZX=    -2.3744
   XY=     0.1490   YY=    30.2153   ZY=    -3.3621
   XZ=    -1.8187   YZ=    -2.6519   ZZ=    29.6381
   Eigenvalues:    26.4952    30.5867    34.0257
     33  H    Isotropic =    30.2259   Anisotropy =     9.0612
   XX=    34.8758   YX=     1.0818   ZX=     2.8813
   XY=     1.3329   YY=    28.2076   ZY=     3.5141
   XZ=     2.2439   YZ=     2.5625   ZZ=    27.5942
   Eigenvalues:    24.7158    29.6952    36.2666
     34  H    Isotropic =    31.0383   Anisotropy =    12.0075
   XX=    35.2922   YX=    -2.7813   ZX=    -4.3563
   XY=    -3.6154   YY=    29.3194   ZY=     2.2965
   XZ=    -4.6979   YZ=     1.9028   ZZ=    28.5033
   Eigenvalues:    26.1351    27.9365    39.0433
     35  H    Isotropic =    31.3203   Anisotropy =     6.0931
   XX=    31.8953   YX=    -0.8047   ZX=     1.7637
   XY=    -0.3425   YY=    30.9774   ZY=     4.4499
   XZ=     1.8905   YZ=     3.7364   ZZ=    31.0882
   Eigenvalues:    26.4088    32.1697    35.3824
     36  H    Isotropic =    31.3742   Anisotropy =     8.3556
   XX=    29.3111   YX=    -2.1827   ZX=    -0.7641
   XY=    -2.4342   YY=    34.4312   ZY=    -4.0481
   XZ=    -0.7843   YZ=    -3.2826   ZZ=    30.3802
   Eigenvalues:    26.7488    30.4291    36.9446
     37  C    Isotropic =   140.3006   Anisotropy =    34.4128
   XX=   122.5648   YX=    -0.9293   ZX=    -2.5873
   XY=    -4.1322   YY=   158.6267   ZY=   -10.7841
   XZ=    -2.3770   YZ=    -9.9443   ZZ=   139.7103
   Eigenvalues:   121.7155   135.9438   163.2425
     38  C    Isotropic =    46.7372   Anisotropy =   179.2466
   XX=    76.3373   YX=   -29.9658   ZX=   -86.6074
   XY=   -31.0257   YY=   -14.2894   ZY=   -61.9282
   XZ=   -85.1941   YZ=   -60.2050   ZZ=    78.1639
   Eigenvalues:   -77.2167    51.1935   166.2350
     39  C    Isotropic =    65.1375   Anisotropy =   142.4430
   XX=    95.6028   YX=   -32.9109   ZX=   -64.4732
   XY=   -34.6271   YY=     7.8205   ZY=   -58.3671
   XZ=   -62.3327   YZ=   -63.8224   ZZ=    91.9892
   Eigenvalues:   -50.1425    85.4555   160.0995
     40  H    Isotropic =    29.6276   Anisotropy =     5.2134
   XX=    28.8480   YX=    -0.3189   ZX=     2.1210
   XY=     0.7304   YY=    28.2635   ZY=    -0.9268
   XZ=     1.5893   YZ=    -2.4315   ZZ=    31.7712
   Eigenvalues:    27.0090    28.7705    33.1031
     41  H    Isotropic =    29.5619   Anisotropy =     4.4288
   XX=    31.0005   YX=    -1.6501   ZX=    -1.0441
   XY=    -1.4148   YY=    28.0409   ZY=    -1.1788
   XZ=    -2.7186   YZ=    -0.1357   ZZ=    29.6443
   Eigenvalues:    26.6797    29.4916    32.5144
     42  H    Isotropic =    25.7947   Anisotropy =     6.5451
   XX=    26.9868   YX=    -1.2422   ZX=    -0.1255
   XY=    -2.4144   YY=    28.2113   ZY=    -3.0823
   XZ=     0.0309   YZ=    -2.3076   ZZ=    22.1861
   Eigenvalues:    21.0695    26.1566    30.1581
     43  H    Isotropic =    26.6837   Anisotropy =     6.8118
   XX=    26.2241   YX=    -3.0959   ZX=    -0.0614
   XY=    -1.4883   YY=    28.5815   ZY=    -2.0852
   XZ=     0.2044   YZ=    -4.0210   ZZ=    25.2455
   Eigenvalues:    22.9799    25.8463    31.2249
     44  H    Isotropic =    26.7506   Anisotropy =     7.1638
   XX=    26.8122   YX=    -1.5446   ZX=     0.7644
   XY=    -3.4674   YY=    26.5251   ZY=    -4.6359
   XZ=     0.3108   YZ=    -2.9650   ZZ=    26.9146
   Eigenvalues:    22.3761    26.3493    31.5265
 End of Minotr F.D. properties file   721 does not exist.
 End of Minotr F.D. properties file   722 does not exist.
 End of Minotr F.D. properties file   788 does not exist.

 **********************************************************************

            Population analysis using the SCF density.

 **********************************************************************

 Orbital symmetries:
       Occupied  (A) (A) (A) (A) (A) (A) (A) (A) (A) (A) (A) (A)
                 (A) (A) (A) (A) (A) (A) (A) (A) (A) (A) (A) (A)
                 (A) (A) (A) (A) (A) (A) (A) (A) (A) (A) (A) (A)
                 (A) (A) (A) (A) (A) (A) (A) (A) (A) (A) (A) (A)
                 (A) (A) (A) (A) (A) (A) (A) (A) (A) (A) (A) (A)
                 (A) (A) (A) (A) (A) (A) (A) (A) (A) (A) (A) (A)
                 (A) (A)
       Virtual   (A) (A) (A) (A) (A) (A) (A) (A) (A) (A) (A) (A)
                 (A) (A) (A) (A) (A) (A) (A) (A) (A) (A) (A) (A)
                 (A) (A) (A) (A) (A) (A) (A) (A) (A) (A) (A) (A)
                 (A) (A) (A) (A) (A) (A) (A) (A) (A) (A) (A) (A)
                 (A) (A) (A) (A) (A) (A) (A) (A) (A) (A) (A) (A)
                 (A) (A) (A) (A) (A) (A) (A) (A) (A) (A) (A) (A)
                 (A) (A) (A) (A) (A) (A) (A) (A) (A) (A) (A) (A)
                 (A) (A) (A) (A) (A) (A) (A) (A) (A) (A) (A) (A)
                 (A) (A) (A) (A) (A) (A) (A) (A) (A) (A) (A) (A)
                 (A) (A) (A) (A) (A) (A) (A) (A) (A) (A) (A) (A)
                 (A) (A) (A) (A) (A) (A) (A) (A) (A) (A) (A) (A)
                 (A) (A) (A) (A) (A) (A) (A) (A) (A) (A) (A) (A)
                 (A) (A) (A) (A) (A) (A) (A) (A) (A) (A) (A) (A)
                 (A) (A) (A) (A) (A) (A) (A) (A) (A) (A) (A) (A)
                 (A) (A) (A) (A) (A) (A) (A) (A) (A) (A) (A) (A)
                 (A) (A) (A) (A) (A) (A) (A) (A) (A) (A) (A) (A)
                 (A) (A) (A) (A) (A) (A) (A) (A) (A) (A) (A) (A)
                 (A) (A) (A) (A) (A) (A) (A) (A) (A) (A) (A) (A)
                 (A) (A) (A) (A) (A) (A) (A) (A) (A) (A) (A) (A)
                 (A) (A) (A) (A) (A) (A) (A) (A) (A) (A) (A) (A)
                 (A) (A) (A) (A) (A) (A) (A) (A) (A) (A) (A) (A)
                 (A) (A) (A) (A) (A) (A) (A) (A) (A) (A) (A) (A)
                 (A) (A) (A) (A) (A) (A) (A) (A) (A) (A) (A) (A)
                 (A) (A) (A) (A) (A) (A) (A) (A) (A) (A) (A) (A)
                 (A) (A) (A) (A) (A) (A) (A) (A) (A) (A) (A) (A)
                 (A) (A) (A) (A) (A) (A) (A) (A) (A) (A) (A) (A)
                 (A) (A) (A) (A) (A) (A) (A) (A) (A) (A) (A) (A)
                 (A) (A) (A) (A) (A) (A) (A) (A) (A) (A) (A) (A)
 The electronic state is 1-A.
 Alpha  occ. eigenvalues --  -66.27483 -19.25847 -19.20719 -19.19527 -10.36945
 Alpha  occ. eigenvalues --  -10.31763 -10.30291 -10.25056 -10.24975 -10.24654
 Alpha  occ. eigenvalues --  -10.24485 -10.23679 -10.23178 -10.22623 -10.22233
 Alpha  occ. eigenvalues --  -10.21080 -10.20848 -10.20690  -5.33215  -3.67103
 Alpha  occ. eigenvalues --   -3.66809  -3.66793  -1.13091  -1.04738  -1.04038
 Alpha  occ. eigenvalues --   -0.85988  -0.83053  -0.80933  -0.77250  -0.74006
 Alpha  occ. eigenvalues --   -0.73418  -0.71742  -0.70388  -0.70170  -0.67025
 Alpha  occ. eigenvalues --   -0.63293  -0.61929  -0.58845  -0.54453  -0.53008
 Alpha  occ. eigenvalues --   -0.52760  -0.51424  -0.51293  -0.48085  -0.46956
 Alpha  occ. eigenvalues --   -0.46557  -0.45157  -0.44951  -0.44439  -0.43791
 Alpha  occ. eigenvalues --   -0.42860  -0.42647  -0.42044  -0.41348  -0.40912
 Alpha  occ. eigenvalues --   -0.40668  -0.40285  -0.39768  -0.39379  -0.39068
 Alpha  occ. eigenvalues --   -0.38331  -0.37931  -0.37344  -0.37077  -0.36418
 Alpha  occ. eigenvalues --   -0.35382  -0.34287  -0.33350  -0.32242  -0.31023
 Alpha  occ. eigenvalues --   -0.30121  -0.29700  -0.28203  -0.27349
 Alpha virt. eigenvalues --    0.00306   0.00703   0.03810   0.05355   0.06384
 Alpha virt. eigenvalues --    0.06513   0.07016   0.07913   0.08133   0.09163
 Alpha virt. eigenvalues --    0.09584   0.10272   0.10441   0.10962   0.11510
 Alpha virt. eigenvalues --    0.12036   0.12724   0.12955   0.13789   0.14223
 Alpha virt. eigenvalues --    0.14360   0.14599   0.14939   0.15083   0.15292
 Alpha virt. eigenvalues --    0.16132   0.16195   0.16768   0.17362   0.17910
 Alpha virt. eigenvalues --    0.18440   0.19397   0.19734   0.20009   0.21090
 Alpha virt. eigenvalues --    0.21962   0.22764   0.23133   0.23720   0.24629
 Alpha virt. eigenvalues --    0.25229   0.25816   0.26486   0.27370   0.28877
 Alpha virt. eigenvalues --    0.29344   0.30768   0.31169   0.31961   0.32086
 Alpha virt. eigenvalues --    0.33106   0.33662   0.34858   0.35612   0.36260
 Alpha virt. eigenvalues --    0.37528   0.38102   0.38928   0.39171   0.40707
 Alpha virt. eigenvalues --    0.41178   0.41899   0.42068   0.43030   0.43922
 Alpha virt. eigenvalues --    0.44844   0.46591   0.47095   0.47634   0.48577
 Alpha virt. eigenvalues --    0.48875   0.49720   0.50670   0.51975   0.52427
 Alpha virt. eigenvalues --    0.52934   0.53919   0.54472   0.55282   0.56068
 Alpha virt. eigenvalues --    0.56747   0.57062   0.57587   0.58010   0.59228
 Alpha virt. eigenvalues --    0.59282   0.59407   0.59984   0.60858   0.61141
 Alpha virt. eigenvalues --    0.61664   0.61840   0.62225   0.62745   0.63484
 Alpha virt. eigenvalues --    0.63677   0.63895   0.64563   0.65162   0.65717
 Alpha virt. eigenvalues --    0.66307   0.66643   0.66927   0.67478   0.67976
 Alpha virt. eigenvalues --    0.68651   0.69537   0.69818   0.70890   0.71179
 Alpha virt. eigenvalues --    0.72058   0.73247   0.73664   0.74113   0.74736
 Alpha virt. eigenvalues --    0.74933   0.77579   0.78187   0.79273   0.81081
 Alpha virt. eigenvalues --    0.82048   0.82842   0.86360   0.86841   0.87978
 Alpha virt. eigenvalues --    0.90098   0.90765   0.91536   0.92951   0.94632
 Alpha virt. eigenvalues --    0.95691   0.96728   0.97348   0.98532   1.00071
 Alpha virt. eigenvalues --    1.02484   1.03510   1.04748   1.06965   1.10023
 Alpha virt. eigenvalues --    1.12170   1.13417   1.16295   1.19068   1.20240
 Alpha virt. eigenvalues --    1.21000   1.23457   1.24674   1.26445   1.28314
 Alpha virt. eigenvalues --    1.29001   1.29405   1.31759   1.31936   1.32566
 Alpha virt. eigenvalues --    1.33364   1.35614   1.38090   1.39738   1.40762
 Alpha virt. eigenvalues --    1.41485   1.44415   1.45232   1.47919   1.48348
 Alpha virt. eigenvalues --    1.51069   1.51551   1.52651   1.53100   1.53712
 Alpha virt. eigenvalues --    1.54697   1.54989   1.56684   1.57674   1.58399
 Alpha virt. eigenvalues --    1.59086   1.59634   1.59799   1.60386   1.60707
 Alpha virt. eigenvalues --    1.60925   1.61609   1.63119   1.63751   1.64559
 Alpha virt. eigenvalues --    1.64997   1.65240   1.67330   1.68297   1.69629
 Alpha virt. eigenvalues --    1.69712   1.72179   1.72722   1.74052   1.75256
 Alpha virt. eigenvalues --    1.76116   1.76174   1.77967   1.78719   1.80257
 Alpha virt. eigenvalues --    1.80670   1.82300   1.83376   1.84348   1.87673
 Alpha virt. eigenvalues --    1.89692   1.92130   1.94414   1.94660   1.97455
 Alpha virt. eigenvalues --    2.01116   2.03889   2.06545   2.10310   2.12674
 Alpha virt. eigenvalues --    2.14474   2.16298   2.20633   2.22917   2.25305
 Alpha virt. eigenvalues --    2.28284   2.29703   2.34183   2.36903   2.41142
 Alpha virt. eigenvalues --    2.41386   2.41779   2.42024   2.42407   2.43106
 Alpha virt. eigenvalues --    2.44635   2.45093   2.46471   2.46602   2.47497
 Alpha virt. eigenvalues --    2.48073   2.48397   2.49990   2.51034   2.52304
 Alpha virt. eigenvalues --    2.53403   2.53752   2.55197   2.58921   2.59624
 Alpha virt. eigenvalues --    2.61460   2.63479   2.65834   2.72425   2.81241
 Alpha virt. eigenvalues --    2.82992   2.86593   2.87679   2.90342   2.91674
 Alpha virt. eigenvalues --    2.92152   2.92840   2.94881   2.96426   2.97652
 Alpha virt. eigenvalues --    2.99907   3.00399   3.01615   3.03186   3.06874
 Alpha virt. eigenvalues --    3.09215   3.10024   3.14064   3.14663   3.15351
 Alpha virt. eigenvalues --    3.16122   3.17295   3.18152   3.19255   3.21012
 Alpha virt. eigenvalues --    3.22009   3.22570   3.23398   3.23870   3.24216
 Alpha virt. eigenvalues --    3.25646   3.26978   3.27628   3.29572   3.34718
 Alpha virt. eigenvalues --    3.35632   3.35856   3.37755   3.39612   3.40792
 Alpha virt. eigenvalues --    3.44912   3.50974   3.57191   3.59532   3.63244
 Alpha virt. eigenvalues --    3.78109   3.88053   3.90561   3.99257   4.01997
 Alpha virt. eigenvalues --    4.08090   4.14122   4.20667   4.22979   4.25250
 Alpha virt. eigenvalues --    4.94237   5.00052   5.01486   5.10611   5.14953
 Alpha virt. eigenvalues --    5.23537   5.52949   5.56216   5.76613   5.85153
 Alpha virt. eigenvalues --   11.52764  11.53278  11.57125  23.41413  23.48679
 Alpha virt. eigenvalues --   23.53956  23.54210  23.57446  23.60616  23.71148
 Alpha virt. eigenvalues --   23.75751  23.77873  23.79413  23.81737  23.87355
 Alpha virt. eigenvalues --   23.87828  24.28801  49.98576  50.05228  50.13000
 Alpha virt. eigenvalues --  141.27850
          Condensed to atoms (all electrons):
               1          2          3          4          5          6
     1  C    5.238583   0.235205  -0.062319  -0.003781  -0.051878   0.394228
     2  C    0.235205   5.638944   0.283314  -0.069733  -0.016476  -0.051265
     3  C   -0.062319   0.283314   5.171509   0.214148  -0.018851  -0.016679
     4  C   -0.003781  -0.069733   0.214148   5.872972   0.237281   0.002778
     5  C   -0.051878  -0.016476  -0.018851   0.237281   4.392952  -0.002391
     6  H    0.394228  -0.051265  -0.016679   0.002778  -0.002391   0.476800
     7  H   -0.028711   0.388686  -0.043419   0.008578   0.000263  -0.000608
     8  H   -0.000881   0.007532  -0.028123   0.359610  -0.025221   0.000218
     9  H    0.002062  -0.008766  -0.032290   0.372301  -0.021342  -0.000305
    10  O    0.210466  -0.040720   0.005959  -0.104786   0.350200  -0.031307
    11  O    0.002457  -0.000462   0.005097  -0.095913   0.667148  -0.000040
    12  C    0.343806  -0.053451   0.008892  -0.001440   0.003552  -0.048097
    13  C   -0.075866   0.003042  -0.000562   0.000112  -0.000133   0.001382
    14  C   -0.075821   0.287074  -0.072019  -0.010956   0.001252   0.007485
    15  O    0.003547  -0.058086   0.219365  -0.032965   0.001707  -0.000055
    16  Si  -0.000055   0.003239  -0.045417  -0.010061   0.001411  -0.000035
    17  C   -0.000001   0.000078   0.002535  -0.000323  -0.000005   0.000000
    18  C    0.000011  -0.000220   0.001194  -0.005172  -0.000202   0.000000
    19  C    0.000003  -0.000314   0.000337  -0.000163   0.000003   0.000001
    20  H    0.000000   0.000005  -0.000118   0.000310   0.000001   0.000000
    21  H    0.000004  -0.000067   0.000357   0.000355  -0.000125   0.000000
    22  H    0.000007  -0.000073   0.001017  -0.000800  -0.000138  -0.000002
    23  H    0.000000   0.000007  -0.000020  -0.000010   0.000000   0.000000
    24  H    0.000002  -0.000058   0.000310  -0.000033   0.000003  -0.000001
    25  H   -0.000002   0.000007   0.000335  -0.000023   0.000001   0.000000
    26  H    0.000000   0.000000  -0.000062  -0.000002   0.000000   0.000000
    27  H   -0.000001   0.000074  -0.000131  -0.000022   0.000000   0.000000
    28  H    0.000000   0.000027   0.000005   0.000023  -0.000002   0.000000
    29  H   -0.006206  -0.033741   0.007229  -0.000483  -0.000065  -0.000335
    30  H   -0.005575  -0.040472  -0.009750   0.005686  -0.000742   0.000548
    31  H    0.006760  -0.038520  -0.005884  -0.000464  -0.000084  -0.000157
    32  H   -0.040135  -0.013877  -0.000485   0.000164  -0.000050   0.007447
    33  H   -0.050273   0.009707  -0.000230   0.000315  -0.000109  -0.007288
    34  H    0.007692  -0.000178   0.000013  -0.000002   0.000004  -0.000236
    35  H   -0.009163   0.004633   0.000160  -0.000008   0.000002  -0.000556
    36  H   -0.002334  -0.002453  -0.000200   0.000004  -0.000007   0.005287
    37  C    0.004847  -0.097272   0.331608  -0.101942   0.003304   0.005155
    38  C   -0.004560  -0.015012  -0.060734   0.008734  -0.000315  -0.000320
    39  C   -0.000925   0.000219  -0.002337  -0.000084  -0.000026   0.003521
    40  H   -0.000787  -0.001268  -0.024918  -0.006257   0.002067  -0.003863
    41  H   -0.000285   0.007552  -0.046460  -0.003542  -0.000201   0.000838
    42  H    0.000242  -0.001684  -0.000722   0.000085  -0.000010  -0.000008
    43  H    0.000040   0.000035  -0.000350   0.000015   0.000000   0.000034
    44  H    0.000097  -0.000205   0.000303  -0.000044  -0.000009   0.000846
               7          8          9         10         11         12
     1  C   -0.028711  -0.000881   0.002062   0.210466   0.002457   0.343806
     2  C    0.388686   0.007532  -0.008766  -0.040720  -0.000462  -0.053451
     3  C   -0.043419  -0.028123  -0.032290   0.005959   0.005097   0.008892
     4  C    0.008578   0.359610   0.372301  -0.104786  -0.095913  -0.001440
     5  C    0.000263  -0.025221  -0.021342   0.350200   0.667148   0.003552
     6  H   -0.000608   0.000218  -0.000305  -0.031307  -0.000040  -0.048097
     7  H    0.446630  -0.000075  -0.000274   0.003188   0.000019  -0.008510
     8  H   -0.000075   0.418960  -0.015546   0.004429   0.010371   0.000033
     9  H   -0.000274  -0.015546   0.400988   0.000300   0.001195   0.000057
    10  O    0.003188   0.004429   0.000300   8.039071  -0.076847  -0.051394
    11  O    0.000019   0.010371   0.001195  -0.076847   7.871041  -0.000170
    12  C   -0.008510   0.000033   0.000057  -0.051394  -0.000170   5.309920
    13  C    0.002123  -0.000001  -0.000013   0.004058   0.000001   0.284948
    14  C   -0.033395  -0.000034   0.000919  -0.000345  -0.000032  -0.008885
    15  O    0.002736  -0.000916  -0.000662  -0.000023  -0.000019  -0.000060
    16  Si   0.000440  -0.001421   0.000403  -0.000125  -0.000291   0.000011
    17  C    0.000000   0.000031  -0.000152   0.000000   0.000000   0.000000
    18  C    0.000026  -0.002684   0.000403  -0.000002  -0.000012   0.000000
    19  C   -0.000031  -0.000163   0.000063   0.000000   0.000000   0.000000
    20  H    0.000000   0.000254  -0.000015   0.000000   0.000000   0.000000
    21  H    0.000005  -0.001054   0.001217   0.000000   0.000006   0.000000
    22  H    0.000002   0.001429  -0.000143  -0.000001  -0.000037   0.000000
    23  H   -0.000002   0.000001   0.000000   0.000000   0.000000   0.000000
    24  H   -0.000008  -0.000054   0.000013   0.000000   0.000000   0.000000
    25  H   -0.000037  -0.000002  -0.000002   0.000000   0.000000   0.000000
    26  H   -0.000001  -0.000002   0.000005   0.000000   0.000000   0.000000
    27  H   -0.000001  -0.000003  -0.000021   0.000000   0.000000   0.000000
    28  H    0.000004   0.000005   0.000066   0.000000   0.000000   0.000000
    29  H   -0.007103   0.000020   0.000192  -0.000035   0.000001   0.001606
    30  H    0.006505   0.000354  -0.001147   0.007399  -0.000392  -0.003983
    31  H   -0.002013  -0.000166   0.000684  -0.000123   0.000003   0.000162
    32  H    0.000205   0.000003  -0.000075   0.003291  -0.000043   0.390400
    33  H   -0.000353  -0.000013   0.000010   0.004520  -0.000027   0.403632
    34  H    0.000201   0.000000   0.000000  -0.000124   0.000000  -0.033507
    35  H   -0.000202   0.000000   0.000000  -0.000061   0.000000  -0.032798
    36  H    0.000235   0.000000  -0.000001  -0.000025   0.000000  -0.041743
    37  C   -0.011425  -0.007132   0.006048  -0.003632  -0.000052  -0.000556
    38  C    0.009532   0.000076  -0.000186   0.000395   0.000000  -0.000144
    39  C    0.001933   0.000001   0.000000  -0.000025   0.000000  -0.000108
    40  H   -0.000165  -0.000037   0.000245   0.001666  -0.000142   0.000713
    41  H    0.000327   0.003403  -0.000334  -0.000136  -0.000005  -0.000007
    42  H    0.000241  -0.000007   0.000026   0.000004   0.000000   0.000021
    43  H    0.000119   0.000001  -0.000001   0.000000   0.000000  -0.000009
    44  H   -0.000038   0.000004   0.000002  -0.000029   0.000000   0.000031
              13         14         15         16         17         18
     1  C   -0.075866  -0.075821   0.003547  -0.000055  -0.000001   0.000011
     2  C    0.003042   0.287074  -0.058086   0.003239   0.000078  -0.000220
     3  C   -0.000562  -0.072019   0.219365  -0.045417   0.002535   0.001194
     4  C    0.000112  -0.010956  -0.032965  -0.010061  -0.000323  -0.005172
     5  C   -0.000133   0.001252   0.001707   0.001411  -0.000005  -0.000202
     6  H    0.001382   0.007485  -0.000055  -0.000035   0.000000   0.000000
     7  H    0.002123  -0.033395   0.002736   0.000440   0.000000   0.000026
     8  H   -0.000001  -0.000034  -0.000916  -0.001421   0.000031  -0.002684
     9  H   -0.000013   0.000919  -0.000662   0.000403  -0.000152   0.000403
    10  O    0.004058  -0.000345  -0.000023  -0.000125   0.000000  -0.000002
    11  O    0.000001  -0.000032  -0.000019  -0.000291   0.000000  -0.000012
    12  C    0.284948  -0.008885  -0.000060   0.000011   0.000000   0.000000
    13  C    5.373116  -0.002161   0.000000  -0.000004   0.000000   0.000000
    14  C   -0.002161   5.418897  -0.007942  -0.000463   0.000049  -0.000053
    15  O    0.000000  -0.007942   8.275676   0.356275  -0.030865  -0.024448
    16  Si  -0.000004  -0.000463   0.356275  11.510973   0.334413   0.313035
    17  C    0.000000   0.000049  -0.030865   0.334413   5.720401  -0.042683
    18  C    0.000000  -0.000053  -0.024448   0.313035  -0.042683   5.786727
    19  C    0.000000   0.000012  -0.025680   0.315782  -0.049424  -0.054627
    20  H    0.000000   0.000001   0.000752  -0.009877  -0.000363   0.363534
    21  H    0.000000  -0.000016  -0.002135  -0.025581  -0.000363   0.369493
    22  H    0.000000  -0.000003  -0.001387  -0.027260   0.002321   0.369429
    23  H    0.000000   0.000000   0.000924  -0.010424   0.000099   0.000109
    24  H    0.000000   0.000002  -0.001761  -0.027664   0.002244  -0.001130
    25  H    0.000000   0.000003  -0.002747  -0.025816  -0.000596   0.002047
    26  H    0.000000   0.000000   0.001191  -0.014009   0.361671   0.000001
    27  H    0.000000   0.000071  -0.001762  -0.021787   0.369053   0.002162
    28  H    0.000000   0.000128  -0.001738  -0.024197   0.370528  -0.000725
    29  H   -0.000258   0.388798   0.000157   0.000066  -0.000001  -0.000001
    30  H    0.000614   0.387377   0.000057  -0.000187  -0.000001  -0.000004
    31  H   -0.000083   0.386206   0.009886   0.000632  -0.000066   0.000048
    32  H   -0.035510   0.006292  -0.000001   0.000000   0.000000   0.000000
    33  H   -0.036139  -0.000473   0.000004   0.000000   0.000000   0.000000
    34  H    0.389369  -0.000060   0.000000   0.000000   0.000000   0.000000
    35  H    0.382880   0.000052  -0.000013  -0.000007   0.000000   0.000000
    36  H    0.384042   0.000457   0.000000   0.000001   0.000000   0.000000
    37  C    0.000041   0.008294  -0.056195  -0.004402  -0.000112  -0.001515
    38  C   -0.000024  -0.000259   0.003989  -0.002091  -0.000052   0.000135
    39  C   -0.000013  -0.000010   0.000636   0.000572  -0.000001   0.000000
    40  H   -0.000049  -0.000393   0.004131   0.001388   0.000012  -0.000054
    41  H    0.000000  -0.000134  -0.004827   0.006634   0.000006   0.000902
    42  H    0.000002  -0.000075   0.004794   0.001025  -0.000076   0.000078
    43  H    0.000020  -0.000002   0.000015   0.000018   0.000000   0.000000
    44  H    0.000037   0.000003  -0.000006  -0.000013   0.000000   0.000000
              19         20         21         22         23         24
     1  C    0.000003   0.000000   0.000004   0.000007   0.000000   0.000002
     2  C   -0.000314   0.000005  -0.000067  -0.000073   0.000007  -0.000058
     3  C    0.000337  -0.000118   0.000357   0.001017  -0.000020   0.000310
     4  C   -0.000163   0.000310   0.000355  -0.000800  -0.000010  -0.000033
     5  C    0.000003   0.000001  -0.000125  -0.000138   0.000000   0.000003
     6  H    0.000001   0.000000   0.000000  -0.000002   0.000000  -0.000001
     7  H   -0.000031   0.000000   0.000005   0.000002  -0.000002  -0.000008
     8  H   -0.000163   0.000254  -0.001054   0.001429   0.000001  -0.000054
     9  H    0.000063  -0.000015   0.001217  -0.000143   0.000000   0.000013
    10  O    0.000000   0.000000   0.000000  -0.000001   0.000000   0.000000
    11  O    0.000000   0.000000   0.000006  -0.000037   0.000000   0.000000
    12  C    0.000000   0.000000   0.000000   0.000000   0.000000   0.000000
    13  C    0.000000   0.000000   0.000000   0.000000   0.000000   0.000000
    14  C    0.000012   0.000001  -0.000016  -0.000003   0.000000   0.000002
    15  O   -0.025680   0.000752  -0.002135  -0.001387   0.000924  -0.001761
    16  Si   0.315782  -0.009877  -0.025581  -0.027260  -0.010424  -0.027664
    17  C   -0.049424  -0.000363  -0.000363   0.002321   0.000099   0.002244
    18  C   -0.054627   0.363534   0.369493   0.369429   0.000109  -0.001130
    19  C    5.776624  -0.000063   0.002147  -0.000845   0.361738   0.370323
    20  H   -0.000063   0.441913  -0.020696  -0.020807   0.000375   0.000030
    21  H    0.002147  -0.020696   0.445681  -0.020174  -0.000045  -0.000041
    22  H   -0.000845  -0.020807  -0.020174   0.447594   0.000035   0.000726
    23  H    0.361738   0.000375  -0.000045   0.000035   0.451198  -0.021851
    24  H    0.370323   0.000030  -0.000041   0.000726  -0.021851   0.448572
    25  H    0.370842  -0.000053  -0.000087  -0.000030  -0.021987  -0.019658
    26  H    0.000783   0.000447  -0.000062  -0.000068   0.000508  -0.000044
    27  H   -0.000984  -0.000065  -0.000050  -0.000078  -0.000060  -0.000105
    28  H    0.002147  -0.000055   0.001127  -0.000073  -0.000062  -0.000092
    29  H    0.000001   0.000000  -0.000001   0.000000   0.000000   0.000000
    30  H    0.000001   0.000000  -0.000003  -0.000002   0.000000   0.000000
    31  H   -0.000007  -0.000001   0.000014   0.000004   0.000000   0.000000
    32  H    0.000000   0.000000   0.000000   0.000000   0.000000   0.000000
    33  H    0.000000   0.000000   0.000000   0.000000   0.000000   0.000000
    34  H    0.000000   0.000000   0.000000   0.000000   0.000000   0.000000
    35  H    0.000000   0.000000   0.000000   0.000000   0.000000   0.000000
    36  H    0.000000   0.000000   0.000000   0.000000   0.000000   0.000000
    37  C    0.000074   0.000046   0.000118  -0.000008   0.000011   0.000748
    38  C   -0.002952  -0.000004   0.000007   0.000051   0.000141   0.000544
    39  C   -0.000182   0.000000   0.000000  -0.000001   0.000004   0.000251
    40  H    0.000005  -0.000001   0.000006  -0.000041   0.000000  -0.000025
    41  H    0.000847   0.000018  -0.000168   0.002327   0.000033   0.001610
    42  H   -0.000823   0.000000   0.000001   0.000020   0.000248  -0.001334
    43  H    0.000010   0.000000   0.000000   0.000000  -0.000001   0.000012
    44  H   -0.000006   0.000000   0.000000   0.000000   0.000001  -0.000009
              25         26         27         28         29         30
     1  C   -0.000002   0.000000  -0.000001   0.000000  -0.006206  -0.005575
     2  C    0.000007   0.000000   0.000074   0.000027  -0.033741  -0.040472
     3  C    0.000335  -0.000062  -0.000131   0.000005   0.007229  -0.009750
     4  C   -0.000023  -0.000002  -0.000022   0.000023  -0.000483   0.005686
     5  C    0.000001   0.000000   0.000000  -0.000002  -0.000065  -0.000742
     6  H    0.000000   0.000000   0.000000   0.000000  -0.000335   0.000548
     7  H   -0.000037  -0.000001  -0.000001   0.000004  -0.007103   0.006505
     8  H   -0.000002  -0.000002  -0.000003   0.000005   0.000020   0.000354
     9  H   -0.000002   0.000005  -0.000021   0.000066   0.000192  -0.001147
    10  O    0.000000   0.000000   0.000000   0.000000  -0.000035   0.007399
    11  O    0.000000   0.000000   0.000000   0.000000   0.000001  -0.000392
    12  C    0.000000   0.000000   0.000000   0.000000   0.001606  -0.003983
    13  C    0.000000   0.000000   0.000000   0.000000  -0.000258   0.000614
    14  C    0.000003   0.000000   0.000071   0.000128   0.388798   0.387377
    15  O   -0.002747   0.001191  -0.001762  -0.001738   0.000157   0.000057
    16  Si  -0.025816  -0.014009  -0.021787  -0.024197   0.000066  -0.000187
    17  C   -0.000596   0.361671   0.369053   0.370528  -0.000001  -0.000001
    18  C    0.002047   0.000001   0.002162  -0.000725  -0.000001  -0.000004
    19  C    0.370842   0.000783  -0.000984   0.002147   0.000001   0.000001
    20  H   -0.000053   0.000447  -0.000065  -0.000055   0.000000   0.000000
    21  H   -0.000087  -0.000062  -0.000050   0.001127  -0.000001  -0.000003
    22  H   -0.000030  -0.000068  -0.000078  -0.000073   0.000000  -0.000002
    23  H   -0.021987   0.000508  -0.000060  -0.000062   0.000000   0.000000
    24  H   -0.019658  -0.000044  -0.000105  -0.000092   0.000000   0.000000
    25  H    0.451316   0.000027   0.001124  -0.000064   0.000001   0.000000
    26  H    0.000027   0.460673  -0.021770  -0.021823   0.000000  -0.000001
    27  H    0.001124  -0.021770   0.452749  -0.019629   0.000002  -0.000006
    28  H   -0.000064  -0.021823  -0.019629   0.454717  -0.000003  -0.000007
    29  H    0.000001   0.000000   0.000002  -0.000003   0.458814  -0.027797
    30  H    0.000000  -0.000001  -0.000006  -0.000007  -0.027797   0.474316
    31  H   -0.000009   0.000025   0.000102   0.000280  -0.023698  -0.024093
    32  H    0.000000   0.000000   0.000000   0.000000  -0.001924   0.001419
    33  H    0.000000   0.000000   0.000000   0.000000   0.000236  -0.000275
    34  H    0.000000   0.000000   0.000000   0.000000   0.000004   0.000005
    35  H    0.000000   0.000000   0.000000   0.000000   0.003185  -0.000130
    36  H    0.000000   0.000000   0.000000   0.000000  -0.000082  -0.000006
    37  C    0.000184   0.000011  -0.000023  -0.000018  -0.000130  -0.000110
    38  C   -0.000281  -0.000002  -0.000003   0.000002  -0.000036  -0.000045
    39  C   -0.000077   0.000000   0.000000   0.000000   0.000001  -0.000003
    40  H   -0.000018  -0.000001   0.000000   0.000001  -0.000006  -0.000026
    41  H   -0.000103   0.000011   0.000008   0.000001   0.000013   0.000014
    42  H    0.001162   0.000000  -0.000014   0.000001   0.000002  -0.000008
    43  H   -0.000011   0.000000   0.000000   0.000000   0.000000   0.000000
    44  H    0.000001   0.000000   0.000000   0.000000   0.000001   0.000000
              31         32         33         34         35         36
     1  C    0.006760  -0.040135  -0.050273   0.007692  -0.009163  -0.002334
     2  C   -0.038520  -0.013877   0.009707  -0.000178   0.004633  -0.002453
     3  C   -0.005884  -0.000485  -0.000230   0.000013   0.000160  -0.000200
     4  C   -0.000464   0.000164   0.000315  -0.000002  -0.000008   0.000004
     5  C   -0.000084  -0.000050  -0.000109   0.000004   0.000002  -0.000007
     6  H   -0.000157   0.007447  -0.007288  -0.000236  -0.000556   0.005287
     7  H   -0.002013   0.000205  -0.000353   0.000201  -0.000202   0.000235
     8  H   -0.000166   0.000003  -0.000013   0.000000   0.000000   0.000000
     9  H    0.000684  -0.000075   0.000010   0.000000   0.000000  -0.000001
    10  O   -0.000123   0.003291   0.004520  -0.000124  -0.000061  -0.000025
    11  O    0.000003  -0.000043  -0.000027   0.000000   0.000000   0.000000
    12  C    0.000162   0.390400   0.403632  -0.033507  -0.032798  -0.041743
    13  C   -0.000083  -0.035510  -0.036139   0.389369   0.382880   0.384042
    14  C    0.386206   0.006292  -0.000473  -0.000060   0.000052   0.000457
    15  O    0.009886  -0.000001   0.000004   0.000000  -0.000013   0.000000
    16  Si   0.000632   0.000000   0.000000   0.000000  -0.000007   0.000001
    17  C   -0.000066   0.000000   0.000000   0.000000   0.000000   0.000000
    18  C    0.000048   0.000000   0.000000   0.000000   0.000000   0.000000
    19  C   -0.000007   0.000000   0.000000   0.000000   0.000000   0.000000
    20  H   -0.000001   0.000000   0.000000   0.000000   0.000000   0.000000
    21  H    0.000014   0.000000   0.000000   0.000000   0.000000   0.000000
    22  H    0.000004   0.000000   0.000000   0.000000   0.000000   0.000000
    23  H    0.000000   0.000000   0.000000   0.000000   0.000000   0.000000
    24  H    0.000000   0.000000   0.000000   0.000000   0.000000   0.000000
    25  H   -0.000009   0.000000   0.000000   0.000000   0.000000   0.000000
    26  H    0.000025   0.000000   0.000000   0.000000   0.000000   0.000000
    27  H    0.000102   0.000000   0.000000   0.000000   0.000000   0.000000
    28  H    0.000280   0.000000   0.000000   0.000000   0.000000   0.000000
    29  H   -0.023698  -0.001924   0.000236   0.000004   0.003185  -0.000082
    30  H   -0.024093   0.001419  -0.000275   0.000005  -0.000130  -0.000006
    31  H    0.425652   0.000192   0.000023  -0.000004  -0.000043   0.000009
    32  H    0.000192   0.475456  -0.030756  -0.003970  -0.005554   0.006609
    33  H    0.000023  -0.030756   0.470411  -0.005840   0.006008  -0.004287
    34  H   -0.000004  -0.003970  -0.005840   0.461711  -0.026567  -0.025672
    35  H   -0.000043  -0.005554   0.006008  -0.026567   0.472986  -0.027681
    36  H    0.000009   0.006609  -0.004287  -0.025672  -0.027681   0.475916
    37  C    0.000452   0.000003   0.000014  -0.000001   0.000017  -0.000065
    38  C    0.000020  -0.000026  -0.000012   0.000004   0.000015   0.000477
    39  C    0.000003  -0.000003  -0.000001   0.000002   0.000035   0.001090
    40  H   -0.000053  -0.000039  -0.000003   0.000002   0.000008  -0.000072
    41  H   -0.000021   0.000003  -0.000003   0.000000   0.000000   0.000007
    42  H    0.000020  -0.000001   0.000000   0.000000   0.000004   0.000001
    43  H    0.000000   0.000000   0.000000  -0.000001   0.000003   0.000033
    44  H    0.000000   0.000001  -0.000002  -0.000002   0.000003   0.000036
              37         38         39         40         41         42
     1  C    0.004847  -0.004560  -0.000925  -0.000787  -0.000285   0.000242
     2  C   -0.097272  -0.015012   0.000219  -0.001268   0.007552  -0.001684
     3  C    0.331608  -0.060734  -0.002337  -0.024918  -0.046460  -0.000722
     4  C   -0.101942   0.008734  -0.000084  -0.006257  -0.003542   0.000085
     5  C    0.003304  -0.000315  -0.000026   0.002067  -0.000201  -0.000010
     6  H    0.005155  -0.000320   0.003521  -0.003863   0.000838  -0.000008
     7  H   -0.011425   0.009532   0.001933  -0.000165   0.000327   0.000241
     8  H   -0.007132   0.000076   0.000001  -0.000037   0.003403  -0.000007
     9  H    0.006048  -0.000186   0.000000   0.000245  -0.000334   0.000026
    10  O   -0.003632   0.000395  -0.000025   0.001666  -0.000136   0.000004
    11  O   -0.000052   0.000000   0.000000  -0.000142  -0.000005   0.000000
    12  C   -0.000556  -0.000144  -0.000108   0.000713  -0.000007   0.000021
    13  C    0.000041  -0.000024  -0.000013  -0.000049   0.000000   0.000002
    14  C    0.008294  -0.000259  -0.000010  -0.000393  -0.000134  -0.000075
    15  O   -0.056195   0.003989   0.000636   0.004131  -0.004827   0.004794
    16  Si  -0.004402  -0.002091   0.000572   0.001388   0.006634   0.001025
    17  C   -0.000112  -0.000052  -0.000001   0.000012   0.000006  -0.000076
    18  C   -0.001515   0.000135   0.000000  -0.000054   0.000902   0.000078
    19  C    0.000074  -0.002952  -0.000182   0.000005   0.000847  -0.000823
    20  H    0.000046  -0.000004   0.000000  -0.000001   0.000018   0.000000
    21  H    0.000118   0.000007   0.000000   0.000006  -0.000168   0.000001
    22  H   -0.000008   0.000051  -0.000001  -0.000041   0.002327   0.000020
    23  H    0.000011   0.000141   0.000004   0.000000   0.000033   0.000248
    24  H    0.000748   0.000544   0.000251  -0.000025   0.001610  -0.001334
    25  H    0.000184  -0.000281  -0.000077  -0.000018  -0.000103   0.001162
    26  H    0.000011  -0.000002   0.000000  -0.000001   0.000011   0.000000
    27  H   -0.000023  -0.000003   0.000000   0.000000   0.000008  -0.000014
    28  H   -0.000018   0.000002   0.000000   0.000001   0.000001   0.000001
    29  H   -0.000130  -0.000036   0.000001  -0.000006   0.000013   0.000002
    30  H   -0.000110  -0.000045  -0.000003  -0.000026   0.000014  -0.000008
    31  H    0.000452   0.000020   0.000003  -0.000053  -0.000021   0.000020
    32  H    0.000003  -0.000026  -0.000003  -0.000039   0.000003  -0.000001
    33  H    0.000014  -0.000012  -0.000001  -0.000003  -0.000003   0.000000
    34  H   -0.000001   0.000004   0.000002   0.000002   0.000000   0.000000
    35  H    0.000017   0.000015   0.000035   0.000008   0.000000   0.000004
    36  H   -0.000065   0.000477   0.001090  -0.000072   0.000007   0.000001
    37  C    5.479082   0.311577  -0.056032   0.383233   0.392886  -0.050490
    38  C    0.311577   5.076459   0.619029  -0.045983  -0.038188   0.397511
    39  C   -0.056032   0.619029   5.141694   0.002162  -0.002781  -0.037877
    40  H    0.383233  -0.045983   0.002162   0.453857  -0.025955   0.004701
    41  H    0.392886  -0.038188  -0.002781  -0.025955   0.449499  -0.001046
    42  H   -0.050490   0.397511  -0.037877   0.004701  -0.001046   0.455174
    43  H    0.006318  -0.038566   0.392908   0.000115  -0.000296  -0.007809
    44  H   -0.009133  -0.041377   0.388332   0.004423   0.000167   0.005922
              43         44
     1  C    0.000040   0.000097
     2  C    0.000035  -0.000205
     3  C   -0.000350   0.000303
     4  C    0.000015  -0.000044
     5  C    0.000000  -0.000009
     6  H    0.000034   0.000846
     7  H    0.000119  -0.000038
     8  H    0.000001   0.000004
     9  H   -0.000001   0.000002
    10  O    0.000000  -0.000029
    11  O    0.000000   0.000000
    12  C   -0.000009   0.000031
    13  C    0.000020   0.000037
    14  C   -0.000002   0.000003
    15  O    0.000015  -0.000006
    16  Si   0.000018  -0.000013
    17  C    0.000000   0.000000
    18  C    0.000000   0.000000
    19  C    0.000010  -0.000006
    20  H    0.000000   0.000000
    21  H    0.000000   0.000000
    22  H    0.000000   0.000000
    23  H   -0.000001   0.000001
    24  H    0.000012  -0.000009
    25  H   -0.000011   0.000001
    26  H    0.000000   0.000000
    27  H    0.000000   0.000000
    28  H    0.000000   0.000000
    29  H    0.000000   0.000001
    30  H    0.000000   0.000000
    31  H    0.000000   0.000000
    32  H    0.000000   0.000001
    33  H    0.000000  -0.000002
    34  H   -0.000001  -0.000002
    35  H    0.000003   0.000003
    36  H    0.000033   0.000036
    37  C    0.006318  -0.009133
    38  C   -0.038566  -0.041377
    39  C    0.392908   0.388332
    40  H    0.000115   0.004423
    41  H   -0.000296   0.000167
    42  H   -0.007809   0.005922
    43  H    0.451725  -0.033477
    44  H   -0.033477   0.460890
 Mulliken charges:
               1
     1  C   -0.030497
     2  C   -0.325006
     3  C    0.218394
     4  C   -0.634462
     5  C    0.477233
     6  H    0.256980
     7  H    0.264374
     8  H    0.276801
     9  H    0.294079
    10  O   -0.325206
    11  O   -0.382852
    12  C   -0.462924
    13  C   -0.674968
    14  C   -0.679839
    15  O   -0.631551
    16  Si   1.404869
    17  C   -1.038359
    18  C   -1.075802
    19  C   -1.065479
    20  H    0.244434
    21  H    0.250128
    22  H    0.247008
    23  H    0.239031
    24  H    0.248477
    25  H    0.244554
    26  H    0.232494
    27  H    0.241168
    28  H    0.239425
    29  H    0.241580
    30  H    0.230469
    31  H    0.264311
    32  H    0.240965
    33  H    0.241203
    34  H    0.237156
    35  H    0.232789
    36  H    0.230424
    37  C   -0.533826
    38  C   -0.177523
    39  C   -0.451907
    40  H    0.251417
    41  H    0.257388
    42  H    0.230700
    43  H    0.229100
    44  H    0.223251
 Sum of Mulliken charges =   0.00000
 Mulliken charges with hydrogens summed into heavy atoms:
               1
     1  C    0.226482
     2  C   -0.060632
     3  C    0.218394
     4  C   -0.063583
     5  C    0.477233
    10  O   -0.325206
    11  O   -0.382852
    12  C    0.019244
    13  C    0.025401
    14  C    0.056522
    15  O   -0.631551
    16  Si   1.404869
    17  C   -0.325272
    18  C   -0.334232
    19  C   -0.333417
    37  C   -0.025022
    38  C    0.053177
    39  C    0.000444
 Electronic spatial extent (au):  <R**2>=           5534.8386
 Charge=              0.0000 electrons
 Dipole moment (field-independent basis, Debye):
    X=              2.3170    Y=              4.3336    Z=              1.5487  Tot=              5.1524
 Quadrupole moment (field-independent basis, Debye-Ang):
   XX=           -114.9340   YY=           -132.2253   ZZ=           -120.9428
   XY=            -13.1987   XZ=             -5.6407   YZ=             -8.0254
 Traceless Quadrupole moment (field-independent basis, Debye-Ang):
   XX=              7.7667   YY=             -9.5246   ZZ=              1.7579
   XY=            -13.1987   XZ=             -5.6407   YZ=             -8.0254
 Octapole moment (field-independent basis, Debye-Ang**2):
  XXX=             10.5690  YYY=             45.5792  ZZZ=             -0.6427  XYY=             24.7948
  XXY=             21.3249  XXZ=             12.2904  XZZ=             -8.5061  YZZ=              6.4309
  YYZ=             31.5922  XYZ=             20.3555
 Hexadecapole moment (field-independent basis, Debye-Ang**3):
 XXXX=          -4298.7166 YYYY=          -1924.8171 ZZZZ=          -1221.8340 XXXY=            -54.8700
 XXXZ=            -32.2147 YYYX=            -82.6561 YYYZ=            -88.2240 ZZZX=             -3.6738
 ZZZY=             14.6394 XXYY=          -1131.9261 XXZZ=           -960.2848 YYZZ=           -549.5358
 XXYZ=            -21.1572 YYXZ=            -18.8433 ZZXY=            -25.5016
 N-N= 1.625990738066D+03 E-N=-5.747098159900D+03  KE= 1.060531056672D+03
 1\1\GINC-CPU-E-1146\SP\RmPW1PW91\6-311G(d)\C14H26O3Si1\KE291\06-Feb-20
 19\0\\# mPW1PW91/6-311g(d) geom=checkpoint nmr=giao scrf=(solvent=chlo
 roform)\\P_ng_4ginp004\\0,1\C,0,0.072129045,2.0477763952,-0.4875573732
 \C,0,-0.1597305959,1.3411901577,0.8550239423\C,0,-1.1773932407,2.16616
 67484,1.6909568366\C,0,-0.576797783,3.5647572764,1.9183141504\C,0,0.08
 78404368,4.2141328649,0.7139130027\H,0,-0.8749710691,2.0859182611,-1.0
 369975909\H,0,-0.6441325412,0.3860806626,0.6238577223\H,0,-1.317582656
 6,4.2747585025,2.292877702\H,0,0.2004094307,3.4926465589,2.6873056327\
 O,0,0.4939951533,3.4399294284,-0.3142904698\O,0,0.3288130704,5.4032653
 635,0.679384449\C,0,1.1204929809,1.4236477552,-1.4088492091\C,0,0.7550
 795697,0.0113714455,-1.8772675322\C,0,1.1438001151,1.0492922861,1.6161
 772604\O,0,-1.3366706428,1.4851681478,2.9332453458\Si,0,-2.2430949955,
 1.7047534623,4.3356495078\C,0,-1.2878017478,0.7455975604,5.6414549287\
 C,0,-2.3965668589,3.518055079,4.8394178372\C,0,-3.9692237927,0.9647863
 613,4.1485930668\H,0,-2.9202471478,3.579668179,5.8008283179\H,0,-1.419
 0755945,3.9942807483,4.9652809309\H,0,-2.9718666826,4.1093683376,4.119
 3139471\H,0,-4.5030959302,1.0237434578,5.1044789764\H,0,-4.5749227134,
 1.4876266612,3.4016679299\H,0,-3.9213592625,-0.0914157695,3.8626480667
 \H,0,-1.8114937661,0.7661536111,6.603673071\H,0,-1.1671215206,-0.30281
 26608,5.3491721839\H,0,-0.2890200844,1.1678609066,5.793446886\H,0,1.73
 24942652,0.2879740095,1.0976380398\H,0,1.7750907427,1.9381527215,1.714
 6647218\H,0,0.917534091,0.6772947533,2.6161080082\H,0,2.0948714717,1.4
 222356456,-0.909228095\H,0,1.218570552,2.0850055846,-2.276784427\H,0,1
 .487624933,-0.3486299977,-2.6053223746\H,0,0.7344536098,-0.704478813,-
 1.0495676701\H,0,-0.2290182989,-0.0072866729,-2.3581542879\C,0,-2.5541
 431543,2.3003995955,0.9812735494\C,0,-3.1758034429,0.9998351084,0.5516
 854443\C,0,-3.6669532782,0.7577762561,-0.6651750213\H,0,-2.4731670206,
 2.9735518,0.1206575841\H,0,-3.2202733676,2.8104778343,1.6907853478\H,0
 ,-3.2278742674,0.2210519209,1.3104524847\H,0,-4.1222598136,-0.19569613
 04,-0.9162975037\H,0,-3.6420291978,1.5078425957,-1.45277032\\Version=E
 S64L-G09RevD.01\State=1-A\HF=-1064.3839845\RMSD=9.073e-09\Dipole=-0.93
 08921,-1.7371106,0.4744229\Quadrupole=2.0730978,-10.2213982,8.1483004,
 -7.2039942,0.4758946,7.2367757\PG=C01 [X(C14H26O3Si1)]\\@


 One man practicing sportsmanship is far better than 50 preaching it.
 -- Knute K. Rockne
 Job cpu time:       0 days  0 hours 18 minutes 42.1 seconds.
 File lengths (MBytes):  RWF=    233 Int=      0 D2E=      0 Chk=     19 Scr=      1
 Normal termination of Gaussian 09 at Wed Feb  6 11:20:00 2019.
